
                                 *****************
                                 * O   R   C   A *
                                 *****************

                                            #,                                       
                                            ###                                      
                                            ####                                     
                                            #####                                    
                                            ######                                   
                                           ########,                                 
                                     ,,################,,,,,                         
                               ,,#################################,,                 
                          ,,##########################################,,             
                       ,#########################################, ''#####,          
                    ,#############################################,,   '####,        
                  ,##################################################,,,,####,       
                ,###########''''           ''''###############################       
              ,#####''   ,,,,##########,,,,          '''####'''          '####       
            ,##' ,,,,###########################,,,                        '##       
           ' ,,###''''                  '''############,,,                           
         ,,##''                                '''############,,,,        ,,,,,,###''
      ,#''                                            '''#######################'''  
     '                                                          ''''####''''         
             ,#######,   #######,   ,#######,      ##                                
            ,#'     '#,  ##    ##  ,#'     '#,    #''#        ######   ,####,        
            ##       ##  ##   ,#'  ##            #'  '#       #        #'  '#        
            ##       ##  #######   ##           ,######,      #####,   #    #        
            '#,     ,#'  ##    ##  '#,     ,#' ,#      #,         ##   #,  ,#        
             '#######'   ##     ##  '#######'  #'      '#     #####' # '####'        



                  #######################################################
                  #                        -***-                        #
                  #          Department of theory and spectroscopy      #
                  #    Directorship and core code : Frank Neese         #
                  #        Max Planck Institute fuer Kohlenforschung    #
                  #                Kaiser Wilhelm Platz 1               #
                  #                 D-45470 Muelheim/Ruhr               #
                  #                      Germany                        #
                  #                                                     #
                  #                  All rights reserved                #
                  #                        -***-                        #
                  #######################################################


                         Program Version 5.0.4 -  RELEASE  -


 With contributions from (in alphabetic order):
   Daniel Aravena         : Magnetic Suceptibility
   Michael Atanasov       : Ab Initio Ligand Field Theory (pilot matlab implementation)
   Alexander A. Auer      : GIAO ZORA, VPT2 properties, NMR spectrum
   Ute Becker             : Parallelization
   Giovanni Bistoni       : ED, misc. LED, open-shell LED, HFLD
   Martin Brehm           : Molecular dynamics
   Dmytro Bykov           : SCF Hessian
   Vijay G. Chilkuri      : MRCI spin determinant printing, contributions to CSF-ICE
   Dipayan Datta          : RHF DLPNO-CCSD density
   Achintya Kumar Dutta   : EOM-CC, STEOM-CC
   Dmitry Ganyushin       : Spin-Orbit,Spin-Spin,Magnetic field MRCI
   Miquel Garcia          : C-PCM and meta-GGA Hessian, CC/C-PCM, Gaussian charge scheme
   Yang Guo               : DLPNO-NEVPT2, F12-NEVPT2, CIM, IAO-localization
   Andreas Hansen         : Spin unrestricted coupled pair/coupled cluster methods
   Benjamin Helmich-Paris : MC-RPA, TRAH-SCF, COSX integrals
   Lee Huntington         : MR-EOM, pCC
   Robert Izsak           : Overlap fitted RIJCOSX, COSX-SCS-MP3, EOM
   Marcus Kettner         : VPT2
   Christian Kollmar      : KDIIS, OOCD, Brueckner-CCSD(T), CCSD density, CASPT2, CASPT2-K
   Simone Kossmann        : Meta GGA functionals, TD-DFT gradient, OOMP2, MP2 Hessian
   Martin Krupicka        : Initial AUTO-CI
   Lucas Lang             : DCDCAS
   Marvin Lechner         : AUTO-CI (C++ implementation), FIC-MRCC
   Dagmar Lenk            : GEPOL surface, SMD
   Dimitrios Liakos       : Extrapolation schemes; Compound Job, initial MDCI parallelization
   Dimitrios Manganas     : Further ROCIS development; embedding schemes
   Dimitrios Pantazis     : SARC Basis sets
   Anastasios Papadopoulos: AUTO-CI, single reference methods and gradients
   Taras Petrenko         : DFT Hessian,TD-DFT gradient, ASA, ECA, R-Raman, ABS, FL, XAS/XES, NRVS
   Peter Pinski           : DLPNO-MP2, DLPNO-MP2 Gradient
   Christoph Reimann      : Effective Core Potentials
   Marius Retegan         : Local ZFS, SOC
   Christoph Riplinger    : Optimizer, TS searches, QM/MM, DLPNO-CCSD(T), (RO)-DLPNO pert. Triples
   Tobias Risthaus        : Range-separated hybrids, TD-DFT gradient, RPA, STAB
   Michael Roemelt        : Original ROCIS implementation
   Masaaki Saitow         : Open-shell DLPNO-CCSD energy and density
   Barbara Sandhoefer     : DKH picture change effects
   Avijit Sen             : IP-ROCIS
   Kantharuban Sivalingam : CASSCF convergence, NEVPT2, FIC-MRCI
   Bernardo de Souza      : ESD, SOC TD-DFT
   Georgi Stoychev        : AutoAux, RI-MP2 NMR, DLPNO-MP2 response
   Willem Van den Heuvel  : Paramagnetic NMR
   Boris Wezisla          : Elementary symmetry handling
   Frank Wennmohs         : Technical directorship


 We gratefully acknowledge several colleagues who have allowed us to
 interface, adapt or use parts of their codes:
   Stefan Grimme, W. Hujo, H. Kruse, P. Pracht,  : VdW corrections, initial TS optimization,
                  C. Bannwarth, S. Ehlert          DFT functionals, gCP, sTDA/sTD-DF
   Ed Valeev, F. Pavosevic, A. Kumar             : LibInt (2-el integral package), F12 methods
   Garnet Chan, S. Sharma, J. Yang, R. Olivares  : DMRG
   Ulf Ekstrom                                   : XCFun DFT Library
   Mihaly Kallay                                 : mrcc  (arbitrary order and MRCC methods)
   Jiri Pittner, Ondrej Demel                    : Mk-CCSD
   Frank Weinhold                                : gennbo (NPA and NBO analysis)
   Christopher J. Cramer and Donald G. Truhlar   : smd solvation model
   Lars Goerigk                                  : TD-DFT with DH, B97 family of functionals
   V. Asgeirsson, H. Jonsson                     : NEB implementation
   FAccTs GmbH                                   : IRC, NEB, NEB-TS, DLPNO-Multilevel, CI-OPT
                                                   MM, QMMM, 2- and 3-layer-ONIOM, Crystal-QMMM,
                                                   LR-CPCM, SF, NACMEs, symmetry and pop. for TD-DFT,
                                                   nearIR, NL-DFT gradient (VV10), updates on ESD,
                                                   ML-optimized integration grids
   S Lehtola, MJT Oliveira, MAL Marques          : LibXC Library
   Liviu Ungur et al                             : ANISO software


 Your calculation uses the libint2 library for the computation of 2-el integrals
 For citations please refer to: http://libint.valeyev.net

 Your ORCA version has been built with support for libXC version: 5.1.0
 For citations please refer to: https://tddft.org/programs/libxc/

 This ORCA versions uses:
   CBLAS   interface :  Fast vector & matrix operations
   LAPACKE interface :  Fast linear algebra routines
   SCALAPACK package :  Parallel linear algebra routines
   Shared memory     :  Shared parallel matrices
   BLAS/LAPACK       :  OpenBLAS 0.3.15  USE64BITINT DYNAMIC_ARCH NO_AFFINITY SkylakeX SINGLE_THREADED
        Core in use  :  SkylakeX
   Copyright (c) 2011-2014, The OpenBLAS Project




***************************************
The coordinates will be read from file: butylamine_deprot_aq_19.xyz
***************************************


Your calculation utilizes the atom-pairwise dispersion correction
based on tight binding partial charges (D4)
Cite in your paper:
E.Caldeweyher, C.Bannwarth, S.Grimme, J.Chem.Phys., (2017), 147, 034112.
E.Caldeweyher, S.Ehlert, A.Hansen, H.Neugebauer, S.Grimme, J.Chem.Phys., (2018), in progress.
   

XCFun DFT library Copyright 2009-2010 Ulf Ekstrom and contributors.
See http://admol.org/xcfun for more information.
This is free software; see the source code for copying conditions.
There is ABSOLUTELY NO WARRANTY; not even for MERCHANTABILITY or FITNESS FOR A PARTICULAR PURPOSE.
For details see the documentation.
Scientific users of this library should cite U. Ekstrom, L. Visscher, R. Bast, A. J. Thorvaldsen and K. Ruud;
J.Chem.Theor.Comp. 2010, DOI: 10.1021/ct100117s
XCFun Version 0.99 

================================================================================

----- Orbital basis set information -----
Your calculation utilizes the basis: def2-SVP
   F. Weigend and R. Ahlrichs, Phys. Chem. Chem. Phys. 7, 3297 (2005).

----- AuxJ basis set information -----
Your calculation utilizes the auxiliary basis: def2/J
   F. Weigend, Phys. Chem. Chem. Phys. 8, 1057 (2006).

================================================================================
                                        WARNINGS
                       Please study these warnings very carefully!
================================================================================


WARNING: Geometry Optimization
  ===> : Switching off AutoStart
         For restart on a previous wavefunction, please use MOREAD

INFO   : the flag for use of the SHARK integral package has been found!

================================================================================
                                       INPUT FILE
================================================================================
NAME = butylamine_deprot_aq_19.inp
|  1> # ORCA 5.0.4 - /users/bwb16179/postgrad/2024_06/pKa_Reviewer_Comments/CREST_Confs/butylamine/butylamine_deprot_aq_19.inp # write input file
|  2> # Basic Mode
|  3> #
|  4> ! Opt Freq wB97X Def2-SVP D4 SlowConv TightSCF Defgrid2 Def2/J RIJCOSX 
|  5> 
|  6> %PAL NPROCS 4 END
|  7> 
|  8> %maxcore 4500
|  9> 
| 10> %geom
| 11> Maxiter 150
| 12> END
| 13> 
| 14> * xyzfile 0 1 butylamine_deprot_aq_19.xyz
| 15> 
| 16>                          ****END OF INPUT****
================================================================================

                       *****************************
                       * Geometry Optimization Run *
                       *****************************

Geometry optimization settings:
Update method            Update   .... BFGS
Choice of coordinates    CoordSys .... Z-matrix Internals
Initial Hessian          InHess   .... Almoef's Model

Convergence Tolerances:
Energy Change            TolE     ....  5.0000e-06 Eh
Max. Gradient            TolMAXG  ....  3.0000e-04 Eh/bohr
RMS Gradient             TolRMSG  ....  1.0000e-04 Eh/bohr
Max. Displacement        TolMAXD  ....  4.0000e-03 bohr
RMS Displacement         TolRMSD  ....  2.0000e-03 bohr
Strict Convergence                ....  False
------------------------------------------------------------------------------
                        ORCA OPTIMIZATION COORDINATE SETUP
------------------------------------------------------------------------------

The optimization will be done in new redundant internal coordinates
Making redundant internal coordinates   ...  (new redundants) done
Evaluating the initial hessian          ...  (Almloef) done
Evaluating the coordinates              ...  done
Calculating the B-matrix                .... done
Calculating the G-matrix                .... done
Diagonalizing the G-matrix              .... done
Small eigenvalue found = 2.506e-02
The first mode is                       ....   33
The number of degrees of freedom        ....   42

    -----------------------------------------------------------------
                    Redundant Internal Coordinates


    -----------------------------------------------------------------
         Definition                    Initial Value    Approx d2E/dq
    -----------------------------------------------------------------
      1. B(C   1,C   0)                  1.5257         0.379592   
      2. B(H   2,C   0)                  1.0877         0.363110   
      3. B(H   3,C   0)                  1.0862         0.365174   
      4. B(H   4,C   0)                  1.0882         0.362501   
      5. B(C   5,C   1)                  1.5351         0.366578   
      6. B(H   6,C   1)                  1.0923         0.357071   
      7. B(H   7,C   1)                  1.0930         0.356197   
      8. B(C   8,C   5)                  1.5305         0.372877   
      9. B(H   9,C   5)                  1.0901         0.359957   
     10. B(H  10,C   5)                  1.0917         0.357828   
     11. B(N  11,C   8)                  1.4568         0.437747   
     12. B(H  12,C   8)                  1.0945         0.354141   
     13. B(H  13,C   8)                  1.1052         0.340561   
     14. B(H  14,N  11)                  1.0136         0.427059   
     15. B(H  15,N  11)                  1.0143         0.426003   
     16. A(H   3,C   0,H   4)          108.7581         0.291784   
     17. A(C   1,C   0,H   4)          110.4615         0.325527   
     18. A(C   1,C   0,H   2)          110.1048         0.325617   
     19. A(H   2,C   0,H   3)          108.0222         0.291861   
     20. A(H   2,C   0,H   4)          108.2991         0.291524   
     21. A(C   1,C   0,H   3)          111.1118         0.325921   
     22. A(C   0,C   1,C   5)          112.9028         0.363170   
     23. A(H   6,C   1,H   7)          106.9938         0.289958   
     24. A(C   5,C   1,H   7)          109.4841         0.322737   
     25. A(C   0,C   1,H   7)          109.7333         0.324590   
     26. A(C   5,C   1,H   6)          109.2210         0.322866   
     27. A(C   0,C   1,H   6)          108.3258         0.324720   
     28. A(C   8,C   5,H   9)          108.5738         0.324198   
     29. A(C   1,C   5,H   9)          109.4545         0.323293   
     30. A(C   1,C   5,C   8)          114.0597         0.362064   
     31. A(H   9,C   5,H  10)          107.9622         0.290532   
     32. A(C   8,C   5,H  10)          107.0863         0.323883   
     33. A(C   1,C   5,H  10)          109.5163         0.322979   
     34. A(H  12,C   8,H  13)          107.4889         0.287555   
     35. A(N  11,C   8,H  13)          112.7843         0.327873   
     36. A(C   5,C   8,H  13)          108.7026         0.321268   
     37. A(N  11,C   8,H  12)          107.2080         0.329996   
     38. A(C   5,C   8,H  12)          108.5348         0.323333   
     39. A(C   5,C   8,N  11)          111.9391         0.370915   
     40. A(H  14,N  11,H  15)          107.3084         0.301867   
     41. A(C   8,N  11,H  15)          109.5643         0.337359   
     42. A(C   8,N  11,H  14)          109.7499         0.337498   
     43. D(H   6,C   1,C   0,H   4)     63.1231         0.011485   
     44. D(C   5,C   1,C   0,H   3)    -54.9888         0.011485   
     45. D(H   7,C   1,C   0,H   3)     67.4383         0.011485   
     46. D(H   6,C   1,C   0,H   2)    -56.4440         0.011485   
     47. D(C   5,C   1,C   0,H   4)   -175.7850         0.011485   
     48. D(H   6,C   1,C   0,H   3)   -176.0806         0.011485   
     49. D(H   7,C   1,C   0,H   4)    -53.3580         0.011485   
     50. D(C   5,C   1,C   0,H   2)     64.6478         0.011485   
     51. D(H   7,C   1,C   0,H   2)   -172.9251         0.011485   
     52. D(H   9,C   5,C   1,H   6)     95.7250         0.010755   
     53. D(C   8,C   5,C   1,H   7)    -25.5760         0.010755   
     54. D(C   8,C   5,C   1,H   6)   -142.4274         0.010755   
     55. D(C   8,C   5,C   1,C   0)     96.9904         0.010755   
     56. D(H   9,C   5,C   1,H   7)   -147.4236         0.010755   
     57. D(H  10,C   5,C   1,H   7)     94.3995         0.010755   
     58. D(H  10,C   5,C   1,H   6)    -22.4519         0.010755   
     59. D(H  10,C   5,C   1,C   0)   -143.0341         0.010755   
     60. D(H   9,C   5,C   1,C   0)    -24.8571         0.010755   
     61. D(H  13,C   8,C   5,H   9)   -179.4538         0.011104   
     62. D(H  13,C   8,C   5,C   1)     58.2146         0.011104   
     63. D(H  12,C   8,C   5,H  10)     53.5068         0.011104   
     64. D(H  12,C   8,C   5,H   9)    -62.8299         0.011104   
     65. D(H  12,C   8,C   5,C   1)    174.8385         0.011104   
     66. D(N  11,C   8,C   5,H  10)    171.6340         0.011104   
     67. D(N  11,C   8,C   5,H   9)     55.2973         0.011104   
     68. D(H  13,C   8,C   5,H  10)    -63.1171         0.011104   
     69. D(N  11,C   8,C   5,C   1)    -67.0343         0.011104   
     70. D(H  15,N  11,C   8,C   5)     67.9583         0.016339   
     71. D(H  14,N  11,C   8,H  13)     62.5781         0.016339   
     72. D(H  14,N  11,C   8,H  12)    -55.5418         0.016339   
     73. D(H  14,N  11,C   8,C   5)   -174.4563         0.016339   
     74. D(H  15,N  11,C   8,H  13)    -55.0074         0.016339   
     75. D(H  15,N  11,C   8,H  12)   -173.1273         0.016339   
    -----------------------------------------------------------------

Number of atoms                         .... 16
Number of degrees of freedom            .... 75

         *************************************************************
         *                GEOMETRY OPTIMIZATION CYCLE   1            *
         *************************************************************
---------------------------------
CARTESIAN COORDINATES (ANGSTROEM)
---------------------------------
  C     -1.794975    0.819116    0.357654
  C     -1.208947   -0.564811    0.095114
  H     -2.229259    1.220586   -0.555246
  H     -1.029096    1.510229    0.697656
  H     -2.576824    0.764195    1.112543
  C     -0.029303   -0.537601   -0.886912
  H     -1.999091   -1.201249   -0.309529
  H     -0.887971   -1.014608    1.038105
  C      1.344281   -0.524413   -0.211969
  H     -0.110049    0.340999   -1.527130
  H     -0.064955   -1.423139   -1.524416
  N      1.582182    0.716111    0.513917
  H      2.113534   -0.598676   -0.987056
  H      1.432241   -1.419631    0.430123
  H      2.531210    0.728192    0.869639
  H      0.959709    0.766718    1.313086

----------------------------
CARTESIAN COORDINATES (A.U.)
----------------------------
  NO LB      ZA    FRAG     MASS         X           Y           Z
   0 C     6.0000    0    12.011   -3.392012    1.547904    0.675868
   1 C     6.0000    0    12.011   -2.284578   -1.067338    0.179739
   2 H     1.0000    0     1.008   -4.212688    2.306573   -1.049262
   3 H     1.0000    0     1.008   -1.944709    2.853920    1.318380
   4 H     1.0000    0     1.008   -4.869491    1.444120    2.102401
   5 C     6.0000    0    12.011   -0.055375   -1.015919   -1.676022
   6 H     1.0000    0     1.008   -3.777735   -2.270032   -0.584925
   7 H     1.0000    0     1.008   -1.678022   -1.917332    1.961735
   8 C     6.0000    0    12.011    2.540324   -0.990996   -0.400563
   9 H     1.0000    0     1.008   -0.207962    0.644394   -2.885857
  10 H     1.0000    0     1.008   -0.122747   -2.689344   -2.880728
  11 N     7.0000    0    14.007    2.989891    1.353254    0.971163
  12 H     1.0000    0     1.008    3.994000   -1.131333   -1.865265
  13 H     1.0000    0     1.008    2.706544   -2.682715    0.812815
  14 H     1.0000    0     1.008    4.783294    1.376084    1.643380
  15 H     1.0000    0     1.008    1.813588    1.448888    2.481374

--------------------------------
INTERNAL COORDINATES (ANGSTROEM)
--------------------------------
 C      0   0   0     0.000000000000     0.00000000     0.00000000
 C      1   0   0     1.525650477651     0.00000000     0.00000000
 H      1   2   0     1.087734204798   110.10480536     0.00000000
 H      1   2   3     1.086191172785   111.11182836   240.36338148
 H      1   2   3     1.088191068378   110.46146672   119.56716723
 C      2   1   3     1.535146494805   112.90277176    64.64779431
 H      2   1   3     1.092299518591   108.32583256   303.55597755
 H      2   1   3     1.092966814365   109.73334085   187.07487875
 C      6   2   1     1.530508800487   114.05971895    96.99043355
 H      6   2   1     1.090108328642   109.45452744   335.14288831
 H      6   2   1     1.091723049360   109.51626408   216.96592431
 N      9   6   2     1.456848436003   111.93910285   292.96566694
 H      9   6   2     1.094542636588   108.53475268   174.83848548
 H      9   6   2     1.105186105891   108.70263318    58.21463674
 H     12   9   6     1.013576884549   109.74989410   185.54373554
 H     12   9   6     1.014250815060   109.56427679    67.95826518

---------------------------
INTERNAL COORDINATES (A.U.)
---------------------------
 C      0   0   0     0.000000000000     0.00000000     0.00000000
 C      1   0   0     2.883061578846     0.00000000     0.00000000
 H      1   2   0     2.055519753568   110.10480536     0.00000000
 H      1   2   3     2.052603845646   111.11182836   240.36338148
 H      1   2   3     2.056383100613   110.46146672   119.56716723
 C      2   1   3     2.901006450630   112.90277176    64.64779431
 H      2   1   3     2.064146946350   108.32583256   303.55597755
 H      2   1   3     2.065407952614   109.73334085   187.07487875
 C      6   2   1     2.892242478477   114.05971895    96.99043355
 H      6   2   1     2.060006197440   109.45452744   335.14288831
 H      6   2   1     2.063057577379   109.51626408   216.96592431
 N      9   6   2     2.753044562677   111.93910285   292.96566694
 H      9   6   2     2.068385825051   108.53475268   174.83848548
 H      9   6   2     2.088499067150   108.70263318    58.21463674
 H     12   9   6     1.915382727471   109.74989410   185.54373554
 H     12   9   6     1.916656271569   109.56427679    67.95826518

---------------------
BASIS SET INFORMATION
---------------------
There are 3 groups of distinct atoms

 Group   1 Type C   : 7s4p1d contracted to 3s2p1d pattern {511/31/1}
 Group   2 Type H   : 4s1p contracted to 2s1p pattern {31/1}
 Group   3 Type N   : 7s4p1d contracted to 3s2p1d pattern {511/31/1}

Atom   0C    basis set group =>   1
Atom   1C    basis set group =>   1
Atom   2H    basis set group =>   2
Atom   3H    basis set group =>   2
Atom   4H    basis set group =>   2
Atom   5C    basis set group =>   1
Atom   6H    basis set group =>   2
Atom   7H    basis set group =>   2
Atom   8C    basis set group =>   1
Atom   9H    basis set group =>   2
Atom  10H    basis set group =>   2
Atom  11N    basis set group =>   3
Atom  12H    basis set group =>   2
Atom  13H    basis set group =>   2
Atom  14H    basis set group =>   2
Atom  15H    basis set group =>   2
---------------------------------
AUXILIARY/J BASIS SET INFORMATION
---------------------------------
There are 3 groups of distinct atoms

 Group   1 Type C   : 12s5p4d2f1g contracted to 6s4p3d1f1g pattern {711111/2111/211/2/1}
 Group   2 Type H   : 5s2p1d contracted to 3s1p1d pattern {311/2/1}
 Group   3 Type N   : 12s5p4d2f1g contracted to 6s4p3d1f1g pattern {711111/2111/211/2/1}

Atom   0C    basis set group =>   1
Atom   1C    basis set group =>   1
Atom   2H    basis set group =>   2
Atom   3H    basis set group =>   2
Atom   4H    basis set group =>   2
Atom   5C    basis set group =>   1
Atom   6H    basis set group =>   2
Atom   7H    basis set group =>   2
Atom   8C    basis set group =>   1
Atom   9H    basis set group =>   2
Atom  10H    basis set group =>   2
Atom  11N    basis set group =>   3
Atom  12H    basis set group =>   2
Atom  13H    basis set group =>   2
Atom  14H    basis set group =>   2
Atom  15H    basis set group =>   2


           ************************************************************
           *        Program running with 4 parallel MPI-processes     *
           *              working on a common directory               *
           ************************************************************
------------------------------------------------------------------------------
                           ORCA GTO INTEGRAL CALCULATION
                           -- RI-GTO INTEGRALS CHOSEN --
------------------------------------------------------------------------------
------------------------------------------------------------------------------
                   ___                                                        
                  /   \      - P O W E R E D   B Y -                         
                 /     \                                                     
                 |  |  |   _    _      __       _____    __    __             
                 |  |  |  | |  | |    /  \     |  _  \  |  |  /  |          
                  \  \/   | |  | |   /    \    | | | |  |  | /  /          
                 / \  \   | |__| |  /  /\  \   | |_| |  |  |/  /          
                |  |  |   |  __  | /  /__\  \  |    /   |      \           
                |  |  |   | |  | | |   __   |  |    \   |  |\   \          
                \     /   | |  | | |  |  |  |  | |\  \  |  | \   \       
                 \___/    |_|  |_| |__|  |__|  |_| \__\ |__|  \__/        
                                                                              
                      - O R C A' S   B I G   F R I E N D -                    
                                      &                                       
                       - I N T E G R A L  F E E D E R -                       
                                                                              
 v1 FN, 2020, v2 2021                                                         
------------------------------------------------------------------------------


Reading SHARK input file butylamine_deprot_aq_19.SHARKINP.tmp ... ok
----------------------
SHARK INTEGRAL PACKAGE
----------------------

Number of atoms                             ...     16
Number of basis functions                   ...    125
Number of shells                            ...     63
Maximum angular momentum                    ...      2
Integral batch strategy                     ... SHARK/LIBINT Hybrid
RI-J (if used) integral strategy            ... SPLIT-RIJ (Revised 2003 algorithm where possible)
Printlevel                                  ...      1
Contraction scheme used                     ... SEGMENTED contraction
Coulomb Range Separation                    ... NOT USED
Exchange Range Separation                   ... Long Range
   Mu parameter                             ...  0.300000
   Scaling (regular/separated)              ...  0.157706  0.842294
Finite Nucleus Model                        ... NOT USED
Auxiliary Coulomb fitting basis             ... AVAILABLE
   # of basis functions in Aux-J            ...    366
   # of shells in Aux-J                     ...    130
   Maximum angular momentum in Aux-J        ...      4
Auxiliary J/K fitting basis                 ... NOT available
Auxiliary Correlation fitting basis         ... NOT available
Auxiliary 'external' fitting basis          ... NOT available
Integral threshold                          ...     2.500000e-11
Primitive cut-off                           ...     2.500000e-12
Primitive pair pre-selection threshold      ...     2.500000e-12

Calculating pre-screening integrals         ... done (  0.0 sec) Dimension = 63
Organizing shell pair data                  ... done (  0.0 sec)
Shell pair information
Total number of shell pairs                 ...      2016
Shell pairs after pre-screening             ...      1985
Total number of primitive shell pairs       ...      6768
Primitive shell pairs kept                  ...      5283
          la=0 lb=0:    693 shell pairs
          la=1 lb=0:    763 shell pairs
          la=1 lb=1:    225 shell pairs
          la=2 lb=0:    184 shell pairs
          la=2 lb=1:    105 shell pairs
          la=2 lb=2:     15 shell pairs

Calculating one electron integrals          ... done (  0.0 sec)
Calculating RI/J V-Matrix + Cholesky decomp.... done (  0.0 sec)
Calculating Nuclear repulsion               ... done (  0.0 sec) ENN=    192.293723816799 Eh

SHARK setup successfully completed in   0.7 seconds

Maximum memory used throughout the entire GTOINT-calculation: 10.7 MB


           ************************************************************
           *        Program running with 4 parallel MPI-processes     *
           *              working on a common directory               *
           ************************************************************
-------------------------------------------------------------------------------
                                 ORCA SCF
-------------------------------------------------------------------------------

------------
SCF SETTINGS
------------
Hamiltonian:
 Density Functional     Method          .... DFT(GTOs)
 Exchange Functional    Exchange        .... WB97X
 Correlation Functional Correlation     .... WB97X
 Gradients option       PostSCFGGA      .... off
 Hybrid DFT is turned on
   Fraction HF Exchange ScalHFX         ....  0.157706
   Scaling of DF-GGA-X  ScalDFX         ....  0.000000
   Scaling of DF-GGA-C  ScalDFC         ....  1.000000
   Scaling of DF-LDA-C  ScalLDAC        ....  1.000000
   Perturbative correction              ....  0.000000
   Density functional embedding theory  .... OFF
 Long-range corrected/Screened/Range-Separated Hybrid DFT is turned on
   Amount of maximum screened exact exchange              ....  0.842294
   Range separation parameter mu (erf(mu*r12)/r12)        ....  0.300000
 RI-approximation to the Coulomb term is turned on
   Number of AuxJ basis functions       .... 366
   RIJ-COSX (HFX calculated with COS-X)).... on


General Settings:
 Integral files         IntName         .... butylamine_deprot_aq_19
 Hartree-Fock type      HFTyp           .... RHF
 Total Charge           Charge          ....    0
 Multiplicity           Mult            ....    1
 Number of Electrons    NEL             ....   42
 Basis Dimension        Dim             ....  125
 Nuclear Repulsion      ENuc            ....    192.2937238168 Eh

Convergence Acceleration:
 DIIS                   CNVDIIS         .... on
   Start iteration      DIISMaxIt       ....     0
   Startup error        DIISStart       ....  0.200000
   # of expansion vecs  DIISMaxEq       ....     5
   Bias factor          DIISBfac        ....   1.050
   Max. coefficient     DIISMaxC        ....  10.000
 Trust-Rad. Augm. Hess. CNVTRAH         .... auto
   Auto Start mean grad. ratio tolernc. ....  1.125000
   Auto Start start iteration           ....    20
   Auto Start num. interpolation iter.  ....    10
   Max. Number of Micro iterations      ....    16
   Max. Number of Macro iterations      .... Maxiter - #DIIS iter
   Number of Davidson start vectors     ....     2
   Converg. threshold I  (grad. norm)   ....   1.000e-05
   Converg. threshold II (energy diff.) ....   1.000e-08
   Grad. Scal. Fac. for Micro threshold ....   0.100
   Minimum threshold for Micro iter.    ....   0.010
   NR start threshold (gradient norm)   ....   0.001
   Initial trust radius                 ....   0.400
   Minimum AH scaling param. (alpha)    ....   1.000
   Maximum AH scaling param. (alpha)    .... 1000.000
   Orbital update algorithm             .... Taylor
   White noise on init. David. guess    .... on
   Maximum white noise                  ....   0.010
   Quad. conv. algorithm                .... NR
 SOSCF                  CNVSOSCF        .... on
   Start iteration      SOSCFMaxIt      ....   150
   Startup grad/error   SOSCFStart      ....  0.001000
 Level Shifting         CNVShift        .... on
   Level shift para.    LevelShift      ....    0.2500
   Turn off err/grad.   ShiftErr        ....    0.0000
 Zerner damping         CNVZerner       .... off
 Static damping         CNVDamp         .... on
   Fraction old density DampFac         ....    0.8500
   Max. Damping (<1)    DampMax         ....    0.9800
   Min. Damping (>=0)   DampMin         ....    0.0000
   Turn off err/grad.   DampErr         ....    0.0300
 Fernandez-Rico         CNVRico         .... off

SCF Procedure:
 Maximum # iterations   MaxIter         ....   125
 SCF integral mode      SCFMode         .... Direct
   Integral package                     .... SHARK and LIBINT hybrid scheme
 Reset frequency        DirectResetFreq ....    20
 Integral Threshold     Thresh          ....  2.500e-11 Eh
 Primitive CutOff       TCut            ....  2.500e-12 Eh

Convergence Tolerance:
 Convergence Check Mode ConvCheckMode   .... Total+1el-Energy
 Convergence forced     ConvForced      .... 0
 Energy Change          TolE            ....  1.000e-08 Eh
 1-El. energy change                    ....  1.000e-05 Eh
 Orbital Gradient       TolG            ....  1.000e-05
 Orbital Rotation angle TolX            ....  1.000e-05
 DIIS Error             TolErr          ....  5.000e-07


Diagonalization of the overlap matrix:
Smallest eigenvalue                        ... 2.245e-03
Time for diagonalization                   ...    0.003 sec
Threshold for overlap eigenvalues          ... 1.000e-08
Number of eigenvalues below threshold      ... 0
Time for construction of square roots      ...    0.002 sec
Total time needed                          ...    0.006 sec

Time for model grid setup =    0.067 sec

------------------------------
INITIAL GUESS: MODEL POTENTIAL
------------------------------
Loading Hartree-Fock densities                     ... done
Calculating cut-offs                               ... done
Initializing the effective Hamiltonian             ... done
Setting up the integral package (SHARK)            ... done
Starting the Coulomb interaction                   ... done (   0.1 sec)
Reading the grid                                   ... done
Mapping shells                                     ... done
Starting the XC term evaluation                    ... done (   0.0 sec)
  promolecular density results
     # of electrons  =     41.994055579
     EX              =    -30.243835434
     EC              =     -1.357314733
     EX+EC           =    -31.601150167
Transforming the Hamiltonian                       ... done (   0.0 sec)
Diagonalizing the Hamiltonian                      ... done (   0.0 sec)
Back transforming the eigenvectors                 ... done (   0.0 sec)
Now organizing SCF variables                       ... done
                      ------------------
                      INITIAL GUESS DONE (   0.2 sec)
                      ------------------
-------------------
DFT GRID GENERATION
-------------------

General Integration Accuracy     IntAcc      ... 4.388
Radial Grid Type                 RadialGrid  ... OptM3 with GC (2021)
Angular Grid (max. ang.)         AngularGrid ... 4 (Lebedev-302)
Angular grid pruning method      GridPruning ... 4 (adaptive)
Weight generation scheme         WeightScheme... Becke
Basis function cutoff            BFCut       ... 1.0000e-11
Integration weight cutoff        WCut        ... 1.0000e-14
Angular grids for H and He will be reduced by one unit
Partially contracted basis set               ... off
Rotationally invariant grid construction     ... off

Total number of grid points                  ...    65444
Total number of batches                      ...     1028
Average number of points per batch           ...       63
Average number of grid points per atom       ...     4090
Time for grid setup =    0.333 sec

--------------------
COSX GRID GENERATION
--------------------

GRIDX 1
-------
General Integration Accuracy     IntAcc      ... 3.816
Radial Grid Type                 RadialGrid  ... OptM3 with GC (2021)
Angular Grid (max. ang.)         AngularGrid ... 1 (Lebedev-50)
Angular grid pruning method      GridPruning ... 4 (adaptive)
Weight generation scheme         WeightScheme... Becke
Basis function cutoff            BFCut       ... 1.0000e-11
Integration weight cutoff        WCut        ... 1.0000e-14
Angular grids for H and He will be reduced by one unit
Partially contracted basis set               ... on
Rotationally invariant grid construction     ... off

Total number of grid points                  ...     8418
Total number of batches                      ...      141
Average number of points per batch           ...       59
Average number of grid points per atom       ...      526
UseSFitting                                  ... on

GRIDX 2
-------
General Integration Accuracy     IntAcc      ... 4.020
Radial Grid Type                 RadialGrid  ... OptM3 with GC (2021)
Angular Grid (max. ang.)         AngularGrid ... 2 (Lebedev-110)
Angular grid pruning method      GridPruning ... 4 (adaptive)
Weight generation scheme         WeightScheme... Becke
Basis function cutoff            BFCut       ... 1.0000e-11
Integration weight cutoff        WCut        ... 1.0000e-14
Angular grids for H and He will be reduced by one unit
Partially contracted basis set               ... on
Rotationally invariant grid construction     ... off

Total number of grid points                  ...    17368
Total number of batches                      ...      279
Average number of points per batch           ...       62
Average number of grid points per atom       ...     1086
UseSFitting                                  ... on

GRIDX 3
-------
General Integration Accuracy     IntAcc      ... 4.338
Radial Grid Type                 RadialGrid  ... OptM3 with GC (2021)
Angular Grid (max. ang.)         AngularGrid ... 3 (Lebedev-194)
Angular grid pruning method      GridPruning ... 4 (adaptive)
Weight generation scheme         WeightScheme... Becke
Basis function cutoff            BFCut       ... 1.0000e-11
Integration weight cutoff        WCut        ... 1.0000e-14
Angular grids for H and He will be reduced by one unit
Partially contracted basis set               ... on
Rotationally invariant grid construction     ... off

Total number of grid points                  ...    37912
Total number of batches                      ...      600
Average number of points per batch           ...       63
Average number of grid points per atom       ...     2370
UseSFitting                                  ... on

Time for X-Grid setup             =    0.946 sec

--------------
SCF ITERATIONS
--------------
ITER       Energy         Delta-E        Max-DP      RMS-DP      [F,P]     Damp
               ***  Starting incremental Fock matrix formation  ***
  0   -213.3776032997   0.000000000000 0.03894388  0.00116817  0.2329843 0.8500
  1   -213.4234187454  -0.045815445706 0.03344797  0.00111023  0.1799406 0.8500
                               ***Turning on DIIS***
  2   -213.4569143846  -0.033495639224 0.02485480  0.00088604  0.1314886 0.8500
  3   -213.4809482961  -0.024033911499 0.01444921  0.00056966  0.0947579 0.8500
  4   -213.4991157462  -0.018167450084 0.00961991  0.00040412  0.0743860 0.8500
  5   -213.5132422413  -0.014126495110 0.00717170  0.00031838  0.0615974 0.8500
  6   -213.5246669136  -0.011424672303 0.00570507  0.00026389  0.0519970 0.8500
  7   -213.5341010931  -0.009434179503 0.00477709  0.00022721  0.0441499 0.8500
  8   -213.5419878711  -0.007886777969 0.00406269  0.00019579  0.0372446 0.8500
  9   -213.5485931032  -0.006605232105 0.00344390  0.00016739  0.0313214 0.8500
 10   -213.5541305210  -0.005537417849 0.01933104  0.00094949  0.0263586 0.0000
 11   -213.5842465309  -0.030116009853 0.00112903  0.00003946  0.0013860 0.0000
                      *** Initiating the SOSCF procedure ***
                           *** Shutting down DIIS ***
                      *** Re-Reading the Fockian *** 
                      *** Removing any level shift *** 
ITER      Energy       Delta-E        Grad      Rot      Max-DP    RMS-DP
 12   -213.58425596  -0.0000094298  0.000081  0.000081  0.000289  0.000013
               *** Restarting incremental Fock matrix formation ***
 13   -213.58433500  -0.0000790360  0.000040  0.000069  0.000227  0.000011
 14   -213.58433511  -0.0000001089  0.000014  0.000037  0.000091  0.000005
 15   -213.58433512  -0.0000000126  0.000010  0.000006  0.000031  0.000001
                 **** Energy Check signals convergence ****
              ***Rediagonalizing the Fockian in SOSCF/NRSCF***

               *****************************************************
               *                     SUCCESS                       *
               *           SCF CONVERGED AFTER  16 CYCLES          *
               *****************************************************

Old exchange energy                            =    -10.443019388 Eh
New exchange energy                            =    -10.443036732 Eh
Exchange energy change after final integration =     -0.000017344 Eh
Total energy after final integration           =   -213.584352465 Eh
Final COS-X integration done in                =     3.166 sec

----------------
TOTAL SCF ENERGY
----------------

Total Energy       :         -213.58435246 Eh           -5811.92570 eV

Components:
Nuclear Repulsion  :          192.29372382 Eh            5232.57824 eV
Electronic Energy  :         -405.87807628 Eh          -11044.50395 eV
One Electron Energy:         -667.33628209 Eh          -18159.14343 eV
Two Electron Energy:          261.45820580 Eh            7114.63948 eV
Max COSX asymmetry :            0.00000195 Eh               0.00005 eV

Virial components:
Potential Energy   :         -424.60631984 Eh          -11554.12536 eV
Kinetic Energy     :          211.02196737 Eh            5742.19966 eV
Virial Ratio       :            2.01214274


DFT components:
N(Alpha)           :       20.999986616671 electrons
N(Beta)            :       20.999986616671 electrons
N(Total)           :       41.999973233342 electrons
E(XC)              :      -22.249001820416 Eh       
DFET-embed. en.    :        0.000000000000 Eh       

---------------
SCF CONVERGENCE
---------------

  Last Energy change         ...   -2.1788e-09  Tolerance :   1.0000e-08
  Last MAX-Density change    ...    2.2204e-15  Tolerance :   1.0000e-07
  Last RMS-Density change    ...    4.1660e-17  Tolerance :   5.0000e-09
  Last Orbital Gradient      ...    1.1423e-06  Tolerance :   1.0000e-05
  Last Orbital Rotation      ...    1.3062e-06  Tolerance :   1.0000e-05

             **** THE GBW FILE WAS UPDATED (butylamine_deprot_aq_19.gbw) ****
             **** DENSITY butylamine_deprot_aq_19.scfp WAS UPDATED ****
             **** ENERGY FILE WAS UPDATED (butylamine_deprot_aq_19.en.tmp) ****
             **** THE GBW FILE WAS UPDATED (butylamine_deprot_aq_19.gbw) ****
             **** DENSITY butylamine_deprot_aq_19.scfp WAS UPDATED ****
----------------
ORBITAL ENERGIES
----------------

  NO   OCC          E(Eh)            E(eV) 
   0   2.0000     -14.376354      -391.2005 
   1   2.0000     -10.283640      -279.8321 
   2   2.0000     -10.260230      -279.1950 
   3   2.0000     -10.254484      -279.0387 
   4   2.0000     -10.252267      -278.9784 
   5   2.0000      -0.998835       -27.1797 
   6   2.0000      -0.905408       -24.6374 
   7   2.0000      -0.826919       -22.5016 
   8   2.0000      -0.736977       -20.0542 
   9   2.0000      -0.681119       -18.5342 
  10   2.0000      -0.610340       -16.6082 
  11   2.0000      -0.576432       -15.6855 
  12   2.0000      -0.543108       -14.7787 
  13   2.0000      -0.535721       -14.5777 
  14   2.0000      -0.502480       -13.6732 
  15   2.0000      -0.482156       -13.1201 
  16   2.0000      -0.470629       -12.8065 
  17   2.0000      -0.433097       -11.7852 
  18   2.0000      -0.423634       -11.5277 
  19   2.0000      -0.413812       -11.2604 
  20   2.0000      -0.333854        -9.0846 
  21   0.0000       0.140247         3.8163 
  22   0.0000       0.175949         4.7878 
  23   0.0000       0.176526         4.8035 
  24   0.0000       0.191737         5.2174 
  25   0.0000       0.213432         5.8078 
  26   0.0000       0.225450         6.1348 
  27   0.0000       0.239133         6.5071 
  28   0.0000       0.243373         6.6225 
  29   0.0000       0.248968         6.7748 
  30   0.0000       0.262987         7.1562 
  31   0.0000       0.283419         7.7122 
  32   0.0000       0.314802         8.5662 
  33   0.0000       0.347537         9.4570 
  34   0.0000       0.366494         9.9728 
  35   0.0000       0.372988        10.1495 
  36   0.0000       0.520023        14.1506 
  37   0.0000       0.538528        14.6541 
  38   0.0000       0.540229        14.7004 
  39   0.0000       0.567431        15.4406 
  40   0.0000       0.575128        15.6500 
  41   0.0000       0.602590        16.3973 
  42   0.0000       0.667669        18.1682 
  43   0.0000       0.701520        19.0893 
  44   0.0000       0.721964        19.6456 
  45   0.0000       0.740121        20.1397 
  46   0.0000       0.757276        20.6065 
  47   0.0000       0.762859        20.7585 
  48   0.0000       0.772273        21.0146 
  49   0.0000       0.780305        21.2332 
  50   0.0000       0.795563        21.6484 
  51   0.0000       0.797886        21.7116 
  52   0.0000       0.805473        21.9180 
  53   0.0000       0.810128        22.0447 
  54   0.0000       0.819849        22.3092 
  55   0.0000       0.828615        22.5477 
  56   0.0000       0.833899        22.6915 
  57   0.0000       0.855123        23.2691 
  58   0.0000       0.863504        23.4971 
  59   0.0000       0.901381        24.5278 
  60   0.0000       0.948488        25.8097 
  61   0.0000       0.997479        27.1428 
  62   0.0000       1.024240        27.8710 
  63   0.0000       1.064281        28.9606 
  64   0.0000       1.181279        32.1442 
  65   0.0000       1.193751        32.4836 
  66   0.0000       1.218529        33.1579 
  67   0.0000       1.323259        36.0077 
  68   0.0000       1.331533        36.2328 
  69   0.0000       1.420185        38.6452 
  70   0.0000       1.438997        39.1571 
  71   0.0000       1.468373        39.9565 
  72   0.0000       1.496779        40.7294 
  73   0.0000       1.616157        43.9779 
  74   0.0000       1.663917        45.2775 
  75   0.0000       1.673736        45.5447 
  76   0.0000       1.680372        45.7252 
  77   0.0000       1.795522        48.8586 
  78   0.0000       1.834608        49.9222 
  79   0.0000       1.838411        50.0257 
  80   0.0000       1.853704        50.4419 
  81   0.0000       1.885263        51.3006 
  82   0.0000       1.905350        51.8472 
  83   0.0000       1.918068        52.1933 
  84   0.0000       1.931199        52.5506 
  85   0.0000       1.932156        52.5766 
  86   0.0000       1.948473        53.0207 
  87   0.0000       1.973856        53.7114 
  88   0.0000       1.998177        54.3731 
  89   0.0000       2.004237        54.5381 
  90   0.0000       2.014310        54.8122 
  91   0.0000       2.035329        55.3841 
  92   0.0000       2.052726        55.8575 
  93   0.0000       2.071963        56.3810 
  94   0.0000       2.089248        56.8513 
  95   0.0000       2.148490        58.4634 
  96   0.0000       2.233405        60.7740 
  97   0.0000       2.247023        61.1446 
  98   0.0000       2.270063        61.7716 
  99   0.0000       2.283653        62.1414 
 100   0.0000       2.363440        64.3125 
 101   0.0000       2.412315        65.6424 
 102   0.0000       2.441792        66.4445 
 103   0.0000       2.463768        67.0425 
 104   0.0000       2.538771        69.0835 
 105   0.0000       2.556626        69.5693 
 106   0.0000       2.594786        70.6077 
 107   0.0000       2.637173        71.7611 
 108   0.0000       2.710694        73.7617 
 109   0.0000       2.745620        74.7121 
 110   0.0000       2.767363        75.3038 
 111   0.0000       2.811185        76.4962 
 112   0.0000       2.873990        78.2052 
 113   0.0000       2.908706        79.1499 
 114   0.0000       2.964968        80.6809 
 115   0.0000       3.018722        82.1436 
 116   0.0000       3.031686        82.4964 
 117   0.0000       3.090185        84.0882 
 118   0.0000       3.098416        84.3122 
 119   0.0000       3.124776        85.0295 
 120   0.0000       3.146507        85.6208 
 121   0.0000       3.182829        86.6092 
 122   0.0000       3.235474        88.0417 
 123   0.0000       3.353737        91.2598 
 124   0.0000       3.531278        96.0910 

                    ********************************
                    * MULLIKEN POPULATION ANALYSIS *
                    ********************************

-----------------------
MULLIKEN ATOMIC CHARGES
-----------------------
   0 C :   -0.024366
   1 C :   -0.076827
   2 H :    0.024855
   3 H :    0.016505
   4 H :    0.022103
   5 C :   -0.022974
   6 H :    0.018456
   7 H :    0.007019
   8 C :    0.059267
   9 H :    0.015762
  10 H :    0.012692
  11 N :   -0.251889
  12 H :    0.013794
  13 H :   -0.004209
  14 H :    0.098600
  15 H :    0.091213
Sum of atomic charges:   -0.0000000

--------------------------------
MULLIKEN REDUCED ORBITAL CHARGES
--------------------------------
  0 C s       :     2.988915  s :     2.988915
      pz      :     1.019152  p :     3.006856
      px      :     1.008032
      py      :     0.979672
      dz2     :     0.003951  d :     0.028595
      dxz     :     0.007652
      dyz     :     0.005147
      dx2y2   :     0.004473
      dxy     :     0.007371
  1 C s       :     3.046357  s :     3.046357
      pz      :     0.991105  p :     2.994262
      px      :     0.990565
      py      :     1.012591
      dz2     :     0.006012  d :     0.036209
      dxz     :     0.007772
      dyz     :     0.007350
      dx2y2   :     0.006052
      dxy     :     0.009023
  2 H s       :     0.951096  s :     0.951096
      pz      :     0.011950  p :     0.024049
      px      :     0.006495
      py      :     0.005604
  3 H s       :     0.958879  s :     0.958879
      pz      :     0.005844  p :     0.024616
      px      :     0.010222
      py      :     0.008550
  4 H s       :     0.954068  s :     0.954068
      pz      :     0.009697  p :     0.023829
      px      :     0.009924
      py      :     0.004209
  5 C s       :     3.019173  s :     3.019173
      pz      :     1.003748  p :     2.969228
      px      :     0.965604
      py      :     0.999877
      dz2     :     0.003418  d :     0.034573
      dxz     :     0.008761
      dyz     :     0.009300
      dx2y2   :     0.009862
      dxy     :     0.003232
  6 H s       :     0.958732  s :     0.958732
      pz      :     0.005828  p :     0.022812
      px      :     0.009439
      py      :     0.007545
  7 H s       :     0.970163  s :     0.970163
      pz      :     0.011938  p :     0.022818
      px      :     0.004984
      py      :     0.005896
  8 C s       :     2.995539  s :     2.995539
      pz      :     0.979645  p :     2.892708
      px      :     1.028857
      py      :     0.884206
      dz2     :     0.006307  d :     0.052485
      dxz     :     0.010859
      dyz     :     0.014530
      dx2y2   :     0.014783
      dxy     :     0.006007
  9 H s       :     0.961438  s :     0.961438
      pz      :     0.007420  p :     0.022800
      px      :     0.003585
      py      :     0.011794
 10 H s       :     0.964459  s :     0.964459
      pz      :     0.007753  p :     0.022849
      px      :     0.003804
      py      :     0.011291
 11 N s       :     3.420271  s :     3.420271
      pz      :     1.282649  p :     3.811740
      px      :     1.068665
      py      :     1.460425
      dz2     :     0.003375  d :     0.019878
      dxz     :     0.006286
      dyz     :     0.002776
      dx2y2   :     0.005780
      dxy     :     0.001661
 12 H s       :     0.964781  s :     0.964781
      pz      :     0.009298  p :     0.021424
      px      :     0.008912
      py      :     0.003214
 13 H s       :     0.983267  s :     0.983267
      pz      :     0.007060  p :     0.020942
      px      :     0.003813
      py      :     0.010069
 14 H s       :     0.855762  s :     0.855762
      pz      :     0.011839  p :     0.045639
      px      :     0.022431
      py      :     0.011368
 15 H s       :     0.862608  s :     0.862608
      pz      :     0.017958  p :     0.046180
      px      :     0.016556
      py      :     0.011666


                     *******************************
                     * LOEWDIN POPULATION ANALYSIS *
                     *******************************

----------------------
LOEWDIN ATOMIC CHARGES
----------------------
   0 C :   -0.059914
   1 C :   -0.046632
   2 H :    0.023229
   3 H :    0.018641
   4 H :    0.021688
   5 C :   -0.044213
   6 H :    0.022606
   7 H :    0.014706
   8 C :    0.015859
   9 H :    0.022594
  10 H :    0.022513
  11 N :   -0.125657
  12 H :    0.017627
  13 H :   -0.003346
  14 H :    0.053976
  15 H :    0.046323

-------------------------------
LOEWDIN REDUCED ORBITAL CHARGES
-------------------------------
  0 C s       :     2.826659  s :     2.826659
      pz      :     1.066395  p :     3.159718
      px      :     1.058817
      py      :     1.034506
      dz2     :     0.010627  d :     0.073536
      dxz     :     0.020258
      dyz     :     0.011974
      dx2y2   :     0.011272
      dxy     :     0.019405
  1 C s       :     2.830779  s :     2.830779
      pz      :     1.047053  p :     3.127168
      px      :     1.038674
      py      :     1.041442
      dz2     :     0.015311  d :     0.088685
      dxz     :     0.020691
      dyz     :     0.016335
      dx2y2   :     0.014662
      dxy     :     0.021686
  2 H s       :     0.910455  s :     0.910455
      pz      :     0.032001  p :     0.066316
      px      :     0.017181
      py      :     0.017134
  3 H s       :     0.913496  s :     0.913496
      pz      :     0.015559  p :     0.067864
      px      :     0.027309
      py      :     0.024996
  4 H s       :     0.912040  s :     0.912040
      pz      :     0.025863  p :     0.066272
      px      :     0.026970
      py      :     0.013439
  5 C s       :     2.835601  s :     2.835601
      pz      :     1.043446  p :     3.121780
      px      :     1.017719
      py      :     1.060616
      dz2     :     0.006289  d :     0.086832
      dxz     :     0.023407
      dyz     :     0.024745
      dx2y2   :     0.026191
      dxy     :     0.006199
  6 H s       :     0.911130  s :     0.911130
      pz      :     0.016615  p :     0.066264
      px      :     0.027263
      py      :     0.022386
  7 H s       :     0.919049  s :     0.919049
      pz      :     0.033034  p :     0.066245
      px      :     0.014941
      py      :     0.018270
  8 C s       :     2.832999  s :     2.832999
      pz      :     1.022789  p :     3.030438
      px      :     1.046816
      py      :     0.960833
      dz2     :     0.012719  d :     0.120703
      dxz     :     0.026475
      dyz     :     0.033491
      dx2y2   :     0.037759
      dxy     :     0.010260
  9 H s       :     0.909699  s :     0.909699
      pz      :     0.022638  p :     0.067707
      px      :     0.013433
      py      :     0.031636
 10 H s       :     0.910747  s :     0.910747
      pz      :     0.022592  p :     0.066740
      px      :     0.013788
      py      :     0.030360
 11 N s       :     3.123844  s :     3.123844
      pz      :     1.334356  p :     3.957768
      px      :     1.148868
      py      :     1.474545
      dz2     :     0.006329  d :     0.044045
      dxz     :     0.015110
      dyz     :     0.005706
      dx2y2   :     0.013718
      dxy     :     0.003183
 12 H s       :     0.918648  s :     0.918648
      pz      :     0.026827  p :     0.063725
      px      :     0.026615
      py      :     0.010283
 13 H s       :     0.939159  s :     0.939159
      pz      :     0.020618  p :     0.064186
      px      :     0.012749
      py      :     0.030819
 14 H s       :     0.824051  s :     0.824051
      pz      :     0.031779  p :     0.121973
      px      :     0.056376
      py      :     0.033819
 15 H s       :     0.830353  s :     0.830353
      pz      :     0.052854  p :     0.123324
      px      :     0.035986
      py      :     0.034484


                      *****************************
                      * MAYER POPULATION ANALYSIS *
                      *****************************

  NA   - Mulliken gross atomic population
  ZA   - Total nuclear charge
  QA   - Mulliken gross atomic charge
  VA   - Mayer's total valence
  BVA  - Mayer's bonded valence
  FA   - Mayer's free valence

  ATOM       NA         ZA         QA         VA         BVA        FA
  0 C      6.0244     6.0000    -0.0244     4.0101     4.0101    -0.0000
  1 C      6.0768     6.0000    -0.0768     4.0728     4.0728    -0.0000
  2 H      0.9751     1.0000     0.0249     0.9892     0.9892    -0.0000
  3 H      0.9835     1.0000     0.0165     1.0123     1.0123    -0.0000
  4 H      0.9779     1.0000     0.0221     0.9858     0.9858    -0.0000
  5 C      6.0230     6.0000    -0.0230     4.0310     4.0310    -0.0000
  6 H      0.9815     1.0000     0.0185     0.9769     0.9769    -0.0000
  7 H      0.9930     1.0000     0.0070     0.9850     0.9850     0.0000
  8 C      5.9407     6.0000     0.0593     4.1032     4.1032     0.0000
  9 H      0.9842     1.0000     0.0158     0.9997     0.9997    -0.0000
 10 H      0.9873     1.0000     0.0127     0.9791     0.9791    -0.0000
 11 N      7.2519     7.0000    -0.2519     3.0441     3.0441    -0.0000
 12 H      0.9862     1.0000     0.0138     0.9797     0.9797     0.0000
 13 H      1.0042     1.0000    -0.0042     0.9703     0.9703    -0.0000
 14 H      0.9014     1.0000     0.0986     0.9974     0.9974     0.0000
 15 H      0.9088     1.0000     0.0912     0.9978     0.9978    -0.0000

  Mayer bond orders larger than 0.100000
B(  0-C ,  1-C ) :   1.0867 B(  0-C ,  2-H ) :   0.9740 B(  0-C ,  3-H ) :   0.9719 
B(  0-C ,  4-H ) :   0.9733 B(  1-C ,  5-C ) :   1.0441 B(  1-C ,  6-H ) :   0.9587 
B(  1-C ,  7-H ) :   0.9598 B(  5-C ,  8-C ) :   1.0816 B(  5-C ,  9-H ) :   0.9506 
B(  5-C , 10-H ) :   0.9527 B(  8-C , 11-N ) :   1.0692 B(  8-C , 12-H ) :   0.9555 
B(  8-C , 13-H ) :   0.9501 B( 11-N , 14-H ) :   0.9725 B( 11-N , 15-H ) :   0.9679 


-------
TIMINGS
-------

Total SCF time: 0 days 0 hours 0 min 27 sec 

Total time                  ....      27.066 sec
Sum of individual times     ....      26.108 sec  ( 96.5%)

Fock matrix formation       ....      24.396 sec  ( 90.1%)
  Split-RI-J                ....       1.150 sec  (  4.7% of F)
  Chain of spheres X        ....      18.559 sec  ( 76.1% of F)
  XC integration            ....       4.180 sec  ( 17.1% of F)
    Basis function eval.    ....       1.311 sec  ( 31.4% of XC)
    Density eval.           ....       0.661 sec  ( 15.8% of XC)
    XC-Functional eval.     ....       0.596 sec  ( 14.3% of XC)
    XC-Potential eval.      ....       0.784 sec  ( 18.8% of XC)
Diagonalization             ....       0.057 sec  (  0.2%)
Density matrix formation    ....       0.003 sec  (  0.0%)
Population analysis         ....       0.008 sec  (  0.0%)
Initial guess               ....       0.134 sec  (  0.5%)
Orbital Transformation      ....       0.000 sec  (  0.0%)
Orbital Orthonormalization  ....       0.000 sec  (  0.0%)
DIIS solution               ....       0.127 sec  (  0.5%)
SOSCF solution              ....       0.036 sec  (  0.1%)
Grid generation             ....       1.347 sec  (  5.0%)

Maximum memory used throughout the entire SCF-calculation: 49.8 MB


-------------------------------------------------------------------------------
                          DFT DISPERSION CORRECTION                            
                                                                               
                                 DFTD4 V2.5                                    
-------------------------------------------------------------------------------
The WB97X functional is recognized
Active option DFTDOPT                   ...         5   

Starting D4
-------------------------   ----------------
Dispersion correction           -0.001446188
-------------------------   ----------------


-------------------------   --------------------
FINAL SINGLE POINT ENERGY      -213.585798652253
-------------------------   --------------------



           ************************************************************
           *        Program running with 4 parallel MPI-processes     *
           *              working on a common directory               *
           ************************************************************
------------------------------------------------------------------------------
                         ORCA SCF GRADIENT CALCULATION
------------------------------------------------------------------------------

 ... reading COSX grid (gridx3)
Gradient of the Kohn-Sham DFT energy:
Kohn-Sham wavefunction type      ... RKS
Hartree-Fock exchange scaling    ...    0.158
Number of operators              ...    1
Number of atoms                  ...   16
Basis set dimensions             ...  125
Integral neglect threshold       ... 2.5e-11
Integral primitive cutoff        ... 2.5e-12
SHARK Integral package           ... ON

Nuc. rep. gradient       (SHARK) ... done (  0.0 sec)
HCore & Overlap gradient (SHARK) ... done (  0.0 sec)
RI-J gradient            (SHARK) ... done (  0.5 sec)
COSX-gradient                    ... done (  3.5 sec)
Exchange-correlation gradient    ... done
Dispersion correction            ... Starting D4
Starting D4
Starting D4
Starting D4


------------------- 
Dispersion Gradient 
------------------- 
   1  :   -0.000024185    0.000015607    0.000005464
   2  :   -0.000014150   -0.000010995    0.000003101
   3  :   -0.000006585    0.000000787    0.000002193
   4  :   -0.000005988   -0.000001744   -0.000000986
   5  :   -0.000007577    0.000002145    0.000000956
   6  :   -0.000000346   -0.000007887   -0.000014742
   7  :   -0.000003781    0.000001493   -0.000000045
   8  :   -0.000003119    0.000003180   -0.000004684
   9  :    0.000016656   -0.000017473   -0.000005527
  10  :    0.000001310   -0.000003086    0.000004663
  11  :    0.000000656   -0.000001177   -0.000000639
  12  :    0.000022277    0.000013415    0.000005053
  13  :    0.000004013    0.000001775    0.000001430
  14  :    0.000004556    0.000003354   -0.000001835
  15  :    0.000012851    0.000000980    0.000004593
  16  :    0.000003412   -0.000000378    0.000001004

  |G| =    0.000052995

done

------------------
CARTESIAN GRADIENT
------------------

   1   C   :   -0.002066873    0.011449072   -0.001139970
   2   C   :   -0.002507337   -0.010131587    0.007332410
   3   H   :    0.003505709   -0.004972432    0.007110001
   4   H   :   -0.006450366   -0.007436899   -0.002498641
   5   H   :    0.006933405   -0.001637836   -0.005886866
   6   C   :   -0.005430989    0.005677186   -0.012188195
   7   H   :    0.004704659    0.005210331    0.000430504
   8   H   :   -0.001233433    0.005300148   -0.006539880
   9   C   :    0.006019064   -0.008591048    0.000375683
  10   H   :   -0.000081426   -0.005846930    0.006701466
  11   H   :    0.000550549    0.005188066    0.005437645
  12   N   :    0.002674675    0.001191107    0.005314204
  13   H   :   -0.003888752    0.002414663    0.003649237
  14   H   :   -0.000607150    0.004650960   -0.000314115
  15   H   :   -0.001973121   -0.001235492   -0.003089780
  16   H   :    0.000019404   -0.000987264   -0.004679348

Difference to translation invariance:
           :    0.0001680162    0.0002420446    0.0000143533

Difference to rotation invariance:
           :    0.0002738827    0.0009265911   -0.0001789682

Norm of the cartesian gradient     ...    0.0358427346
RMS gradient                       ...    0.0051734531
MAX gradient                       ...    0.0121881951

-------
TIMINGS
-------

Total SCF gradient time            ...        5.386 sec

One electron gradient       ....       0.039 sec  (  0.7%)
RI-J Coulomb gradient       ....       0.459 sec  (  8.5%)
COSX gradient               ....       3.479 sec  ( 64.6%)
XC gradient                 ....       1.073 sec  ( 19.9%)

Maximum memory used throughout the entire SCFGRAD-calculation: 38.4 MB
------------------------------------------------------------------------------
                         ORCA GEOMETRY RELAXATION STEP
------------------------------------------------------------------------------

Reading the OPT-File                    .... done
Getting information on internals        .... done
Copying old internal coords+grads       .... done
Making the new internal coordinates     .... (new redundants).... done
Validating the new internal coordinates .... (new redundants).... done
Calculating the B-matrix                .... done
Calculating the G,G- and P matrices     .... done
Transforming gradient to internals      .... done
Projecting the internal gradient        .... done
Number of atoms                         ....  16
Number of internal coordinates          ....  75
Current Energy                          ....  -213.585798652 Eh
Current gradient norm                   ....     0.035842735 Eh/bohr
Maximum allowed component of the step   ....  0.300
Current trust radius                    ....  0.300
Evaluating the initial hessian          ....  (Almloef) done
Projecting the Hessian                  .... done
Forming the augmented Hessian           .... done
Diagonalizing the augmented Hessian     .... done
Last element of RFO vector              ....  0.986110988
Lowest eigenvalues of augmented Hessian:
 -0.002340903  0.010827881  0.011288622  0.011486442  0.016355588
Length of the computed step             ....  0.168426967
The final length of the internal step   ....  0.168426967
Converting the step to cartesian space:
 Initial RMS(Int)=    0.0194482710
Transforming coordinates:
 Iter   0:  RMS(Cart)=    0.0338441014 RMS(Int)=    0.0194017096
 Iter   1:  RMS(Cart)=    0.0005043881 RMS(Int)=    0.0002989930
 Iter   2:  RMS(Cart)=    0.0000171382 RMS(Int)=    0.0000082696
 Iter   3:  RMS(Cart)=    0.0000004899 RMS(Int)=    0.0000003238
 Iter   4:  RMS(Cart)=    0.0000000163 RMS(Int)=    0.0000000092
done
Storing new coordinates                 .... done

                                .--------------------.
          ----------------------|Geometry convergence|-------------------------
          Item                value                   Tolerance       Converged
          ---------------------------------------------------------------------
          RMS gradient        0.0030107730            0.0001000000      NO
          MAX gradient        0.0100872515            0.0003000000      NO
          RMS step            0.0194482710            0.0020000000      NO
          MAX step            0.0471972970            0.0040000000      NO
          ........................................................
          Max(Bonds)      0.0145      Max(Angles)    0.77
          Max(Dihed)        2.70      Max(Improp)    0.00
          ---------------------------------------------------------------------

The optimization has not yet converged - more geometry cycles are needed


    ---------------------------------------------------------------------------
                         Redundant Internal Coordinates
                            (Angstroem and degrees)

        Definition                    Value    dE/dq     Step     New-Value
    ----------------------------------------------------------------------------
     1. B(C   1,C   0)                1.5257 -0.003556  0.0049    1.5306   
     2. B(H   2,C   0)                1.0877 -0.009186  0.0133    1.1010   
     3. B(H   3,C   0)                1.0862 -0.010087  0.0145    1.1007   
     4. B(H   4,C   0)                1.0882 -0.008985  0.0130    1.1012   
     5. B(C   5,C   1)                1.5351 -0.002937  0.0042    1.5394   
     6. B(H   6,C   1)                1.0923 -0.006579  0.0097    1.1020   
     7. B(H   7,C   1)                1.0930 -0.008190  0.0121    1.1051   
     8. B(C   8,C   5)                1.5305  0.002514 -0.0035    1.5270   
     9. B(H   9,C   5)                1.0901 -0.008659  0.0126    1.1028   
    10. B(H  10,C   5)                1.0917 -0.007387  0.0109    1.1026   
    11. B(N  11,C   8)                1.4568 -0.002002  0.0024    1.4593   
    12. B(H  12,C   8)                1.0945 -0.005496  0.0082    1.1027   
    13. B(H  13,C   8)                1.1052 -0.003978  0.0061    1.1113   
    14. B(H  14,N  11)                1.0136 -0.002957  0.0036    1.0172   
    15. B(H  15,N  11)                1.0143 -0.003731  0.0046    1.0189   
    16. A(H   3,C   0,H   4)          108.76  0.001470   -0.17    108.58   
    17. A(C   1,C   0,H   4)          110.46 -0.002747    0.58    111.04   
    18. A(C   1,C   0,H   2)          110.10 -0.001422    0.22    110.32   
    19. A(H   2,C   0,H   3)          108.02  0.001767   -0.51    107.51   
    20. A(H   2,C   0,H   4)          108.30  0.001808   -0.25    108.05   
    21. A(C   1,C   0,H   3)          111.11 -0.000679    0.10    111.21   
    22. A(C   0,C   1,C   5)          112.90 -0.001320    0.44    113.35   
    23. A(H   6,C   1,H   7)          106.99  0.001058   -0.77    106.23   
    24. A(C   5,C   1,H   7)          109.48  0.000491   -0.17    109.31   
    25. A(C   0,C   1,H   7)          109.73  0.000260   -0.10    109.64   
    26. A(C   5,C   1,H   6)          109.22 -0.000146    0.24    109.47   
    27. A(C   0,C   1,H   6)          108.33 -0.000226    0.28    108.61   
    28. A(C   8,C   5,H   9)          108.57  0.000765   -0.38    108.19   
    29. A(C   1,C   5,H   9)          109.45 -0.000520   -0.06    109.39   
    30. A(C   1,C   5,C   8)          114.06  0.000310    0.08    114.14   
    31. A(H   9,C   5,H  10)          107.96  0.000951   -0.50    107.46   
    32. A(C   8,C   5,H  10)          107.09 -0.000930    0.45    107.54   
    33. A(C   1,C   5,H  10)          109.52 -0.000519    0.39    109.91   
    34. A(H  12,C   8,H  13)          107.49  0.001099   -0.55    106.94   
    35. A(N  11,C   8,H  13)          112.78 -0.000956    0.23    113.01   
    36. A(C   5,C   8,H  13)          108.70  0.000608   -0.27    108.43   
    37. A(N  11,C   8,H  12)          107.21 -0.001382    0.52    107.72   
    38. A(C   5,C   8,H  12)          108.53  0.000147   -0.00    108.53   
    39. A(C   5,C   8,N  11)          111.94  0.000521    0.05    111.99   
    40. A(H  14,N  11,H  15)          107.31  0.002904   -0.70    106.61   
    41. A(C   8,N  11,H  15)          109.56 -0.002510    0.36    109.92   
    42. A(C   8,N  11,H  14)          109.75 -0.002493    0.36    110.11   
    43. D(H   6,C   1,C   0,H   4)     63.12  0.000866   -0.67     62.46   
    44. D(C   5,C   1,C   0,H   3)    -54.99 -0.000764    0.36    -54.63   
    45. D(H   7,C   1,C   0,H   3)     67.44 -0.000857    0.37     67.81   
    46. D(H   6,C   1,C   0,H   2)    -56.44  0.001266   -0.86    -57.31   
    47. D(C   5,C   1,C   0,H   4)   -175.79 -0.000320    0.12   -175.66   
    48. D(H   6,C   1,C   0,H   3)   -176.08  0.000423   -0.43   -176.51   
    49. D(H   7,C   1,C   0,H   4)    -53.36 -0.000414    0.14    -53.22   
    50. D(C   5,C   1,C   0,H   2)     64.65  0.000079   -0.07     64.58   
    51. D(H   7,C   1,C   0,H   2)   -172.93 -0.000014   -0.06   -172.98   
    52. D(H   9,C   5,C   1,H   6)     95.73 -0.000594   -1.18     94.54   
    53. D(C   8,C   5,C   1,H   7)    -25.58  0.001695   -2.55    -28.13   
    54. D(C   8,C   5,C   1,H   6)   -142.43  0.000225   -1.67   -144.10   
    55. D(C   8,C   5,C   1,C   0)     96.99  0.001476   -2.50     94.49   
    56. D(H   9,C   5,C   1,H   7)   -147.42  0.000875   -2.06   -149.48   
    57. D(H  10,C   5,C   1,H   7)     94.40  0.000335   -1.65     92.75   
    58. D(H  10,C   5,C   1,H   6)    -22.45 -0.001135   -0.77    -23.22   
    59. D(H  10,C   5,C   1,C   0)   -143.03  0.000116   -1.59   -144.62   
    60. D(H   9,C   5,C   1,C   0)    -24.86  0.000657   -2.00    -26.86   
    61. D(H  13,C   8,C   5,H   9)   -179.45 -0.001484    2.39   -177.06   
    62. D(H  13,C   8,C   5,C   1)     58.21 -0.001592    2.70     60.92   
    63. D(H  12,C   8,C   5,H  10)     53.51  0.001247    1.05     54.55   
    64. D(H  12,C   8,C   5,H   9)    -62.83  0.000233    1.59    -61.24   
    65. D(H  12,C   8,C   5,C   1)    174.84  0.000125    1.91    176.74   
    66. D(N  11,C   8,C   5,H  10)    171.63 -0.000052    1.71    173.35   
    67. D(N  11,C   8,C   5,H   9)     55.30 -0.001065    2.26     57.56   
    68. D(H  13,C   8,C   5,H  10)    -63.12 -0.000471    1.84    -61.27   
    69. D(N  11,C   8,C   5,C   1)    -67.03 -0.001173    2.57    -64.46   
    70. D(H  15,N  11,C   8,C   5)     67.96 -0.000222    0.74     68.69   
    71. D(H  14,N  11,C   8,H  13)     62.58 -0.000125    0.45     63.03   
    72. D(H  14,N  11,C   8,H  12)    -55.54 -0.000037    0.66    -54.88   
    73. D(H  14,N  11,C   8,C   5)   -174.46  0.000355    0.31   -174.15   
    74. D(H  15,N  11,C   8,H  13)    -55.01 -0.000702    0.88    -54.13   
    75. D(H  15,N  11,C   8,H  12)   -173.13 -0.000614    1.09   -172.04   
    ----------------------------------------------------------------------------

         *************************************************************
         *                GEOMETRY OPTIMIZATION CYCLE   2            *
         *************************************************************
---------------------------------
CARTESIAN COORDINATES (ANGSTROEM)
---------------------------------
  C     -1.778721    0.826725    0.365582
  C     -1.210964   -0.567682    0.090001
  H     -2.211286    1.251940   -0.553308
  H     -0.992784    1.515481    0.711259
  H     -2.571281    0.787090    1.129107
  C     -0.025936   -0.560557   -0.892488
  H     -2.017175   -1.202501   -0.311745
  H     -0.894898   -1.034471    1.040452
  C      1.343585   -0.517714   -0.218550
  H     -0.108743    0.313524   -1.559717
  H     -0.056985   -1.463424   -1.524582
  N      1.549324    0.722377    0.522580
  H      2.120280   -0.575039   -0.999196
  H      1.452551   -1.425013    0.413888
  H      2.501570    0.763475    0.877935
  H      0.934152    0.747807    1.334363

----------------------------
CARTESIAN COORDINATES (A.U.)
----------------------------
  NO LB      ZA    FRAG     MASS         X           Y           Z
   0 C     6.0000    0    12.011   -3.361295    1.562284    0.690849
   1 C     6.0000    0    12.011   -2.288389   -1.072764    0.170078
   2 H     1.0000    0     1.008   -4.178725    2.365824   -1.045601
   3 H     1.0000    0     1.008   -1.876089    2.863845    1.344084
   4 H     1.0000    0     1.008   -4.859016    1.487384    2.133703
   5 C     6.0000    0    12.011   -0.049013   -1.059300   -1.686558
   6 H     1.0000    0     1.008   -3.811909   -2.272398   -0.589112
   7 H     1.0000    0     1.008   -1.691113   -1.954867    1.966169
   8 C     6.0000    0    12.011    2.539007   -0.978337   -0.413000
   9 H     1.0000    0     1.008   -0.205495    0.592474   -2.947438
  10 H     1.0000    0     1.008   -0.107685   -2.765471   -2.881043
  11 N     7.0000    0    14.007    2.927799    1.365095    0.987533
  12 H     1.0000    0     1.008    4.006748   -1.086665   -1.888206
  13 H     1.0000    0     1.008    2.744923   -2.692884    0.782135
  14 H     1.0000    0     1.008    4.727283    1.442758    1.659058
  15 H     1.0000    0     1.008    1.765292    1.413151    2.521582

--------------------------------
INTERNAL COORDINATES (ANGSTROEM)
--------------------------------
 C      0   0   0     0.000000000000     0.00000000     0.00000000
 C      1   0   0     1.530576759594     0.00000000     0.00000000
 H      1   2   0     1.101035404947   110.32264195     0.00000000
 H      1   2   3     1.100715599967   111.20757219   240.79346500
 H      1   2   3     1.101223637765   111.03984287   119.76305554
 C      2   1   3     1.539358842039   113.34448162    64.57616887
 H      2   1   3     1.101985703950   108.60706182   302.69167620
 H      2   1   3     1.105054411453   109.63753387   187.01896163
 C      6   2   1     1.526962974925   114.13442438    94.49357595
 H      6   2   1     1.102755195841   109.39246381   333.13834746
 H      6   2   1     1.102576743083   109.90311537   215.37748117
 N      9   6   2     1.459255884579   111.99060498   295.53712984
 H      9   6   2     1.102700756961   108.53105885   176.74553984
 H      9   6   2     1.111325266576   108.43353865    60.91886269
 H     12   9   6     1.017221081532   110.10496647   185.85215080
 H     12   9   6     1.018859993323   109.92209054    68.69294469

---------------------------
INTERNAL COORDINATES (A.U.)
---------------------------
 C      0   0   0     0.000000000000     0.00000000     0.00000000
 C      1   0   0     2.892370902578     0.00000000     0.00000000
 H      1   2   0     2.080655379101   110.32264195     0.00000000
 H      1   2   3     2.080051035272   111.20757219   240.79346500
 H      1   2   3     2.081011087576   111.03984287   119.76305554
 C      2   1   3     2.908966633284   113.34448162    64.57616887
 H      2   1   3     2.082451183963   108.60706182   302.69167620
 H      2   1   3     2.088250200727   109.63753387   187.01896163
 C      6   2   1     2.885541839247   114.13442438    94.49357595
 H      6   2   1     2.083905312898   109.39246381   333.13834746
 H      6   2   1     2.083568086057   109.90311537   215.37748117
 N      9   6   2     2.757593981167   111.99060498   295.53712984
 H      9   6   2     2.083802438325   108.53105885   176.74553984
 H      9   6   2     2.100100399535   108.43353865    60.91886269
 H     12   9   6     1.922269261747   110.10496647   185.85215080
 H     12   9   6     1.925366356189   109.92209054    68.69294469



           ************************************************************
           *        Program running with 4 parallel MPI-processes     *
           *              working on a common directory               *
           ************************************************************
------------------------------------------------------------------------------
                   ___                                                        
                  /   \      - P O W E R E D   B Y -                         
                 /     \                                                     
                 |  |  |   _    _      __       _____    __    __             
                 |  |  |  | |  | |    /  \     |  _  \  |  |  /  |          
                  \  \/   | |  | |   /    \    | | | |  |  | /  /          
                 / \  \   | |__| |  /  /\  \   | |_| |  |  |/  /          
                |  |  |   |  __  | /  /__\  \  |    /   |      \           
                |  |  |   | |  | | |   __   |  |    \   |  |\   \          
                \     /   | |  | | |  |  |  |  | |\  \  |  | \   \       
                 \___/    |_|  |_| |__|  |__|  |_| \__\ |__|  \__/        
[...]
     37       0.137008   0.160559   0.113890   0.000535   0.595623  -0.183695
     38       0.375645   0.093529  -0.060529  -0.034653  -0.189649   0.069821
     39       0.514082  -0.001056  -0.131771  -0.072784  -0.375685   0.121739
     40       0.216352   0.044489   0.016699  -0.028599   0.223092  -0.057002
     41       0.173038   0.065539   0.068384  -0.026401   0.486391  -0.138921
     42      -0.009359  -0.005912  -0.003634  -0.010335  -0.010392  -0.004872
     43       0.223237   0.075879  -0.012238  -0.004633   0.047821  -0.011900
     44       0.107133   0.032934   0.009568   0.021848   0.050831   0.002486
     45      -0.075660  -0.016735   0.014702   0.019913   0.027241   0.002525
     46      -0.154485  -0.065165   0.022912   0.009385   0.021786   0.028054
     47      -0.080323  -0.027775   0.010548   0.009967   0.015325   0.004295
                 36         37         38         39         40         41    
      0       0.000205  -0.000186   0.004414  -0.005138  -0.028625  -0.003134
      1       0.003068   0.000171  -0.001725   0.009298   0.043354  -0.001875
      2      -0.000471   0.000179  -0.004747   0.000885   0.003107  -0.005745
      3       0.001141   0.000130  -0.010528  -0.006525   0.003903   0.036937
      4       0.000064  -0.001048  -0.054193  -0.001386  -0.006487   0.012941
      5       0.000495   0.000809   0.046731  -0.010397   0.008973   0.035057
      6      -0.022196   0.001075  -0.009948   0.046066   0.228255   0.012524
      7      -0.018335  -0.001650   0.013226  -0.051655  -0.259544  -0.015395
      8       0.000156   0.001677  -0.026759   0.109005   0.525470   0.031623
      9       0.022336   0.000485   0.034283  -0.078759  -0.330777   0.046460
     10      -0.032238  -0.001057   0.024862  -0.060192  -0.253454   0.036286
     11       0.014299  -0.000848   0.013001  -0.035432  -0.150252   0.020182
     12      -0.007861   0.001697  -0.076869   0.090270   0.431062  -0.020631
     13      -0.000360  -0.000073  -0.007700   0.005699   0.018929  -0.000155
     14      -0.009657  -0.002094   0.071069  -0.085879  -0.407748   0.016888
     15      -0.007237   0.001791   0.001135   0.006407  -0.000859  -0.000375
     16       0.003371  -0.004720   0.007494   0.003588   0.000250  -0.012796
     17       0.000619  -0.000716   0.003235   0.067667  -0.013409  -0.001338
     18       0.003529   0.003024   0.336544   0.068676  -0.010589  -0.381614
     19       0.010015   0.002314   0.229047   0.050147  -0.006108  -0.271703
     20      -0.013592   0.003482   0.191290   0.040362  -0.003397  -0.204226
     21       0.012416  -0.007153  -0.220218   0.020485  -0.031331  -0.058527
     22       0.008823   0.007503   0.405513  -0.042338   0.061983   0.120959
     23       0.004282  -0.010020  -0.745312   0.074906  -0.107813  -0.212307
     24       0.010548  -0.024307   0.001223   0.005494  -0.001310   0.045066
     25      -0.022988   0.064189  -0.000013   0.001607  -0.000657   0.008765
     26       0.011733  -0.034595  -0.000432  -0.009718   0.002557  -0.053970
     27      -0.007960  -0.002467   0.001963  -0.065637   0.011835  -0.004564
     28      -0.003681   0.022203  -0.005648   0.526499  -0.106709   0.051831
     29      -0.006559  -0.022318   0.007707  -0.463801   0.095445  -0.046514
     30       0.034884  -0.005365  -0.003325  -0.008472  -0.000224   0.003671
     31       0.001215   0.038884  -0.085221  -0.562659   0.103648   0.101214
     32       0.000473   0.022293  -0.047706  -0.324300   0.060974   0.061174
     33       0.020026   0.000133  -0.000192   0.000014   0.000308  -0.001174
     34       0.048409   0.001237  -0.000037   0.000082  -0.000069   0.000334
     35       0.059684   0.001166  -0.000005  -0.000015   0.000060   0.001145
     36       0.000629   0.131634  -0.011402  -0.084302   0.019714  -0.552719
     37       0.063335   0.010133   0.000664   0.001487  -0.000347   0.000543
     38      -0.000627  -0.150727   0.009871   0.092342  -0.022238   0.564496
     39      -0.031000   0.141016  -0.004198   0.007557  -0.002389   0.026003
     40      -0.044540  -0.794532   0.004836  -0.024270   0.009420  -0.112031
     41       0.003542   0.547082  -0.004238   0.015729  -0.006060   0.072812
     42       0.215711  -0.006608   0.000403   0.000373  -0.000284   0.004263
     43      -0.178846   0.001503  -0.000105  -0.000157  -0.000157  -0.002742
     44      -0.637200   0.004448  -0.000413   0.001159  -0.000498  -0.000266
     45      -0.554264   0.009767   0.000183   0.000711   0.000872   0.006135
     46      -0.281638  -0.000579  -0.001804   0.000122  -0.001145   0.002711
     47      -0.331947  -0.000181  -0.002099  -0.001044   0.000662  -0.010018
                 42         43         44         45         46         47    
      0       0.004443   0.002208  -0.012038  -0.083618  -0.000028  -0.000108
      1       0.003215   0.002032  -0.020720  -0.035504   0.000050  -0.000177
      2       0.009163  -0.002216   0.089652  -0.017624  -0.000063  -0.000003
      3      -0.051747  -0.007264   0.005442  -0.006843   0.000004  -0.000088
      4      -0.018006  -0.006922  -0.001481  -0.002845   0.000043  -0.000109
      5      -0.047259  -0.001699   0.008897  -0.005369  -0.000078   0.000052
      6      -0.017577   0.005458  -0.270334   0.074456   0.000092   0.000282
      7       0.021626  -0.005361   0.302088  -0.103877   0.000011   0.000063
      8      -0.045205   0.014781  -0.594841   0.193791   0.000388  -0.000006
      9      -0.073838  -0.016054  -0.082217   0.644260  -0.000124   0.001406
     10      -0.057026  -0.011527  -0.067890   0.513611   0.000010   0.001914
     11      -0.031861  -0.006630  -0.022629   0.295832  -0.001050   0.001474
     12       0.037441  -0.019020   0.494518   0.288370  -0.001227   0.001108
     13       0.000110  -0.000649   0.016190   0.009327  -0.000227   0.000198
     14      -0.031257   0.016982  -0.450697  -0.278700   0.000542  -0.000419
     15      -0.001438   0.004499   0.000382   0.000344  -0.000266  -0.000238
     16       0.001946  -0.092385  -0.002927  -0.001421   0.000221   0.000051
     17      -0.014812   0.006199   0.001089  -0.000095   0.000077  -0.000097
     18       0.528190   0.092840  -0.043511   0.068760   0.000035   0.000131
     19       0.374137   0.066366  -0.031368   0.052215   0.000001   0.000278
     20       0.281313   0.049604  -0.024421   0.038597   0.000063  -0.000004
     21       0.077074  -0.005993  -0.022712   0.008342   0.000338  -0.000344
     22      -0.164883   0.010314   0.045224  -0.015406  -0.000823   0.000665
     23       0.288976  -0.024382  -0.077093   0.026153   0.001011  -0.001064
     24       0.032317  -0.003733  -0.000373   0.000264   0.000019   0.001242
     25       0.006732  -0.005764  -0.000204  -0.000144  -0.003388  -0.000327
     26      -0.038322   0.008397   0.000617  -0.000063   0.000858  -0.001009
     27       0.014200  -0.062949  -0.000783  -0.000780  -0.000245   0.000050
     28      -0.116276   0.487477   0.022987   0.005608   0.000430  -0.000421
     29       0.103884  -0.448488  -0.022878  -0.005886  -0.000333   0.000126
     30       0.002421   0.010565  -0.000257  -0.000102   0.001263   0.000528
     31       0.097522   0.617283   0.011688   0.010135  -0.000283  -0.000122
     32       0.059015   0.370969   0.006007   0.006027   0.000211   0.000134
     33      -0.000711   0.000168   0.000044  -0.000910   0.014674   0.075898
     34       0.000188   0.000343   0.000001   0.000014   0.006662   0.009815
     35       0.000849  -0.000086   0.000085  -0.000028   0.056196  -0.025126
     36      -0.392722   0.058574   0.004873  -0.001649   0.004087  -0.009598
     37      -0.001171   0.001462   0.000219   0.000119   0.001355   0.000189
     38       0.399339  -0.059736  -0.005105   0.002033  -0.005161   0.008543
     39       0.021679  -0.013279  -0.001646  -0.000151  -0.000357  -0.000453
     40      -0.085388   0.057444   0.003277   0.001108   0.003602  -0.002041
     41       0.056122  -0.039974  -0.002513  -0.000996  -0.007290   0.001319
     42       0.003019  -0.000183  -0.000270   0.000543  -0.620865  -0.732349
     43      -0.002006   0.001157  -0.000162   0.001419  -0.092668  -0.094475
     44       0.000235  -0.000814  -0.000359   0.000982  -0.139553  -0.197877
     45       0.005689  -0.001170   0.000204   0.001245   0.416311  -0.325050
     46       0.003566  -0.000944  -0.000427   0.001156   0.032653  -0.035952
     47      -0.005283   0.001612  -0.001260  -0.001565  -0.639167   0.549509


-----------
IR SPECTRUM
-----------

 Mode   freq       eps      Int      T**2         TX        TY        TZ
       cm**-1   L/(mol*cm) km/mol    a.u.
----------------------------------------------------------------------------
  6:     98.06   0.000156    0.79  0.000496  ( 0.005087 -0.016021 -0.014600)
  7:    162.43   0.001619    8.18  0.003110  ( 0.053326  0.009973 -0.012926)
  8:    211.84   0.000206    1.04  0.000304  (-0.013003 -0.001139  0.011567)
  9:    257.50   0.007777   39.30  0.009425  (-0.093042 -0.014865  0.023398)
 10:    329.76   0.004575   23.12  0.004329  ( 0.059460  0.027431 -0.006433)
 11:    363.47   0.000261    1.32  0.000224  (-0.010994 -0.010178  0.000099)
 12:    483.93   0.000921    4.66  0.000594  ( 0.013110  0.020547  0.000179)
 13:    765.37   0.000545    2.76  0.000222  ( 0.011575  0.004070  0.008473)
 14:    832.84   0.002587   13.08  0.000969  (-0.011832  0.028796 -0.000524)
 15:    852.24   0.005160   26.08  0.001889  (-0.010225 -0.042245 -0.000550)
 16:    854.89   0.016255   82.15  0.005934  ( 0.017108 -0.074231  0.011430)
 17:    953.75   0.000243    1.23  0.000080  (-0.008673  0.001527  0.001445)
 18:    989.00   0.002859   14.45  0.000902  (-0.007588  0.029055  0.000532)
 19:   1069.96   0.000614    3.10  0.000179  (-0.001835  0.009499  0.009248)
 20:   1091.14   0.000286    1.44  0.000082  (-0.002982  0.000490 -0.008518)
 21:   1143.74   0.001755    8.87  0.000479  ( 0.001058 -0.018438  0.011737)
 22:   1163.29   0.002052   10.37  0.000551  (-0.005278 -0.020780 -0.009531)
 23:   1216.73   0.000328    1.66  0.000084  ( 0.004983  0.007067  0.003048)
 24:   1255.29   0.000532    2.69  0.000132  ( 0.009242 -0.004697  0.004989)
 25:   1301.45   0.000255    1.29  0.000061  (-0.005799 -0.000688 -0.005203)
 26:   1352.85   0.000811    4.10  0.000187  (-0.000028 -0.008072 -0.011039)
 27:   1360.68   0.000336    1.70  0.000077  (-0.007731 -0.002945 -0.002920)
 28:   1400.54   0.000179    0.90  0.000040  (-0.006111  0.001373  0.000771)
 29:   1413.06   0.001452    7.34  0.000321  ( 0.009515 -0.014801 -0.003313)
 30:   1441.39   0.002168   10.96  0.000469  (-0.009760 -0.014981 -0.012238)
 31:   1459.52   0.001292    6.53  0.000276  (-0.004280 -0.002420 -0.015874)
 32:   1470.07   0.001023    5.17  0.000217  (-0.005885 -0.002102 -0.013348)
 33:   1475.51   0.000458    2.31  0.000097  ( 0.004217  0.006999 -0.005487)
 34:   1486.88   0.000739    3.74  0.000155  (-0.011632 -0.004446 -0.000331)
 35:   1495.28   0.000732    3.70  0.000153  (-0.007916 -0.007221  0.006165)
 36:   1646.65   0.006736   34.04  0.001277  (-0.015588 -0.005562 -0.031666)
 37:   2980.97   0.015476   78.21  0.001620  (-0.013850  0.036438 -0.010026)
 38:   3049.22   0.006725   33.98  0.000688  (-0.002862 -0.020982  0.015485)
 39:   3063.64   0.004178   21.11  0.000426  (-0.002500  0.008078  0.018816)
 40:   3066.94   0.004320   21.83  0.000440  (-0.015812  0.013596  0.002171)
 41:   3106.11   0.007404   37.42  0.000744  ( 0.025729  0.001923 -0.008844)
 42:   3109.98   0.006330   31.99  0.000635  (-0.005316 -0.003112 -0.024437)
 43:   3122.76   0.006621   33.46  0.000662  ( 0.000719 -0.025643  0.001895)
 44:   3155.12   0.005832   29.47  0.000577  (-0.004065 -0.005456  0.023033)
 45:   3183.99   0.002596   13.12  0.000254  (-0.014312 -0.005651 -0.004207)
 46:   3564.60   0.000107    0.54  0.000009  (-0.001597  0.001182 -0.002323)
 47:   3644.15   0.000472    2.39  0.000040  (-0.005965 -0.000960  0.001984)

* The epsilon (eps) is given for a Dirac delta lineshape.
** The dipole moment derivative (T) already includes vibrational overlap.

The first frequency considered to be a vibration is 6
The total number of vibrations considered is 42


--------------------------
THERMOCHEMISTRY AT 298.15K
--------------------------

Temperature         ... 298.15 K
Pressure            ... 1.00 atm
Total Mass          ... 73.14 AMU

Throughout the following assumptions are being made:
  (1) The electronic state is orbitally nondegenerate
  (2) There are no thermally accessible electronically excited states
  (3) Hindered rotations indicated by low frequency modes are not
      treated as such but are treated as vibrations and this may
      cause some error
  (4) All equations used are the standard statistical mechanics
      equations for an ideal gas
  (5) All vibrations are strictly harmonic

freq.      98.06  E(vib)   ...       0.46 
freq.     162.43  E(vib)   ...       0.39 
freq.     211.84  E(vib)   ...       0.34 
freq.     257.50  E(vib)   ...       0.30 
freq.     329.76  E(vib)   ...       0.24 
freq.     363.47  E(vib)   ...       0.22 
freq.     483.93  E(vib)   ...       0.15 
freq.     765.37  E(vib)   ...       0.06 
freq.     832.84  E(vib)   ...       0.04 
freq.     852.24  E(vib)   ...       0.04 
freq.     854.89  E(vib)   ...       0.04 
freq.     953.75  E(vib)   ...       0.03 
freq.     989.00  E(vib)   ...       0.02 
freq.    1069.96  E(vib)   ...       0.02 
freq.    1091.14  E(vib)   ...       0.02 
freq.    1143.74  E(vib)   ...       0.01 
freq.    1163.29  E(vib)   ...       0.01 
freq.    1216.73  E(vib)   ...       0.01 
freq.    1255.29  E(vib)   ...       0.01 
freq.    1301.45  E(vib)   ...       0.01 
freq.    1352.85  E(vib)   ...       0.01 
freq.    1360.68  E(vib)   ...       0.01 
freq.    1400.54  E(vib)   ...       0.00 
freq.    1413.06  E(vib)   ...       0.00 
freq.    1441.39  E(vib)   ...       0.00 
freq.    1459.52  E(vib)   ...       0.00 
freq.    1470.07  E(vib)   ...       0.00 
freq.    1475.51  E(vib)   ...       0.00 
freq.    1486.88  E(vib)   ...       0.00 
freq.    1495.28  E(vib)   ...       0.00 
freq.    1646.65  E(vib)   ...       0.00 
freq.    2980.97  E(vib)   ...       0.00 
freq.    3049.22  E(vib)   ...       0.00 
freq.    3063.64  E(vib)   ...       0.00 
freq.    3066.94  E(vib)   ...       0.00 
freq.    3106.11  E(vib)   ...       0.00 
freq.    3109.98  E(vib)   ...       0.00 
freq.    3122.76  E(vib)   ...       0.00 
freq.    3155.12  E(vib)   ...       0.00 
freq.    3183.99  E(vib)   ...       0.00 
freq.    3564.60  E(vib)   ...       0.00 
freq.    3644.15  E(vib)   ...       0.00 

------------
INNER ENERGY
------------

The inner energy is: U= E(el) + E(ZPE) + E(vib) + E(rot) + E(trans)
    E(el)   - is the total energy from the electronic structure calculation
              = E(kin-el) + E(nuc-el) + E(el-el) + E(nuc-nuc)
    E(ZPE)  - the the zero temperature vibrational energy from the frequency calculation
    E(vib)  - the the finite temperature correction to E(ZPE) due to population
              of excited vibrational states
    E(rot)  - is the rotational thermal energy
    E(trans)- is the translational thermal energy

Summary of contributions to the inner energy U:
Electronic energy                ...   -213.58771351 Eh
Zero point energy                ...      0.15137645 Eh      94.99 kcal/mol
Thermal vibrational correction   ...      0.00391827 Eh       2.46 kcal/mol
Thermal rotational correction    ...      0.00141627 Eh       0.89 kcal/mol
Thermal translational correction ...      0.00141627 Eh       0.89 kcal/mol
-----------------------------------------------------------------------
Total thermal energy                   -213.42958625 Eh


Summary of corrections to the electronic energy:
(perhaps to be used in another calculation)
Total thermal correction                  0.00675081 Eh       4.24 kcal/mol
Non-thermal (ZPE) correction              0.15137645 Eh      94.99 kcal/mol
-----------------------------------------------------------------------
Total correction                          0.15812727 Eh      99.23 kcal/mol


--------
ENTHALPY
--------

The enthalpy is H = U + kB*T
                kB is Boltzmann's constant
Total free energy                 ...   -213.42958625 Eh 
Thermal Enthalpy correction       ...      0.00094421 Eh       0.59 kcal/mol
-----------------------------------------------------------------------
Total Enthalpy                    ...   -213.42864204 Eh


Note: Only C1 symmetry has been detected, increase convergence thresholds 
      if your molecule has a higher symmetry. Symmetry factor of 1.0 is   
      used for the rotational entropy correction. 
 

Note: Rotational entropy computed according to Herzberg 
Infrared and Raman Spectra, Chapter V,1, Van Nostrand Reinhold, 1945 
Point Group:  C1, Symmetry Number:   1  
Rotational constants in cm-1:     0.247562     0.111546     0.086627 

Vibrational entropy computed according to the QRRHO of S. Grimme
Chem.Eur.J. 2012 18 9955


-------
ENTROPY
-------

The entropy contributions are T*S = T*(S(el)+S(vib)+S(rot)+S(trans))
     S(el)   - electronic entropy
     S(vib)  - vibrational entropy
     S(rot)  - rotational entropy
     S(trans)- translational entropy
The entropies will be listed as multiplied by the temperature to get
units of energy

Electronic entropy                ...      0.00000000 Eh      0.00 kcal/mol
Vibrational entropy               ...      0.00661863 Eh      4.15 kcal/mol
Rotational entropy                ...      0.01236014 Eh      7.76 kcal/mol
Translational entropy             ...      0.01842822 Eh     11.56 kcal/mol
-----------------------------------------------------------------------
Final entropy term                ...      0.03740699 Eh     23.47 kcal/mol

In case the symmetry of your molecule has not been determined correctly
or in case you have a reason to use a different symmetry number we print 
out the resulting rotational entropy values for sn=1,12 :
 --------------------------------------------------------
|  sn= 1 | S(rot)=       0.01236014 Eh      7.76 kcal/mol|
|  sn= 2 | S(rot)=       0.01170568 Eh      7.35 kcal/mol|
|  sn= 3 | S(rot)=       0.01132285 Eh      7.11 kcal/mol|
|  sn= 4 | S(rot)=       0.01105123 Eh      6.93 kcal/mol|
|  sn= 5 | S(rot)=       0.01084054 Eh      6.80 kcal/mol|
|  sn= 6 | S(rot)=       0.01066839 Eh      6.69 kcal/mol|
|  sn= 7 | S(rot)=       0.01052285 Eh      6.60 kcal/mol|
|  sn= 8 | S(rot)=       0.01039677 Eh      6.52 kcal/mol|
|  sn= 9 | S(rot)=       0.01028556 Eh      6.45 kcal/mol|
|  sn=10 | S(rot)=       0.01018608 Eh      6.39 kcal/mol|
|  sn=11 | S(rot)=       0.01009609 Eh      6.34 kcal/mol|
|  sn=12 | S(rot)=       0.01001394 Eh      6.28 kcal/mol|
 --------------------------------------------------------


-------------------
GIBBS FREE ENERGY
-------------------

The Gibbs free energy is G = H - T*S

Total enthalpy                    ...   -213.42864204 Eh 
Total entropy correction          ...     -0.03740699 Eh    -23.47 kcal/mol
-----------------------------------------------------------------------
Final Gibbs free energy         ...   -213.46604903 Eh

For completeness - the Gibbs free energy minus the electronic energy
G-E(el)                           ...      0.12166449 Eh     76.35 kcal/mol


Timings for individual modules:

Sum of individual times         ...      270.970 sec (=   4.516 min)
GTO integral calculation        ...        6.423 sec (=   0.107 min)   2.4 %
SCF iterations                  ...      164.106 sec (=   2.735 min)  60.6 %
SCF Gradient evaluation         ...       44.099 sec (=   0.735 min)  16.3 %
Geometry relaxation             ...        0.581 sec (=   0.010 min)   0.2 %
Analytical frequency calculation...       55.762 sec (=   0.929 min)  20.6 %
                             ****ORCA TERMINATED NORMALLY****
TOTAL RUN TIME: 0 days 0 hours 4 minutes 34 seconds 984 msec
