
                                 *****************
                                 * O   R   C   A *
                                 *****************

                                            #,                                       
                                            ###                                      
                                            ####                                     
                                            #####                                    
                                            ######                                   
                                           ########,                                 
                                     ,,################,,,,,                         
                               ,,#################################,,                 
                          ,,##########################################,,             
                       ,#########################################, ''#####,          
                    ,#############################################,,   '####,        
                  ,##################################################,,,,####,       
                ,###########''''           ''''###############################       
              ,#####''   ,,,,##########,,,,          '''####'''          '####       
            ,##' ,,,,###########################,,,                        '##       
           ' ,,###''''                  '''############,,,                           
         ,,##''                                '''############,,,,        ,,,,,,###''
      ,#''                                            '''#######################'''  
     '                                                          ''''####''''         
             ,#######,   #######,   ,#######,      ##                                
            ,#'     '#,  ##    ##  ,#'     '#,    #''#        ######   ,####,        
            ##       ##  ##   ,#'  ##            #'  '#       #        #'  '#        
            ##       ##  #######   ##           ,######,      #####,   #    #        
            '#,     ,#'  ##    ##  '#,     ,#' ,#      #,         ##   #,  ,#        
             '#######'   ##     ##  '#######'  #'      '#     #####' # '####'        



                  #######################################################
                  #                        -***-                        #
                  #          Department of theory and spectroscopy      #
                  #    Directorship and core code : Frank Neese         #
                  #        Max Planck Institute fuer Kohlenforschung    #
                  #                Kaiser Wilhelm Platz 1               #
                  #                 D-45470 Muelheim/Ruhr               #
                  #                      Germany                        #
                  #                                                     #
                  #                  All rights reserved                #
                  #                        -***-                        #
                  #######################################################


                         Program Version 5.0.4 -  RELEASE  -


 With contributions from (in alphabetic order):
   Daniel Aravena         : Magnetic Suceptibility
   Michael Atanasov       : Ab Initio Ligand Field Theory (pilot matlab implementation)
   Alexander A. Auer      : GIAO ZORA, VPT2 properties, NMR spectrum
   Ute Becker             : Parallelization
   Giovanni Bistoni       : ED, misc. LED, open-shell LED, HFLD
   Martin Brehm           : Molecular dynamics
   Dmytro Bykov           : SCF Hessian
   Vijay G. Chilkuri      : MRCI spin determinant printing, contributions to CSF-ICE
   Dipayan Datta          : RHF DLPNO-CCSD density
   Achintya Kumar Dutta   : EOM-CC, STEOM-CC
   Dmitry Ganyushin       : Spin-Orbit,Spin-Spin,Magnetic field MRCI
   Miquel Garcia          : C-PCM and meta-GGA Hessian, CC/C-PCM, Gaussian charge scheme
   Yang Guo               : DLPNO-NEVPT2, F12-NEVPT2, CIM, IAO-localization
   Andreas Hansen         : Spin unrestricted coupled pair/coupled cluster methods
   Benjamin Helmich-Paris : MC-RPA, TRAH-SCF, COSX integrals
   Lee Huntington         : MR-EOM, pCC
   Robert Izsak           : Overlap fitted RIJCOSX, COSX-SCS-MP3, EOM
   Marcus Kettner         : VPT2
   Christian Kollmar      : KDIIS, OOCD, Brueckner-CCSD(T), CCSD density, CASPT2, CASPT2-K
   Simone Kossmann        : Meta GGA functionals, TD-DFT gradient, OOMP2, MP2 Hessian
   Martin Krupicka        : Initial AUTO-CI
   Lucas Lang             : DCDCAS
   Marvin Lechner         : AUTO-CI (C++ implementation), FIC-MRCC
   Dagmar Lenk            : GEPOL surface, SMD
   Dimitrios Liakos       : Extrapolation schemes; Compound Job, initial MDCI parallelization
   Dimitrios Manganas     : Further ROCIS development; embedding schemes
   Dimitrios Pantazis     : SARC Basis sets
   Anastasios Papadopoulos: AUTO-CI, single reference methods and gradients
   Taras Petrenko         : DFT Hessian,TD-DFT gradient, ASA, ECA, R-Raman, ABS, FL, XAS/XES, NRVS
   Peter Pinski           : DLPNO-MP2, DLPNO-MP2 Gradient
   Christoph Reimann      : Effective Core Potentials
   Marius Retegan         : Local ZFS, SOC
   Christoph Riplinger    : Optimizer, TS searches, QM/MM, DLPNO-CCSD(T), (RO)-DLPNO pert. Triples
   Tobias Risthaus        : Range-separated hybrids, TD-DFT gradient, RPA, STAB
   Michael Roemelt        : Original ROCIS implementation
   Masaaki Saitow         : Open-shell DLPNO-CCSD energy and density
   Barbara Sandhoefer     : DKH picture change effects
   Avijit Sen             : IP-ROCIS
   Kantharuban Sivalingam : CASSCF convergence, NEVPT2, FIC-MRCI
   Bernardo de Souza      : ESD, SOC TD-DFT
   Georgi Stoychev        : AutoAux, RI-MP2 NMR, DLPNO-MP2 response
   Willem Van den Heuvel  : Paramagnetic NMR
   Boris Wezisla          : Elementary symmetry handling
   Frank Wennmohs         : Technical directorship


 We gratefully acknowledge several colleagues who have allowed us to
 interface, adapt or use parts of their codes:
   Stefan Grimme, W. Hujo, H. Kruse, P. Pracht,  : VdW corrections, initial TS optimization,
                  C. Bannwarth, S. Ehlert          DFT functionals, gCP, sTDA/sTD-DF
   Ed Valeev, F. Pavosevic, A. Kumar             : LibInt (2-el integral package), F12 methods
   Garnet Chan, S. Sharma, J. Yang, R. Olivares  : DMRG
   Ulf Ekstrom                                   : XCFun DFT Library
   Mihaly Kallay                                 : mrcc  (arbitrary order and MRCC methods)
   Jiri Pittner, Ondrej Demel                    : Mk-CCSD
   Frank Weinhold                                : gennbo (NPA and NBO analysis)
   Christopher J. Cramer and Donald G. Truhlar   : smd solvation model
   Lars Goerigk                                  : TD-DFT with DH, B97 family of functionals
   V. Asgeirsson, H. Jonsson                     : NEB implementation
   FAccTs GmbH                                   : IRC, NEB, NEB-TS, DLPNO-Multilevel, CI-OPT
                                                   MM, QMMM, 2- and 3-layer-ONIOM, Crystal-QMMM,
                                                   LR-CPCM, SF, NACMEs, symmetry and pop. for TD-DFT,
                                                   nearIR, NL-DFT gradient (VV10), updates on ESD,
                                                   ML-optimized integration grids
   S Lehtola, MJT Oliveira, MAL Marques          : LibXC Library
   Liviu Ungur et al                             : ANISO software


 Your calculation uses the libint2 library for the computation of 2-el integrals
 For citations please refer to: http://libint.valeyev.net

 Your ORCA version has been built with support for libXC version: 5.1.0
 For citations please refer to: https://tddft.org/programs/libxc/

 This ORCA versions uses:
   CBLAS   interface :  Fast vector & matrix operations
   LAPACKE interface :  Fast linear algebra routines
   SCALAPACK package :  Parallel linear algebra routines
   Shared memory     :  Shared parallel matrices
   BLAS/LAPACK       :  OpenBLAS 0.3.15  USE64BITINT DYNAMIC_ARCH NO_AFFINITY SkylakeX SINGLE_THREADED
        Core in use  :  SkylakeX
   Copyright (c) 2011-2014, The OpenBLAS Project




***************************************
The coordinates will be read from file: butylamine_deprot_aq_13.xyz
***************************************


Your calculation utilizes the atom-pairwise dispersion correction
based on tight binding partial charges (D4)
Cite in your paper:
E.Caldeweyher, C.Bannwarth, S.Grimme, J.Chem.Phys., (2017), 147, 034112.
E.Caldeweyher, S.Ehlert, A.Hansen, H.Neugebauer, S.Grimme, J.Chem.Phys., (2018), in progress.
   

XCFun DFT library Copyright 2009-2010 Ulf Ekstrom and contributors.
See http://admol.org/xcfun for more information.
This is free software; see the source code for copying conditions.
There is ABSOLUTELY NO WARRANTY; not even for MERCHANTABILITY or FITNESS FOR A PARTICULAR PURPOSE.
For details see the documentation.
Scientific users of this library should cite U. Ekstrom, L. Visscher, R. Bast, A. J. Thorvaldsen and K. Ruud;
J.Chem.Theor.Comp. 2010, DOI: 10.1021/ct100117s
XCFun Version 0.99 

================================================================================

----- Orbital basis set information -----
Your calculation utilizes the basis: def2-SVP
   F. Weigend and R. Ahlrichs, Phys. Chem. Chem. Phys. 7, 3297 (2005).

----- AuxJ basis set information -----
Your calculation utilizes the auxiliary basis: def2/J
   F. Weigend, Phys. Chem. Chem. Phys. 8, 1057 (2006).

================================================================================
                                        WARNINGS
                       Please study these warnings very carefully!
================================================================================


WARNING: Geometry Optimization
  ===> : Switching off AutoStart
         For restart on a previous wavefunction, please use MOREAD

INFO   : the flag for use of the SHARK integral package has been found!

================================================================================
                                       INPUT FILE
================================================================================
NAME = butylamine_deprot_aq_13.inp
|  1> # ORCA 5.0.4 - /users/bwb16179/postgrad/2024_06/pKa_Reviewer_Comments/CREST_Confs/butylamine/butylamine_deprot_aq_13.inp # write input file
|  2> # Basic Mode
|  3> #
|  4> ! Opt Freq wB97X Def2-SVP D4 SlowConv TightSCF Defgrid2 Def2/J RIJCOSX 
|  5> 
|  6> %PAL NPROCS 4 END
|  7> 
|  8> %maxcore 4500
|  9> 
| 10> %geom
| 11> Maxiter 150
| 12> END
| 13> 
| 14> * xyzfile 0 1 butylamine_deprot_aq_13.xyz
| 15> 
| 16>                          ****END OF INPUT****
================================================================================

                       *****************************
                       * Geometry Optimization Run *
                       *****************************

Geometry optimization settings:
Update method            Update   .... BFGS
Choice of coordinates    CoordSys .... Z-matrix Internals
Initial Hessian          InHess   .... Almoef's Model

Convergence Tolerances:
Energy Change            TolE     ....  5.0000e-06 Eh
Max. Gradient            TolMAXG  ....  3.0000e-04 Eh/bohr
RMS Gradient             TolRMSG  ....  1.0000e-04 Eh/bohr
Max. Displacement        TolMAXD  ....  4.0000e-03 bohr
RMS Displacement         TolRMSD  ....  2.0000e-03 bohr
Strict Convergence                ....  False
------------------------------------------------------------------------------
                        ORCA OPTIMIZATION COORDINATE SETUP
------------------------------------------------------------------------------

The optimization will be done in new redundant internal coordinates
Making redundant internal coordinates   ...  (new redundants) done
Evaluating the initial hessian          ...  (Almloef) done
Evaluating the coordinates              ...  done
Calculating the B-matrix                .... done
Calculating the G-matrix                .... done
Diagonalizing the G-matrix              .... done
Small eigenvalue found = 2.372e-02
The first mode is                       ....   33
The number of degrees of freedom        ....   42

    -----------------------------------------------------------------
                    Redundant Internal Coordinates


    -----------------------------------------------------------------
         Definition                    Initial Value    Approx d2E/dq
    -----------------------------------------------------------------
      1. B(C   1,C   0)                  1.5234         0.382789   
      2. B(H   2,C   0)                  1.0880         0.362800   
      3. B(H   3,C   0)                  1.0854         0.366188   
      4. B(H   4,C   0)                  1.0878         0.363074   
      5. B(C   5,C   1)                  1.5293         0.374569   
      6. B(H   6,C   1)                  1.0934         0.355682   
      7. B(H   7,C   1)                  1.0921         0.357320   
      8. B(C   8,C   5)                  1.5301         0.373408   
      9. B(H   9,C   5)                  1.0926         0.356730   
     10. B(H  10,C   5)                  1.0927         0.356610   
     11. B(N  11,C   8)                  1.4570         0.437486   
     12. B(H  12,C   8)                  1.1057         0.339971   
     13. B(H  13,C   8)                  1.0944         0.354366   
     14. B(H  14,N  11)                  1.0148         0.425205   
     15. B(H  15,N  11)                  1.0137         0.426909   
     16. A(H   3,C   0,H   4)          109.1952         0.291984   
     17. A(C   1,C   0,H   4)          110.3723         0.326061   
     18. A(C   1,C   0,H   2)          110.3638         0.326020   
     19. A(H   2,C   0,H   3)          108.5405         0.291950   
     20. A(H   2,C   0,H   4)          108.3637         0.291558   
     21. A(C   1,C   0,H   3)          109.9601         0.326520   
     22. A(C   0,C   1,C   5)          113.0689         0.365035   
     23. A(H   6,C   1,H   7)          107.5699         0.289923   
     24. A(C   5,C   1,H   7)          108.9526         0.324048   
     25. A(C   0,C   1,H   7)          109.4390         0.325205   
     26. A(C   5,C   1,H   6)          108.5075         0.323803   
     27. A(C   0,C   1,H   6)          109.1526         0.324960   
     28. A(C   8,C   5,H   9)          109.1072         0.323795   
     29. A(C   1,C   5,H   9)          109.3461         0.323960   
     30. A(C   1,C   5,C   8)          114.2208         0.363489   
     31. A(H   9,C   5,H  10)          107.7494         0.289967   
     32. A(C   8,C   5,H  10)          107.5433         0.323777   
     33. A(C   1,C   5,H  10)          108.6724         0.323942   
     34. A(H  12,C   8,H  13)          107.4635         0.287506   
     35. A(N  11,C   8,H  13)          107.4362         0.329998   
     36. A(C   5,C   8,H  13)          109.3381         0.323442   
     37. A(N  11,C   8,H  12)          112.2198         0.327747   
     38. A(C   5,C   8,H  12)          108.0632         0.321252   
     39. A(C   5,C   8,N  11)          112.1901         0.370967   
     40. A(H  14,N  11,H  15)          107.7156         0.301760   
     41. A(C   8,N  11,H  15)          109.8229         0.337445   
     42. A(C   8,N  11,H  14)          109.6215         0.337220   
     43. D(H   6,C   1,C   0,H   4)     61.3393         0.011670   
     44. D(C   5,C   1,C   0,H   3)    -57.2556         0.011670   
     45. D(H   7,C   1,C   0,H   3)     64.3899         0.011670   
     46. D(H   6,C   1,C   0,H   2)    -58.4167         0.011670   
     47. D(C   5,C   1,C   0,H   4)   -177.7867         0.011670   
     48. D(H   6,C   1,C   0,H   3)   -178.1296         0.011670   
     49. D(H   7,C   1,C   0,H   4)    -56.1413         0.011670   
     50. D(C   5,C   1,C   0,H   2)     62.4573         0.011670   
     51. D(H   7,C   1,C   0,H   2)   -175.8973         0.011670   
     52. D(H   9,C   5,C   1,H   6)     71.7090         0.011200   
     53. D(C   8,C   5,C   1,H   7)    -48.8773         0.011200   
     54. D(C   8,C   5,C   1,H   6)   -165.7192         0.011200   
     55. D(C   8,C   5,C   1,C   0)     73.0415         0.011200   
     56. D(H   9,C   5,C   1,H   7)   -171.4492         0.011200   
     57. D(H  10,C   5,C   1,H   7)     71.1830         0.011200   
     58. D(H  10,C   5,C   1,H   6)    -45.6589         0.011200   
     59. D(H  10,C   5,C   1,C   0)   -166.8982         0.011200   
     60. D(H   9,C   5,C   1,C   0)    -49.5303         0.011200   
     61. D(H  13,C   8,C   5,H   9)    169.9909         0.011134   
     62. D(H  13,C   8,C   5,C   1)     47.2890         0.011134   
     63. D(H  12,C   8,C   5,H  10)     43.2773         0.011134   
     64. D(H  12,C   8,C   5,H   9)    -73.3305         0.011134   
     65. D(H  12,C   8,C   5,C   1)    163.9676         0.011134   
     66. D(N  11,C   8,C   5,H  10)    167.5137         0.011134   
     67. D(N  11,C   8,C   5,H   9)     50.9059         0.011134   
     68. D(H  13,C   8,C   5,H  10)    -73.4013         0.011134   
     69. D(N  11,C   8,C   5,C   1)    -71.7960         0.011134   
     70. D(H  15,N  11,C   8,C   5)   -178.4324         0.016319   
     71. D(H  14,N  11,C   8,H  13)    179.5299         0.016319   
     72. D(H  14,N  11,C   8,H  12)     61.6200         0.016319   
     73. D(H  14,N  11,C   8,C   5)    -60.2740         0.016319   
     74. D(H  15,N  11,C   8,H  13)     61.3714         0.016319   
     75. D(H  15,N  11,C   8,H  12)    -56.5384         0.016319   
    -----------------------------------------------------------------

Number of atoms                         .... 16
Number of degrees of freedom            .... 75

         *************************************************************
         *                GEOMETRY OPTIMIZATION CYCLE   1            *
         *************************************************************
---------------------------------
CARTESIAN COORDINATES (ANGSTROEM)
---------------------------------
  C     -1.591911    0.846188    0.443328
  C     -1.301900   -0.569592   -0.038447
  H     -1.740575    1.511600   -0.404492
  H     -0.757139    1.216157    1.030227
  H     -2.492530    0.861637    1.053141
  C     -0.015551   -0.671573   -0.859175
  H     -2.135464   -0.916468   -0.655122
  H     -1.227695   -1.238224    0.821860
  C      1.267065   -0.551551   -0.033485
  H     -0.017041    0.100826   -1.631887
  H      0.004312   -1.642908   -1.359175
  N      1.489946    0.807355    0.442520
  H      2.107242   -0.921884   -0.649468
  H      1.194010   -1.199126    0.845693
  H      1.570778    1.436823   -0.349299
  H      2.359481    0.851462    0.961650

----------------------------
CARTESIAN COORDINATES (A.U.)
----------------------------
  NO LB      ZA    FRAG     MASS         X           Y           Z
   0 C     6.0000    0    12.011   -3.008276    1.599064    0.837769
   1 C     6.0000    0    12.011   -2.460235   -1.076374   -0.072655
   2 H     1.0000    0     1.008   -3.289209    2.856509   -0.764379
   3 H     1.0000    0     1.008   -1.430785    2.298203    1.946847
   4 H     1.0000    0     1.008   -4.710200    1.628259    1.990147
   5 C     6.0000    0    12.011   -0.029388   -1.269089   -1.623605
   6 H     1.0000    0     1.008   -4.035441   -1.731873   -1.238000
   7 H     1.0000    0     1.008   -2.320008   -2.339904    1.553091
   8 C     6.0000    0    12.011    2.394405   -1.042280   -0.063277
   9 H     1.0000    0     1.008   -0.032202    0.190534   -3.083819
  10 H     1.0000    0     1.008    0.008148   -3.104646   -2.568469
  11 N     7.0000    0    14.007    2.815590    1.525679    0.836242
  12 H     1.0000    0     1.008    3.982110   -1.742108   -1.227316
  13 H     1.0000    0     1.008    2.256351   -2.266020    1.598128
  14 H     1.0000    0     1.008    2.968341    2.715202   -0.660079
  15 H     1.0000    0     1.008    4.458774    1.609030    1.817255

--------------------------------
INTERNAL COORDINATES (ANGSTROEM)
--------------------------------
 C      0   0   0     0.000000000000     0.00000000     0.00000000
 C      1   0   0     1.523367558080     0.00000000     0.00000000
 H      1   2   0     1.087966826002   110.36376088     0.00000000
 H      1   2   3     1.085436382740   109.96010328   240.28712900
 H      1   2   3     1.087761248742   110.37233692   119.75600276
 C      2   1   3     1.529276826315   113.06886642    62.45726250
 H      2   1   3     1.093360467226   109.15259827   301.58325301
 H      2   1   3     1.092109810047   109.43904285   184.10273779
 C      6   2   1     1.530121772886   114.22077114    73.04151183
 H      6   2   1     1.092559482415   109.34608721   310.46965793
 H      6   2   1     1.092651165033   108.67244552   193.10179730
 N      9   6   2     1.457010772226   112.19009603   288.20401778
 H      9   6   2     1.105657687232   108.06315229   163.96759695
 H      9   6   2     1.094369539467   109.33809133    47.28902592
 H     12   9   6     1.014761753024   109.62149948   299.72601305
 H     12   9   6     1.013672949007   109.82294536   181.56756286

---------------------------
INTERNAL COORDINATES (A.U.)
---------------------------
 C      0   0   0     0.000000000000     0.00000000     0.00000000
 C      1   0   0     2.878747486072     0.00000000     0.00000000
 H      1   2   0     2.055959343935   110.36376088     0.00000000
 H      1   2   3     2.051177499173   109.96010328   240.28712900
 H      1   2   3     2.055570859214   110.37233692   119.75600276
 C      2   1   3     2.889914384687   113.06886642    62.45726250
 H      2   1   3     2.066151848714   109.15259827   301.58325301
 H      2   1   3     2.063788449157   109.43904285   184.10273779
 C      6   2   1     2.891511102304   114.22077114    73.04151183
 H      6   2   1     2.064638206783   109.34608721   310.46965793
 H      6   2   1     2.064811461822   108.67244552   193.10179730
 N      9   6   2     2.753351333680   112.19009603   288.20401778
 H      9   6   2     2.089390226733   108.06315229   163.96759695
 H      9   6   2     2.068058718897   109.33809133    47.28902592
 H     12   9   6     1.917621804393   109.62149948   299.72601305
 H     12   9   6     1.915564262987   109.82294536   181.56756286

---------------------
BASIS SET INFORMATION
---------------------
There are 3 groups of distinct atoms

 Group   1 Type C   : 7s4p1d contracted to 3s2p1d pattern {511/31/1}
 Group   2 Type H   : 4s1p contracted to 2s1p pattern {31/1}
 Group   3 Type N   : 7s4p1d contracted to 3s2p1d pattern {511/31/1}

Atom   0C    basis set group =>   1
Atom   1C    basis set group =>   1
Atom   2H    basis set group =>   2
Atom   3H    basis set group =>   2
Atom   4H    basis set group =>   2
Atom   5C    basis set group =>   1
Atom   6H    basis set group =>   2
Atom   7H    basis set group =>   2
Atom   8C    basis set group =>   1
Atom   9H    basis set group =>   2
Atom  10H    basis set group =>   2
Atom  11N    basis set group =>   3
Atom  12H    basis set group =>   2
Atom  13H    basis set group =>   2
Atom  14H    basis set group =>   2
Atom  15H    basis set group =>   2
---------------------------------
AUXILIARY/J BASIS SET INFORMATION
---------------------------------
There are 3 groups of distinct atoms

 Group   1 Type C   : 12s5p4d2f1g contracted to 6s4p3d1f1g pattern {711111/2111/211/2/1}
 Group   2 Type H   : 5s2p1d contracted to 3s1p1d pattern {311/2/1}
 Group   3 Type N   : 12s5p4d2f1g contracted to 6s4p3d1f1g pattern {711111/2111/211/2/1}

Atom   0C    basis set group =>   1
Atom   1C    basis set group =>   1
Atom   2H    basis set group =>   2
Atom   3H    basis set group =>   2
Atom   4H    basis set group =>   2
Atom   5C    basis set group =>   1
Atom   6H    basis set group =>   2
Atom   7H    basis set group =>   2
Atom   8C    basis set group =>   1
Atom   9H    basis set group =>   2
Atom  10H    basis set group =>   2
Atom  11N    basis set group =>   3
Atom  12H    basis set group =>   2
Atom  13H    basis set group =>   2
Atom  14H    basis set group =>   2
Atom  15H    basis set group =>   2


           ************************************************************
           *        Program running with 4 parallel MPI-processes     *
           *              working on a common directory               *
           ************************************************************
------------------------------------------------------------------------------
                           ORCA GTO INTEGRAL CALCULATION
                           -- RI-GTO INTEGRALS CHOSEN --
------------------------------------------------------------------------------
------------------------------------------------------------------------------
                   ___                                                        
                  /   \      - P O W E R E D   B Y -                         
                 /     \                                                     
                 |  |  |   _    _      __       _____    __    __             
                 |  |  |  | |  | |    /  \     |  _  \  |  |  /  |          
                  \  \/   | |  | |   /    \    | | | |  |  | /  /          
                 / \  \   | |__| |  /  /\  \   | |_| |  |  |/  /          
                |  |  |   |  __  | /  /__\  \  |    /   |      \           
                |  |  |   | |  | | |   __   |  |    \   |  |\   \          
                \     /   | |  | | |  |  |  |  | |\  \  |  | \   \       
                 \___/    |_|  |_| |__|  |__|  |_| \__\ |__|  \__/        
                                                                              
                      - O R C A' S   B I G   F R I E N D -                    
                                      &                                       
                       - I N T E G R A L  F E E D E R -                       
                                                                              
 v1 FN, 2020, v2 2021                                                         
------------------------------------------------------------------------------


Reading SHARK input file butylamine_deprot_aq_13.SHARKINP.tmp ... ok
----------------------
SHARK INTEGRAL PACKAGE
----------------------

Number of atoms                             ...     16
Number of basis functions                   ...    125
Number of shells                            ...     63
Maximum angular momentum                    ...      2
Integral batch strategy                     ... SHARK/LIBINT Hybrid
RI-J (if used) integral strategy            ... SPLIT-RIJ (Revised 2003 algorithm where possible)
Printlevel                                  ...      1
Contraction scheme used                     ... SEGMENTED contraction
Coulomb Range Separation                    ... NOT USED
Exchange Range Separation                   ... Long Range
   Mu parameter                             ...  0.300000
   Scaling (regular/separated)              ...  0.157706  0.842294
Finite Nucleus Model                        ... NOT USED
Auxiliary Coulomb fitting basis             ... AVAILABLE
   # of basis functions in Aux-J            ...    366
   # of shells in Aux-J                     ...    130
   Maximum angular momentum in Aux-J        ...      4
Auxiliary J/K fitting basis                 ... NOT available
Auxiliary Correlation fitting basis         ... NOT available
Auxiliary 'external' fitting basis          ... NOT available
Integral threshold                          ...     2.500000e-11
Primitive cut-off                           ...     2.500000e-12
Primitive pair pre-selection threshold      ...     2.500000e-12

Calculating pre-screening integrals         ... done (  0.0 sec) Dimension = 63
Organizing shell pair data                  ... done (  0.0 sec)
Shell pair information
Total number of shell pairs                 ...      2016
Shell pairs after pre-screening             ...      1989
Total number of primitive shell pairs       ...      6768
Primitive shell pairs kept                  ...      5322
          la=0 lb=0:    695 shell pairs
          la=1 lb=0:    761 shell pairs
          la=1 lb=1:    228 shell pairs
          la=2 lb=0:    185 shell pairs
          la=2 lb=1:    105 shell pairs
          la=2 lb=2:     15 shell pairs

Calculating one electron integrals          ... done (  0.0 sec)
Calculating RI/J V-Matrix + Cholesky decomp.... done (  0.0 sec)
Calculating Nuclear repulsion               ... done (  0.0 sec) ENN=    193.567279107382 Eh

SHARK setup successfully completed in   0.2 seconds

Maximum memory used throughout the entire GTOINT-calculation: 10.7 MB


           ************************************************************
           *        Program running with 4 parallel MPI-processes     *
           *              working on a common directory               *
           ************************************************************
-------------------------------------------------------------------------------
                                 ORCA SCF
-------------------------------------------------------------------------------

------------
SCF SETTINGS
------------
Hamiltonian:
 Density Functional     Method          .... DFT(GTOs)
 Exchange Functional    Exchange        .... WB97X
 Correlation Functional Correlation     .... WB97X
 Gradients option       PostSCFGGA      .... off
 Hybrid DFT is turned on
   Fraction HF Exchange ScalHFX         ....  0.157706
   Scaling of DF-GGA-X  ScalDFX         ....  0.000000
   Scaling of DF-GGA-C  ScalDFC         ....  1.000000
   Scaling of DF-LDA-C  ScalLDAC        ....  1.000000
   Perturbative correction              ....  0.000000
   Density functional embedding theory  .... OFF
 Long-range corrected/Screened/Range-Separated Hybrid DFT is turned on
   Amount of maximum screened exact exchange              ....  0.842294
   Range separation parameter mu (erf(mu*r12)/r12)        ....  0.300000
 RI-approximation to the Coulomb term is turned on
   Number of AuxJ basis functions       .... 366
   RIJ-COSX (HFX calculated with COS-X)).... on


General Settings:
 Integral files         IntName         .... butylamine_deprot_aq_13
 Hartree-Fock type      HFTyp           .... RHF
 Total Charge           Charge          ....    0
 Multiplicity           Mult            ....    1
 Number of Electrons    NEL             ....   42
 Basis Dimension        Dim             ....  125
 Nuclear Repulsion      ENuc            ....    193.5672791074 Eh

Convergence Acceleration:
 DIIS                   CNVDIIS         .... on
   Start iteration      DIISMaxIt       ....     0
   Startup error        DIISStart       ....  0.200000
   # of expansion vecs  DIISMaxEq       ....     5
   Bias factor          DIISBfac        ....   1.050
   Max. coefficient     DIISMaxC        ....  10.000
 Trust-Rad. Augm. Hess. CNVTRAH         .... auto
   Auto Start mean grad. ratio tolernc. ....  1.125000
   Auto Start start iteration           ....    20
   Auto Start num. interpolation iter.  ....    10
   Max. Number of Micro iterations      ....    16
   Max. Number of Macro iterations      .... Maxiter - #DIIS iter
   Number of Davidson start vectors     ....     2
   Converg. threshold I  (grad. norm)   ....   1.000e-05
   Converg. threshold II (energy diff.) ....   1.000e-08
   Grad. Scal. Fac. for Micro threshold ....   0.100
   Minimum threshold for Micro iter.    ....   0.010
   NR start threshold (gradient norm)   ....   0.001
   Initial trust radius                 ....   0.400
   Minimum AH scaling param. (alpha)    ....   1.000
   Maximum AH scaling param. (alpha)    .... 1000.000
   Orbital update algorithm             .... Taylor
   White noise on init. David. guess    .... on
   Maximum white noise                  ....   0.010
   Quad. conv. algorithm                .... NR
 SOSCF                  CNVSOSCF        .... on
   Start iteration      SOSCFMaxIt      ....   150
   Startup grad/error   SOSCFStart      ....  0.001000
 Level Shifting         CNVShift        .... on
   Level shift para.    LevelShift      ....    0.2500
   Turn off err/grad.   ShiftErr        ....    0.0000
 Zerner damping         CNVZerner       .... off
 Static damping         CNVDamp         .... on
   Fraction old density DampFac         ....    0.8500
   Max. Damping (<1)    DampMax         ....    0.9800
   Min. Damping (>=0)   DampMin         ....    0.0000
   Turn off err/grad.   DampErr         ....    0.0300
 Fernandez-Rico         CNVRico         .... off

SCF Procedure:
 Maximum # iterations   MaxIter         ....   125
 SCF integral mode      SCFMode         .... Direct
   Integral package                     .... SHARK and LIBINT hybrid scheme
 Reset frequency        DirectResetFreq ....    20
 Integral Threshold     Thresh          ....  2.500e-11 Eh
 Primitive CutOff       TCut            ....  2.500e-12 Eh

Convergence Tolerance:
 Convergence Check Mode ConvCheckMode   .... Total+1el-Energy
 Convergence forced     ConvForced      .... 0
 Energy Change          TolE            ....  1.000e-08 Eh
 1-El. energy change                    ....  1.000e-05 Eh
 Orbital Gradient       TolG            ....  1.000e-05
 Orbital Rotation angle TolX            ....  1.000e-05
 DIIS Error             TolErr          ....  5.000e-07


Diagonalization of the overlap matrix:
Smallest eigenvalue                        ... 2.373e-03
Time for diagonalization                   ...    0.003 sec
Threshold for overlap eigenvalues          ... 1.000e-08
Number of eigenvalues below threshold      ... 0
Time for construction of square roots      ...    0.003 sec
Total time needed                          ...    0.006 sec

Time for model grid setup =    0.062 sec

------------------------------
INITIAL GUESS: MODEL POTENTIAL
------------------------------
Loading Hartree-Fock densities                     ... done
Calculating cut-offs                               ... done
Initializing the effective Hamiltonian             ... done
Setting up the integral package (SHARK)            ... done
Starting the Coulomb interaction                   ... done (   0.0 sec)
Reading the grid                                   ... done
Mapping shells                                     ... done
Starting the XC term evaluation                    ... done (   0.0 sec)
  promolecular density results
     # of electrons  =     41.996107679
     EX              =    -30.246341395
     EC              =     -1.357684576
     EX+EC           =    -31.604025970
Transforming the Hamiltonian                       ... done (   0.0 sec)
Diagonalizing the Hamiltonian                      ... done (   0.0 sec)
Back transforming the eigenvectors                 ... done (   0.0 sec)
Now organizing SCF variables                       ... done
                      ------------------
                      INITIAL GUESS DONE (   0.2 sec)
                      ------------------
-------------------
DFT GRID GENERATION
-------------------

General Integration Accuracy     IntAcc      ... 4.388
Radial Grid Type                 RadialGrid  ... OptM3 with GC (2021)
Angular Grid (max. ang.)         AngularGrid ... 4 (Lebedev-302)
Angular grid pruning method      GridPruning ... 4 (adaptive)
Weight generation scheme         WeightScheme... Becke
Basis function cutoff            BFCut       ... 1.0000e-11
Integration weight cutoff        WCut        ... 1.0000e-14
Angular grids for H and He will be reduced by one unit
Partially contracted basis set               ... off
Rotationally invariant grid construction     ... off

Total number of grid points                  ...    65437
Total number of batches                      ...     1031
Average number of points per batch           ...       63
Average number of grid points per atom       ...     4090
Time for grid setup =    0.334 sec

--------------------
COSX GRID GENERATION
--------------------

GRIDX 1
-------
General Integration Accuracy     IntAcc      ... 3.816
Radial Grid Type                 RadialGrid  ... OptM3 with GC (2021)
Angular Grid (max. ang.)         AngularGrid ... 1 (Lebedev-50)
Angular grid pruning method      GridPruning ... 4 (adaptive)
Weight generation scheme         WeightScheme... Becke
Basis function cutoff            BFCut       ... 1.0000e-11
Integration weight cutoff        WCut        ... 1.0000e-14
Angular grids for H and He will be reduced by one unit
Partially contracted basis set               ... on
Rotationally invariant grid construction     ... off

Total number of grid points                  ...     8430
Total number of batches                      ...      142
Average number of points per batch           ...       59
Average number of grid points per atom       ...      527
UseSFitting                                  ... on

GRIDX 2
-------
General Integration Accuracy     IntAcc      ... 4.020
Radial Grid Type                 RadialGrid  ... OptM3 with GC (2021)
Angular Grid (max. ang.)         AngularGrid ... 2 (Lebedev-110)
Angular grid pruning method      GridPruning ... 4 (adaptive)
Weight generation scheme         WeightScheme... Becke
Basis function cutoff            BFCut       ... 1.0000e-11
Integration weight cutoff        WCut        ... 1.0000e-14
Angular grids for H and He will be reduced by one unit
Partially contracted basis set               ... on
Rotationally invariant grid construction     ... off

Total number of grid points                  ...    17356
Total number of batches                      ...      280
Average number of points per batch           ...       61
Average number of grid points per atom       ...     1085
UseSFitting                                  ... on

GRIDX 3
-------
General Integration Accuracy     IntAcc      ... 4.338
Radial Grid Type                 RadialGrid  ... OptM3 with GC (2021)
Angular Grid (max. ang.)         AngularGrid ... 3 (Lebedev-194)
Angular grid pruning method      GridPruning ... 4 (adaptive)
Weight generation scheme         WeightScheme... Becke
Basis function cutoff            BFCut       ... 1.0000e-11
Integration weight cutoff        WCut        ... 1.0000e-14
Angular grids for H and He will be reduced by one unit
Partially contracted basis set               ... on
Rotationally invariant grid construction     ... off

Total number of grid points                  ...    37904
Total number of batches                      ...      600
Average number of points per batch           ...       63
Average number of grid points per atom       ...     2369
UseSFitting                                  ... on

Time for X-Grid setup             =    0.441 sec

--------------
SCF ITERATIONS
--------------
ITER       Energy         Delta-E        Max-DP      RMS-DP      [F,P]     Damp
               ***  Starting incremental Fock matrix formation  ***
  0   -213.3770761120   0.000000000000 0.03818607  0.00116689  0.2290665 0.8500
  1   -213.4235197304  -0.046443618405 0.03268841  0.00110842  0.1765237 0.8500
                               ***Turning on DIIS***
  2   -213.4574169467  -0.033897216339 0.02424437  0.00088531  0.1285868 0.8500
  3   -213.4816951075  -0.024278160792 0.01468478  0.00057120  0.0922334 0.8500
  4   -213.5000362739  -0.018341166415 0.00982010  0.00040686  0.0721917 0.8500
  5   -213.5142963166  -0.014260042657 0.00733670  0.00032129  0.0596792 0.8500
  6   -213.5258301102  -0.011533793599 0.00584152  0.00026667  0.0503239 0.8500
  7   -213.5353562235  -0.009526113338 0.00489062  0.00022975  0.0426954 0.8500
  8   -213.5433216164  -0.007965392919 0.00416314  0.00019812  0.0359896 0.8500
  9   -213.5499942754  -0.006672658961 0.00353438  0.00016951  0.0302414 0.8500
 10   -213.5555892561  -0.005594980718 0.01986636  0.00096203  0.0254302 0.0000
 11   -213.5860349198  -0.030445663700 0.00111221  0.00003877  0.0014347 0.0000
                      *** Initiating the SOSCF procedure ***
                           *** Shutting down DIIS ***
                      *** Re-Reading the Fockian *** 
                      *** Removing any level shift *** 
ITER      Energy       Delta-E        Grad      Rot      Max-DP    RMS-DP
 12   -213.58604468  -0.0000097646  0.000069  0.000069  0.000292  0.000014
               *** Restarting incremental Fock matrix formation ***
 13   -213.58611782  -0.0000731344  0.000034  0.000060  0.000263  0.000011
 14   -213.58611795  -0.0000001324  0.000012  0.000033  0.000110  0.000005
 15   -213.58611797  -0.0000000171  0.000010  0.000005  0.000031  0.000001
                  ***Gradient check signals convergence***
              ***Rediagonalizing the Fockian in SOSCF/NRSCF***

               *****************************************************
               *                     SUCCESS                       *
               *           SCF CONVERGED AFTER  16 CYCLES          *
               *****************************************************

Old exchange energy                            =    -10.443517320 Eh
New exchange energy                            =    -10.443508500 Eh
Exchange energy change after final integration =      0.000008821 Eh
Total energy after final integration           =   -213.586109152 Eh
Final COS-X integration done in                =     3.318 sec

----------------
TOTAL SCF ENERGY
----------------

Total Energy       :         -213.58610915 Eh           -5811.97351 eV

Components:
Nuclear Repulsion  :          193.56727911 Eh            5267.23345 eV
Electronic Energy  :         -407.15338826 Eh          -11079.20695 eV
One Electron Energy:         -670.01239995 Eh          -18231.96430 eV
Two Electron Energy:          262.85901169 Eh            7152.75735 eV
Max COSX asymmetry :            0.00000171 Eh               0.00005 eV

Virial components:
Potential Energy   :         -424.61729968 Eh          -11554.42414 eV
Kinetic Energy     :          211.03119053 Eh            5742.45063 eV
Virial Ratio       :            2.01210683


DFT components:
N(Alpha)           :       20.999949463628 electrons
N(Beta)            :       20.999949463628 electrons
N(Total)           :       41.999898927256 electrons
E(XC)              :      -22.252382919037 Eh       
DFET-embed. en.    :        0.000000000000 Eh       

---------------
SCF CONVERGENCE
---------------

  Last Energy change         ...   -4.6679e-09  Tolerance :   1.0000e-08
  Last MAX-Density change    ...    2.6645e-15  Tolerance :   1.0000e-07
  Last RMS-Density change    ...    4.4567e-17  Tolerance :   5.0000e-09
  Last Orbital Gradient      ...    2.1082e-06  Tolerance :   1.0000e-05
  Last Orbital Rotation      ...    1.4082e-06  Tolerance :   1.0000e-05

             **** THE GBW FILE WAS UPDATED (butylamine_deprot_aq_13.gbw) ****
             **** DENSITY butylamine_deprot_aq_13.scfp WAS UPDATED ****
             **** ENERGY FILE WAS UPDATED (butylamine_deprot_aq_13.en.tmp) ****
             **** THE GBW FILE WAS UPDATED (butylamine_deprot_aq_13.gbw) ****
             **** DENSITY butylamine_deprot_aq_13.scfp WAS UPDATED ****
----------------
ORBITAL ENERGIES
----------------

  NO   OCC          E(Eh)            E(eV) 
   0   2.0000     -14.378859      -391.2686 
   1   2.0000     -10.285564      -279.8844 
   2   2.0000     -10.257921      -279.1322 
   3   2.0000     -10.252611      -278.9877 
   4   2.0000     -10.235326      -278.5174 
   5   2.0000      -1.001440       -27.2506 
   6   2.0000      -0.901635       -24.5347 
   7   2.0000      -0.820536       -22.3279 
   8   2.0000      -0.734383       -19.9836 
   9   2.0000      -0.681201       -18.5364 
  10   2.0000      -0.596842       -16.2409 
  11   2.0000      -0.576025       -15.6744 
  12   2.0000      -0.562036       -15.2938 
  13   2.0000      -0.512473       -13.9451 
  14   2.0000      -0.509967       -13.8769 
  15   2.0000      -0.476635       -12.9699 
  16   2.0000      -0.453990       -12.3537 
  17   2.0000      -0.428500       -11.6601 
  18   2.0000      -0.425819       -11.5871 
  19   2.0000      -0.416398       -11.3308 
  20   2.0000      -0.329424        -8.9641 
  21   0.0000       0.143363         3.9011 
  22   0.0000       0.174122         4.7381 
  23   0.0000       0.179118         4.8740 
  24   0.0000       0.197794         5.3822 
  25   0.0000       0.216278         5.8852 
  26   0.0000       0.232632         6.3302 
  27   0.0000       0.237524         6.4633 
  28   0.0000       0.247555         6.7363 
  29   0.0000       0.262109         7.1324 
  30   0.0000       0.265867         7.2346 
  31   0.0000       0.286724         7.8022 
  32   0.0000       0.299247         8.1429 
  33   0.0000       0.344785         9.3821 
  34   0.0000       0.364883         9.9290 
  35   0.0000       0.376157        10.2357 
  36   0.0000       0.516467        14.0538 
  37   0.0000       0.527705        14.3596 
  38   0.0000       0.546941        14.8830 
  39   0.0000       0.551965        15.0197 
  40   0.0000       0.573411        15.6033 
  41   0.0000       0.601106        16.3569 
  42   0.0000       0.680408        18.5148 
  43   0.0000       0.702599        19.1187 
  44   0.0000       0.733562        19.9612 
  45   0.0000       0.744155        20.2495 
  46   0.0000       0.756365        20.5817 
  47   0.0000       0.763384        20.7727 
  48   0.0000       0.774345        21.0710 
  49   0.0000       0.787761        21.4361 
  50   0.0000       0.795466        21.6457 
  51   0.0000       0.802427        21.8352 
  52   0.0000       0.817453        22.2440 
  53   0.0000       0.823937        22.4205 
  54   0.0000       0.827674        22.5221 
  55   0.0000       0.833781        22.6883 
  56   0.0000       0.840608        22.8741 
  57   0.0000       0.847819        23.0703 
  58   0.0000       0.879338        23.9280 
  59   0.0000       0.888929        24.1890 
  60   0.0000       0.979144        26.6439 
  61   0.0000       0.999523        27.1984 
  62   0.0000       1.037274        28.2257 
  63   0.0000       1.112945        30.2848 
  64   0.0000       1.185167        32.2500 
  65   0.0000       1.226151        33.3653 
  66   0.0000       1.247242        33.9392 
  67   0.0000       1.286378        35.0041 
  68   0.0000       1.362345        37.0713 
  69   0.0000       1.393765        37.9263 
  70   0.0000       1.432185        38.9717 
  71   0.0000       1.442052        39.2402 
  72   0.0000       1.513480        41.1839 
  73   0.0000       1.621074        44.1117 
  74   0.0000       1.671038        45.4713 
  75   0.0000       1.689618        45.9769 
  76   0.0000       1.729266        47.0557 
  77   0.0000       1.802130        49.0385 
  78   0.0000       1.825965        49.6870 
  79   0.0000       1.846135        50.2359 
  80   0.0000       1.888558        51.3903 
  81   0.0000       1.900001        51.7017 
  82   0.0000       1.904518        51.8246 
  83   0.0000       1.921444        52.2851 
  84   0.0000       1.929648        52.5084 
  85   0.0000       1.944259        52.9060 
  86   0.0000       1.947660        52.9985 
  87   0.0000       1.967290        53.5327 
  88   0.0000       1.992055        54.2066 
  89   0.0000       2.002658        54.4951 
  90   0.0000       2.026068        55.1321 
  91   0.0000       2.049044        55.7573 
  92   0.0000       2.053934        55.8904 
  93   0.0000       2.064636        56.1816 
  94   0.0000       2.104168        57.2573 
  95   0.0000       2.124899        57.8214 
  96   0.0000       2.194878        59.7257 
  97   0.0000       2.238305        60.9074 
  98   0.0000       2.285287        62.1858 
  99   0.0000       2.304149        62.6991 
 100   0.0000       2.361740        64.2662 
 101   0.0000       2.380697        64.7821 
 102   0.0000       2.456453        66.8435 
 103   0.0000       2.487778        67.6959 
 104   0.0000       2.544532        69.2402 
 105   0.0000       2.576228        70.1027 
 106   0.0000       2.612949        71.1020 
 107   0.0000       2.660865        72.4058 
 108   0.0000       2.710977        73.7694 
 109   0.0000       2.734807        74.4179 
 110   0.0000       2.765212        75.2452 
 111   0.0000       2.817890        76.6787 
 112   0.0000       2.875240        78.2393 
 113   0.0000       2.914616        79.3107 
 114   0.0000       2.979782        81.0840 
 115   0.0000       2.996856        81.5486 
 116   0.0000       3.059986        83.2665 
 117   0.0000       3.091970        84.1368 
 118   0.0000       3.099749        84.3485 
 119   0.0000       3.119171        84.8769 
 120   0.0000       3.171827        86.3098 
 121   0.0000       3.195954        86.9663 
 122   0.0000       3.251246        88.4709 
 123   0.0000       3.343770        90.9886 
 124   0.0000       3.534277        96.1726 

                    ********************************
                    * MULLIKEN POPULATION ANALYSIS *
                    ********************************

-----------------------
MULLIKEN ATOMIC CHARGES
-----------------------
   0 C :   -0.026165
   1 C :   -0.043801
   2 H :    0.003185
   3 H :    0.036304
   4 H :    0.013313
   5 C :   -0.049928
   6 H :    0.013355
   7 H :    0.005755
   8 C :    0.075449
   9 H :    0.001191
  10 H :    0.015560
  11 N :   -0.245703
  12 H :    0.000811
  13 H :    0.008405
  14 H :    0.093981
  15 H :    0.098287
Sum of atomic charges:    0.0000000

--------------------------------
MULLIKEN REDUCED ORBITAL CHARGES
--------------------------------
  0 C s       :     2.986697  s :     2.986697
      pz      :     1.014140  p :     3.011394
      px      :     1.025654
      py      :     0.971600
      dz2     :     0.002173  d :     0.028075
      dxz     :     0.006998
      dyz     :     0.008062
      dx2y2   :     0.007098
      dxy     :     0.003743
  1 C s       :     3.026512  s :     3.026512
      pz      :     0.990084  p :     2.980338
      px      :     0.974068
      py      :     1.016186
      dz2     :     0.003800  d :     0.036951
      dxz     :     0.008688
      dyz     :     0.009898
      dx2y2   :     0.008549
      dxy     :     0.006015
  2 H s       :     0.972676  s :     0.972676
      pz      :     0.010730  p :     0.024139
      px      :     0.005405
      py      :     0.008003
  3 H s       :     0.937536  s :     0.937536
      pz      :     0.007652  p :     0.026160
      px      :     0.013395
      py      :     0.005113
  4 H s       :     0.962765  s :     0.962765
      pz      :     0.008090  p :     0.023922
      px      :     0.011683
      py      :     0.004148
  5 C s       :     3.032844  s :     3.032844
      pz      :     1.013426  p :     2.981633
      px      :     0.972150
      py      :     0.996057
      dz2     :     0.003961  d :     0.035450
      dxz     :     0.008891
      dyz     :     0.009022
      dx2y2   :     0.010360
      dxy     :     0.003216
  6 H s       :     0.964108  s :     0.964108
      pz      :     0.007553  p :     0.022537
      px      :     0.009958
      py      :     0.005026
  7 H s       :     0.971501  s :     0.971501
      pz      :     0.010871  p :     0.022744
      px      :     0.004094
      py      :     0.007779
  8 C s       :     2.990621  s :     2.990621
      pz      :     0.999029  p :     2.881691
      px      :     1.001476
      py      :     0.881186
      dz2     :     0.005540  d :     0.052239
      dxz     :     0.009471
      dyz     :     0.014292
      dx2y2   :     0.012150
      dxy     :     0.010786
  9 H s       :     0.975897  s :     0.975897
      pz      :     0.009343  p :     0.022912
      px      :     0.003763
      py      :     0.009806
 10 H s       :     0.961769  s :     0.961769
      pz      :     0.006370  p :     0.022671
      px      :     0.003689
      py      :     0.012612
 11 N s       :     3.418839  s :     3.418839
      pz      :     1.273880  p :     3.807213
      px      :     1.416618
      py      :     1.116714
      dz2     :     0.002605  d :     0.019651
      dxz     :     0.002834
      dyz     :     0.006215
      dx2y2   :     0.006407
      dxy     :     0.001590
 12 H s       :     0.978310  s :     0.978310
      pz      :     0.007408  p :     0.020879
      px      :     0.009601
      py      :     0.003870
 13 H s       :     0.970100  s :     0.970100
      pz      :     0.010990  p :     0.021495
      px      :     0.004045
      py      :     0.006459
 14 H s       :     0.860042  s :     0.860042
      pz      :     0.018170  p :     0.045977
      px      :     0.012568
      py      :     0.015239
 15 H s       :     0.856021  s :     0.856021
      pz      :     0.016936  p :     0.045693
      px      :     0.020360
      py      :     0.008397


                     *******************************
                     * LOEWDIN POPULATION ANALYSIS *
                     *******************************

----------------------
LOEWDIN ATOMIC CHARGES
----------------------
   0 C :   -0.067484
   1 C :   -0.038777
   2 H :    0.015580
   3 H :    0.019753
   4 H :    0.017858
   5 C :   -0.045058
   6 H :    0.018142
   7 H :    0.017628
   8 C :    0.015928
   9 H :    0.015685
  10 H :    0.023432
  11 N :   -0.111602
  12 H :   -0.000543
  13 H :    0.015706
  14 H :    0.050163
  15 H :    0.053590

-------------------------------
LOEWDIN REDUCED ORBITAL CHARGES
-------------------------------
  0 C s       :     2.826885  s :     2.826885
      pz      :     1.066333  p :     3.167931
      px      :     1.073176
      py      :     1.028422
      dz2     :     0.005396  d :     0.072668
      dxz     :     0.018847
      dyz     :     0.020479
      dx2y2   :     0.019070
      dxy     :     0.008875
  1 C s       :     2.828701  s :     2.828701
      pz      :     1.046776  p :     3.119543
      px      :     1.029257
      py      :     1.043510
      dz2     :     0.008926  d :     0.090533
      dxz     :     0.022729
      dyz     :     0.023763
      dx2y2   :     0.022557
      dxy     :     0.012558
  2 H s       :     0.918124  s :     0.918124
      pz      :     0.028871  p :     0.066296
      px      :     0.013971
      py      :     0.023454
  3 H s       :     0.905872  s :     0.905872
      pz      :     0.021194  p :     0.074375
      px      :     0.036639
      py      :     0.016541
  4 H s       :     0.915650  s :     0.915650
      pz      :     0.021701  p :     0.066492
      px      :     0.031402
      py      :     0.013389
  5 C s       :     2.835029  s :     2.835029
      pz      :     1.043250  p :     3.121731
      px      :     1.024546
      py      :     1.053935
      dz2     :     0.007450  d :     0.088297
      dxz     :     0.023372
      dyz     :     0.023590
      dx2y2   :     0.027230
      dxy     :     0.006655
  6 H s       :     0.916042  s :     0.916042
      pz      :     0.021125  p :     0.065816
      px      :     0.028714
      py      :     0.015977
  7 H s       :     0.916484  s :     0.916484
      pz      :     0.030010  p :     0.065887
      px      :     0.012783
      py      :     0.023095
  8 C s       :     2.832377  s :     2.832377
      pz      :     1.049490  p :     3.031776
      px      :     1.042712
      py      :     0.939575
      dz2     :     0.011482  d :     0.119918
      dxz     :     0.024459
      dyz     :     0.033217
      dx2y2   :     0.028922
      dxy     :     0.021839
  9 H s       :     0.917655  s :     0.917655
      pz      :     0.026874  p :     0.066660
      px      :     0.013691
      py      :     0.026096
 10 H s       :     0.910280  s :     0.910280
      pz      :     0.019006  p :     0.066289
      px      :     0.013567
      py      :     0.033716
 11 N s       :     3.122576  s :     3.122576
      pz      :     1.326955  p :     3.945182
      px      :     1.441897
      py      :     1.176331
      dz2     :     0.004980  d :     0.043844
      dxz     :     0.006656
      dyz     :     0.014943
      dx2y2   :     0.014113
      dxy     :     0.003152
 12 H s       :     0.936436  s :     0.936436
      pz      :     0.021284  p :     0.064107
      px      :     0.028187
      py      :     0.014635
 13 H s       :     0.920445  s :     0.920445
      pz      :     0.030892  p :     0.063849
      px      :     0.013016
      py      :     0.019942
 14 H s       :     0.827998  s :     0.827998
      pz      :     0.050908  p :     0.121839
      px      :     0.031768
      py      :     0.039162
 15 H s       :     0.824544  s :     0.824544
      pz      :     0.039344  p :     0.121866
      px      :     0.061054
      py      :     0.021468


                      *****************************
                      * MAYER POPULATION ANALYSIS *
                      *****************************

  NA   - Mulliken gross atomic population
  ZA   - Total nuclear charge
  QA   - Mulliken gross atomic charge
  VA   - Mayer's total valence
  BVA  - Mayer's bonded valence
  FA   - Mayer's free valence

  ATOM       NA         ZA         QA         VA         BVA        FA
  0 C      6.0262     6.0000    -0.0262     3.9801     3.9801    -0.0000
  1 C      6.0438     6.0000    -0.0438     4.0889     4.0889     0.0000
  2 H      0.9968     1.0000     0.0032     0.9914     0.9914    -0.0000
  3 H      0.9637     1.0000     0.0363     1.0500     1.0500    -0.0000
  4 H      0.9867     1.0000     0.0133     0.9858     0.9858     0.0000
  5 C      6.0499     6.0000    -0.0499     4.0609     4.0609     0.0000
  6 H      0.9866     1.0000     0.0134     0.9749     0.9749     0.0000
  7 H      0.9942     1.0000     0.0058     0.9817     0.9817     0.0000
  8 C      5.9246     6.0000     0.0754     4.0570     4.0570     0.0000
  9 H      0.9988     1.0000     0.0012     0.9887     0.9887     0.0000
 10 H      0.9844     1.0000     0.0156     0.9805     0.9805     0.0000
 11 N      7.2457     7.0000    -0.2457     3.0702     3.0702     0.0000
 12 H      0.9992     1.0000     0.0008     0.9700     0.9700     0.0000
 13 H      0.9916     1.0000     0.0084     0.9846     0.9846     0.0000
 14 H      0.9060     1.0000     0.0940     1.0002     1.0002     0.0000
 15 H      0.9017     1.0000     0.0983     0.9973     0.9973     0.0000

  Mayer bond orders larger than 0.100000
B(  0-C ,  1-C ) :   1.0869 B(  0-C ,  2-H ) :   0.9738 B(  0-C ,  3-H ) :   0.9607 
B(  0-C ,  4-H ) :   0.9710 B(  1-C ,  5-C ) :   1.0689 B(  1-C ,  6-H ) :   0.9586 
B(  1-C ,  7-H ) :   0.9541 B(  5-C ,  8-C ) :   1.0704 B(  5-C ,  9-H ) :   0.9517 
B(  5-C , 10-H ) :   0.9519 B(  8-C , 11-N ) :   1.0515 B(  8-C , 12-H ) :   0.9554 
B(  8-C , 13-H ) :   0.9519 B( 11-N , 14-H ) :   0.9722 B( 11-N , 15-H ) :   0.9732 


-------
TIMINGS
-------

Total SCF time: 0 days 0 hours 0 min 25 sec 

Total time                  ....      25.909 sec
Sum of individual times     ....      25.381 sec  ( 98.0%)

Fock matrix formation       ....      24.216 sec  ( 93.5%)
  Split-RI-J                ....       1.140 sec  (  4.7% of F)
  Chain of spheres X        ....      18.395 sec  ( 76.0% of F)
  XC integration            ....       4.203 sec  ( 17.4% of F)
    Basis function eval.    ....       1.322 sec  ( 31.5% of XC)
    Density eval.           ....       0.667 sec  ( 15.9% of XC)
    XC-Functional eval.     ....       0.609 sec  ( 14.5% of XC)
    XC-Potential eval.      ....       0.838 sec  ( 19.9% of XC)
Diagonalization             ....       0.056 sec  (  0.2%)
Density matrix formation    ....       0.003 sec  (  0.0%)
Population analysis         ....       0.072 sec  (  0.3%)
Initial guess               ....       0.134 sec  (  0.5%)
Orbital Transformation      ....       0.000 sec  (  0.0%)
Orbital Orthonormalization  ....       0.000 sec  (  0.0%)
DIIS solution               ....       0.048 sec  (  0.2%)
SOSCF solution              ....       0.015 sec  (  0.1%)
Grid generation             ....       0.838 sec  (  3.2%)

Maximum memory used throughout the entire SCF-calculation: 49.8 MB


-------------------------------------------------------------------------------
                          DFT DISPERSION CORRECTION                            
                                                                               
                                 DFTD4 V2.5                                    
-------------------------------------------------------------------------------
The WB97X functional is recognized
Active option DFTDOPT                   ...         5   

Starting D4
-------------------------   ----------------
Dispersion correction           -0.001459057
-------------------------   ----------------


-------------------------   --------------------
FINAL SINGLE POINT ENERGY      -213.587568208811
-------------------------   --------------------



           ************************************************************
           *        Program running with 4 parallel MPI-processes     *
           *              working on a common directory               *
           ************************************************************
------------------------------------------------------------------------------
                         ORCA SCF GRADIENT CALCULATION
------------------------------------------------------------------------------

 ... reading COSX grid (gridx3)
Gradient of the Kohn-Sham DFT energy:
Kohn-Sham wavefunction type      ... RKS
Hartree-Fock exchange scaling    ...    0.158
Number of operators              ...    1
Number of atoms                  ...   16
Basis set dimensions             ...  125
Integral neglect threshold       ... 2.5e-11
Integral primitive cutoff        ... 2.5e-12
SHARK Integral package           ... ON

Nuc. rep. gradient       (SHARK) ... done (  0.0 sec)
HCore & Overlap gradient (SHARK) ... done (  0.0 sec)
RI-J gradient            (SHARK) ... done (  0.2 sec)
COSX-gradient                    ... done (  3.5 sec)
Exchange-correlation gradient    ... done
Dispersion correction            ... Starting D4
Starting D4
Starting D4
Starting D4


------------------- 
Dispersion Gradient 
------------------- 
   1  :   -0.000021167    0.000015853    0.000006666
   2  :   -0.000017403   -0.000011178   -0.000000033
   3  :   -0.000005753   -0.000000100    0.000002607
   4  :   -0.000003333   -0.000002188   -0.000002401
   5  :   -0.000007366    0.000002194    0.000001511
   6  :    0.000000531   -0.000009768   -0.000015233
   7  :   -0.000003486    0.000000630    0.000000550
   8  :   -0.000002878    0.000002943   -0.000003174
   9  :    0.000016292   -0.000017142   -0.000003735
  10  :    0.000000432   -0.000003109    0.000004871
  11  :    0.000000109   -0.000001450   -0.000000514
  12  :    0.000017800    0.000012313    0.000008701
  13  :    0.000004072    0.000001499    0.000000914
  14  :    0.000003536    0.000004565   -0.000002833
  15  :    0.000005618    0.000002672   -0.000002135
  16  :    0.000012995    0.000002266    0.000004238

  |G| =    0.000051364

done

------------------
CARTESIAN GRADIENT
------------------

   1   C   :    0.001421094    0.010316849   -0.001195911
   2   C   :   -0.005530712   -0.010738378    0.005292618
   3   H   :    0.001463849   -0.007079326    0.006995811
   4   H   :   -0.005731852   -0.004611156   -0.004228109
   5   H   :    0.008453548   -0.001944214   -0.004574739
   6   C   :   -0.000805660    0.003717754   -0.015894035
   7   H   :    0.005592554    0.003898542    0.002307634
   8   H   :    0.000546020    0.006383076   -0.005213318
   9   C   :    0.001045447   -0.007692844    0.007036190
  10   H   :   -0.000569236   -0.004388536    0.008021076
  11   H   :   -0.000749504    0.004973662    0.005283425
  12   N   :    0.002059380    0.003744056   -0.001716868
  13   H   :   -0.002363099    0.003017387    0.000615932
  14   H   :    0.000027371    0.005774568   -0.003567763
  15   H   :   -0.002019841   -0.003086732    0.001491676
  16   H   :   -0.002863110   -0.002405103   -0.000819406

Difference to translation invariance:
           :   -0.0000237501   -0.0001203952   -0.0001657860

Difference to rotation invariance:
           :   -0.0001105438    0.0003933777   -0.0000565503

Norm of the cartesian gradient     ...    0.0360559252
RMS gradient                       ...    0.0052042245
MAX gradient                       ...    0.0158940352

-------
TIMINGS
-------

Total SCF gradient time            ...        5.139 sec

One electron gradient       ....       0.040 sec  (  0.8%)
RI-J Coulomb gradient       ....       0.226 sec  (  4.4%)
COSX gradient               ....       3.540 sec  ( 68.9%)
XC gradient                 ....       1.036 sec  ( 20.2%)

Maximum memory used throughout the entire SCFGRAD-calculation: 38.4 MB
------------------------------------------------------------------------------
                         ORCA GEOMETRY RELAXATION STEP
------------------------------------------------------------------------------

Reading the OPT-File                    .... done
Getting information on internals        .... done
Copying old internal coords+grads       .... done
Making the new internal coordinates     .... (new redundants).... done
Validating the new internal coordinates .... (new redundants).... done
Calculating the B-matrix                .... done
Calculating the G,G- and P matrices     .... done
Transforming gradient to internals      .... done
Projecting the internal gradient        .... done
Number of atoms                         ....  16
Number of internal coordinates          ....  75
Current Energy                          ....  -213.587568209 Eh
Current gradient norm                   ....     0.036055925 Eh/bohr
Maximum allowed component of the step   ....  0.300
Current trust radius                    ....  0.300
Evaluating the initial hessian          ....  (Almloef) done
Projecting the Hessian                  .... done
Forming the augmented Hessian           .... done
Diagonalizing the augmented Hessian     .... done
Last element of RFO vector              ....  0.988191932
Lowest eigenvalues of augmented Hessian:
 -0.003322536  0.011135991  0.011316001  0.011688106  0.016321704
Length of the computed step             ....  0.155051965
The final length of the internal step   ....  0.155051965
Converting the step to cartesian space:
 Initial RMS(Int)=    0.0179038587
Transforming coordinates:
 Iter   0:  RMS(Cart)=    0.0742143448 RMS(Int)=    0.0180503585
 Iter   1:  RMS(Cart)=    0.0012164015 RMS(Int)=    0.0006797635
 Iter   2:  RMS(Cart)=    0.0000638088 RMS(Int)=    0.0000168602
 Iter   3:  RMS(Cart)=    0.0000023647 RMS(Int)=    0.0000014351
 Iter   4:  RMS(Cart)=    0.0000001253 RMS(Int)=    0.0000000432
 Iter   5:  RMS(Cart)=    0.0000000050 RMS(Int)=    0.0000000033
done
Storing new coordinates                 .... done

                                .--------------------.
          ----------------------|Geometry convergence|-------------------------
          Item                value                   Tolerance       Converged
          ---------------------------------------------------------------------
          RMS gradient        0.0035831922            0.0001000000      NO
          MAX gradient        0.0099818159            0.0003000000      NO
          RMS step            0.0179038587            0.0020000000      NO
          MAX step            0.0497051868            0.0040000000      NO
          ........................................................
          Max(Bonds)      0.0144      Max(Angles)    1.90
          Max(Dihed)        2.85      Max(Improp)    0.00
          ---------------------------------------------------------------------

The optimization has not yet converged - more geometry cycles are needed


    ---------------------------------------------------------------------------
                         Redundant Internal Coordinates
                            (Angstroem and degrees)

        Definition                    Value    dE/dq     Step     New-Value
    ----------------------------------------------------------------------------
     1. B(C   1,C   0)                1.5234 -0.005071  0.0069    1.5303   
     2. B(H   2,C   0)                1.0880 -0.009982  0.0144    1.1024   
     3. B(H   3,C   0)                1.0854 -0.008262  0.0118    1.0973   
     4. B(H   4,C   0)                1.0878 -0.009588  0.0138    1.1016   
     5. B(C   5,C   1)                1.5293 -0.005791  0.0081    1.5374   
     6. B(H   6,C   1)                1.0934 -0.006808  0.0100    1.1034   
     7. B(H   7,C   1)                1.0921 -0.007979  0.0117    1.1038   
     8. B(C   8,C   5)                1.5301 -0.001793  0.0025    1.5326   
     9. B(H   9,C   5)                1.0926 -0.008775  0.0129    1.1055   
    10. B(H  10,C   5)                1.0927 -0.006865  0.0101    1.1027   
    11. B(N  11,C   8)                1.4570 -0.002362  0.0028    1.4598   
    12. B(H  12,C   8)                1.1057 -0.003159  0.0049    1.1105   
    13. B(H  13,C   8)                1.0944 -0.006278  0.0093    1.1037   
    14. B(H  14,N  11)                1.0148 -0.003250  0.0040    1.0188   
    15. B(H  15,N  11)                1.0137 -0.002971  0.0037    1.0173   
    16. A(H   3,C   0,H   4)          109.20  0.001282   -0.04    109.16   
    17. A(C   1,C   0,H   4)          110.37 -0.001761    0.35    110.73   
    18. A(C   1,C   0,H   2)          110.36 -0.000750    0.06    110.42   
    19. A(H   2,C   0,H   3)          108.54  0.001748   -0.39    108.15   
    20. A(H   2,C   0,H   4)          108.36  0.001774   -0.45    107.91   
    21. A(C   1,C   0,H   3)          109.96 -0.002156    0.45    110.41   
    22. A(C   0,C   1,C   5)          113.07 -0.009338    1.90    114.97   
    23. A(H   6,C   1,H   7)          107.57 -0.000231   -0.96    106.61   
    24. A(C   5,C   1,H   7)          108.95  0.003029   -0.26    108.69   
    25. A(C   0,C   1,H   7)          109.44  0.001456    0.12    109.56   
    26. A(C   5,C   1,H   6)          108.51  0.002481   -0.43    108.08   
    27. A(C   0,C   1,H   6)          109.15  0.002996   -0.51    108.64   
    28. A(C   8,C   5,H   9)          109.11  0.002211   -0.04    109.07   
    29. A(C   1,C   5,H   9)          109.35  0.001947    0.07    109.41   
    30. A(C   1,C   5,C   8)          114.22 -0.008974    1.86    116.08   
    31. A(H   9,C   5,H  10)          107.75  0.000024   -1.06    106.69   
    32. A(C   8,C   5,H  10)          107.54  0.003262   -0.68    106.87   
    33. A(C   1,C   5,H  10)          108.67  0.001958   -0.33    108.34   
    34. A(H  12,C   8,H  13)          107.46  0.000636   -0.75    106.71   
    35. A(N  11,C   8,H  13)          107.44 -0.000321    0.27    107.71   
    36. A(C   5,C   8,H  13)          109.34  0.002207   -0.46    108.88   
    37. A(N  11,C   8,H  12)          112.22  0.000778    0.09    112.31   
    38. A(C   5,C   8,H  12)          108.06  0.000941   -0.12    107.94   
    39. A(C   5,C   8,N  11)          112.19 -0.003996    0.89    113.08   
    40. A(H  14,N  11,H  15)          107.72  0.002540   -0.55    107.16   
    41. A(C   8,N  11,H  15)          109.82 -0.002682    0.42    110.24   
    42. A(C   8,N  11,H  14)          109.62 -0.001995    0.30    109.92   
    43. D(H   6,C   1,C   0,H   4)     61.34  0.001724   -1.42     59.92   
    44. D(C   5,C   1,C   0,H   3)    -57.26 -0.000094   -0.61    -57.86   
    45. D(H   7,C   1,C   0,H   3)     64.39 -0.001493    0.43     64.82   
    46. D(H   6,C   1,C   0,H   2)    -58.42  0.001124   -1.12    -59.54   
    47. D(C   5,C   1,C   0,H   4)   -177.79  0.000830   -1.07   -178.86   
    48. D(H   6,C   1,C   0,H   3)   -178.13  0.000799   -0.96   -179.08   
    49. D(H   7,C   1,C   0,H   4)    -56.14 -0.000568   -0.04    -56.18   
    50. D(C   5,C   1,C   0,H   2)     62.46  0.000230   -0.77     61.69   
    51. D(H   7,C   1,C   0,H   2)   -175.90 -0.001168    0.27   -175.63   
    52. D(H   9,C   5,C   1,H   6)     71.71 -0.000138    1.43     73.14   
    53. D(C   8,C   5,C   1,H   7)    -48.88  0.000664    1.21    -47.67   
    54. D(C   8,C   5,C   1,H   6)   -165.72 -0.002099    2.74   -162.98   
    55. D(C   8,C   5,C   1,C   0)     73.04 -0.001564    2.45     75.49   
    56. D(H   9,C   5,C   1,H   7)   -171.45  0.002625   -0.10   -171.55   
    57. D(H  10,C   5,C   1,H   7)     71.18  0.000384    1.32     72.50   
    58. D(H  10,C   5,C   1,H   6)    -45.66 -0.002379    2.85    -42.81   
    59. D(H  10,C   5,C   1,C   0)   -166.90 -0.001844    2.56   -164.33   
    60. D(H   9,C   5,C   1,C   0)    -49.53  0.000396    1.14    -48.39   
    61. D(H  13,C   8,C   5,H   9)    169.99 -0.002902    1.24    171.23   
    62. D(H  13,C   8,C   5,C   1)     47.29 -0.000823   -0.12     47.17   
    63. D(H  12,C   8,C   5,H  10)     43.28  0.002547   -1.61     41.66   
    64. D(H  12,C   8,C   5,H   9)    -73.33 -0.000427    0.02    -73.31   
    65. D(H  12,C   8,C   5,C   1)    163.97  0.001652   -1.34    162.63   
    66. D(N  11,C   8,C   5,H  10)    167.51  0.001524   -0.99    166.52   
    67. D(N  11,C   8,C   5,H   9)     50.91 -0.001450    0.65     51.55   
    68. D(H  13,C   8,C   5,H  10)    -73.40  0.000073   -0.40    -73.80   
    69. D(N  11,C   8,C   5,C   1)    -71.80  0.000629   -0.71    -72.51   
    70. D(H  15,N  11,C   8,C   5)   -178.43  0.000358   -0.28   -178.71   
    71. D(H  14,N  11,C   8,H  13)    179.53  0.000540   -0.66    178.87   
    72. D(H  14,N  11,C   8,H  12)     61.62 -0.000480    0.04     61.66   
    73. D(H  14,N  11,C   8,C   5)    -60.27  0.000657   -0.52    -60.80   
    74. D(H  15,N  11,C   8,H  13)     61.37  0.000241   -0.42     60.95   
    75. D(H  15,N  11,C   8,H  12)    -56.54 -0.000778    0.28    -56.26   
    ----------------------------------------------------------------------------

         *************************************************************
         *                GEOMETRY OPTIMIZATION CYCLE   2            *
         *************************************************************
---------------------------------
CARTESIAN COORDINATES (ANGSTROEM)
---------------------------------
  C     -1.668053    0.855135    0.444348
  C     -1.306508   -0.555498   -0.026046
  H     -1.825828    1.520341   -0.420454
  H     -0.858208    1.274235    1.054679
  H     -2.597187    0.842581    1.036034
  C     -0.006441   -0.654547   -0.840645
  H     -2.131241   -0.941691   -0.649064
  H     -1.228963   -1.227280    0.846369
  C      1.298020   -0.555838   -0.042128
  H     -0.006791    0.120953   -1.628447
  H      0.006810   -1.629412   -1.355920
  N      1.572366    0.794099    0.441148
  H      2.118678   -0.951003   -0.677452
  H      1.229580   -1.219651    0.836920
  H      1.661123    1.433625   -0.346909
  H      2.455669    0.814674    0.945436

----------------------------
CARTESIAN COORDINATES (A.U.)
----------------------------
  NO LB      ZA    FRAG     MASS         X           Y           Z
   0 C     6.0000    0    12.011   -3.152163    1.615971    0.839695
   1 C     6.0000    0    12.011   -2.468942   -1.049739   -0.049221
   2 H     1.0000    0     1.008   -3.450315    2.873027   -0.794543
   3 H     1.0000    0     1.008   -1.621779    2.407955    1.993054
   4 H     1.0000    0     1.008   -4.907972    1.592246    1.957821
   5 C     6.0000    0    12.011   -0.012171   -1.236914   -1.588588
   6 H     1.0000    0     1.008   -4.027462   -1.779538   -1.226552
   7 H     1.0000    0     1.008   -2.322403   -2.319223    1.599406
   8 C     6.0000    0    12.011    2.452902   -1.050381   -0.079611
   9 H     1.0000    0     1.008   -0.012833    0.228567   -3.077319
  10 H     1.0000    0     1.008    0.012869   -3.079142   -2.562317
  11 N     7.0000    0    14.007    2.971342    1.500630    0.833648
  12 H     1.0000    0     1.008    4.003722   -1.797135   -1.280198
  13 H     1.0000    0     1.008    2.323570   -2.304807    1.581550
  14 H     1.0000    0     1.008    3.139067    2.709158   -0.655563
  15 H     1.0000    0     1.008    4.640543    1.539511    1.786615

--------------------------------
INTERNAL COORDINATES (ANGSTROEM)
--------------------------------
 C      0   0   0     0.000000000000     0.00000000     0.00000000
 C      1   0   0     1.530317124704     0.00000000     0.00000000
 H      1   2   0     1.102394109964   110.42032024     0.00000000
 H      1   2   3     1.097268086349   110.40675441   240.45177238
 H      1   2   3     1.101608374424   110.72357203   119.45181866
 C      2   1   3     1.537385943977   114.96368282    61.68290507
 H      2   1   3     1.103395063676   108.63882856   300.46502426
 H      2   1   3     1.103817718269   109.55152160   184.37279315
 C      6   2   1     1.532640983821   116.07366445    75.49660058
 H      6   2   1     1.105455592314   109.39866032   311.61085480
 H      6   2   1     1.102744509492   108.34281071   195.66605658
 N      9   6   2     1.459846706860   113.07789857   287.49014458
 H      9   6   2     1.110527785360   107.93753415   162.62951301
 H      9   6   2     1.103656853297   108.87223019    47.16352951
 H     12   9   6     1.018775562846   109.92411118   299.20464714
 H     12   9   6     1.017327061605   110.24109077   181.28661352

---------------------------
INTERNAL COORDINATES (A.U.)
---------------------------
 C      0   0   0     0.000000000000     0.00000000     0.00000000
 C      1   0   0     2.891880263740     0.00000000     0.00000000
 H      1   2   0     2.083222959481   110.42032024     0.00000000
 H      1   2   3     2.073536178692   110.40675441   240.45177238
 H      1   2   3     2.081738134496   110.72357203   119.45181866
 C      2   1   3     2.905238396257   114.96368282    61.68290507
 H      2   1   3     2.085114487868   108.63882856   300.46502426
 H      2   1   3     2.085913189298   109.55152160   184.37279315
 C      6   2   1     2.896271721046   116.07366445    75.49660058
 H      6   2   1     2.089008322685   109.39866032   311.61085480
 H      6   2   1     2.083885118625   108.34281071   195.66605658
 N      9   6   2     2.758710473471   113.07789857   287.49014458
 H      9   6   2     2.098593378440   107.93753415   162.62951301
 H      9   6   2     2.085609198557   108.87223019    47.16352951
 H     12   9   6     1.925206805710   109.92411118   299.20464714
 H     12   9   6     1.922469535061   110.24109077   181.28661352



           ************************************************************
           *        Program running with 4 parallel MPI-processes     *
           *              working on a common directory               *
           ************************************************************
------------------------------------------------------------------------------
                   ___                                                        
                  /   \      - P O W E R E D   B Y -                         
                 /     \                                                     
                 |  |  |   _    _      __       _____    __    __             
                 |  |  |  | |  | |    /  \     |  _  \  |  |  /  |          
                  \  \/   | |  | |   /    \    | | | |  |  | /  /          
                 / \  \   | |__| |  /  /\  \   | |_| |  |  |/  /          
                |  |  |   |  __  | /  /__\  \  |    /   |      \           
                |  |  |   | |  | | |   __   |  |    \   |  |\   \          
                \     /   | |  | | |  |  |  |  | |\  \  |  | \   \       
[...]
     37       0.106088  -0.055399   0.085670   0.090349   0.573377   0.146032
     38       0.340857  -0.084670   0.036704  -0.060849  -0.345148  -0.038474
     39       0.465287  -0.058546   0.050154  -0.103294  -0.427874  -0.067622
     40       0.319168  -0.028316   0.092701   0.029745   0.345945   0.096917
     41       0.235071  -0.018819   0.083583   0.038012   0.380959   0.099410
     42      -0.054157   0.035986  -0.009652  -0.002695   0.022132   0.003450
     43      -0.158005   0.031583  -0.014734   0.008270   0.012247  -0.018516
     44      -0.124990   0.032806  -0.009894   0.006045   0.021069  -0.016804
     45      -0.014032   0.011717  -0.000242   0.002524   0.006887  -0.004616
     46       0.255236   0.001009   0.047735  -0.021810   0.061897   0.021815
     47       0.110246  -0.033911   0.016268  -0.006554   0.003006   0.017320
                 36         37         38         39         40         41    
      0       0.000921   0.000371  -0.000667  -0.018567  -0.014543   0.000177
      1      -0.000122  -0.000306   0.003343   0.031072   0.037689  -0.000050
      2      -0.000970  -0.000124  -0.000669   0.000096  -0.004778   0.000574
      3      -0.000536  -0.000149  -0.006721   0.026673  -0.019922  -0.003927
      4       0.000466   0.000306  -0.005078   0.039502  -0.039668   0.002064
      5       0.000140   0.000220  -0.005877  -0.016208   0.019610  -0.008032
      6      -0.009816  -0.000599   0.006353   0.072216   0.087064  -0.000919
      7      -0.004106   0.002325  -0.023190  -0.251427  -0.292233   0.002422
      8      -0.000580  -0.002858   0.039807   0.383146   0.443436  -0.003302
      9      -0.004966  -0.000507  -0.024293  -0.209127  -0.234281  -0.004741
     10      -0.006227   0.001009  -0.013936  -0.115898  -0.131940  -0.002688
     11       0.011045   0.001024  -0.017525  -0.146443  -0.168468  -0.002704
     12       0.001872  -0.003677   0.023721   0.351451   0.313759   0.003471
     13       0.008562   0.000323   0.001437   0.003001  -0.002877   0.000209
     14       0.001530   0.003092  -0.016741  -0.234532  -0.211284  -0.001760
     15       0.007805  -0.000687   0.002453  -0.000666   0.000925  -0.000484
     16      -0.001967   0.001843  -0.016414  -0.008293   0.009659   0.018798
     17       0.003069   0.006480   0.069868   0.001013  -0.006362   0.009903
     18      -0.002258   0.000005   0.091986  -0.373991   0.302032   0.038866
     19       0.002816  -0.001157   0.051805  -0.197058   0.161200   0.022302
     20       0.001073  -0.001117   0.065844  -0.251607   0.205928   0.024495
     21       0.005121  -0.000138  -0.002189   0.068835  -0.069259   0.012545
     22      -0.000430  -0.001334  -0.001932  -0.278889   0.288913  -0.044141
     23      -0.001034   0.000982   0.000182   0.437070  -0.444788   0.065569
     24      -0.020415   0.060020  -0.005996  -0.000061   0.000847  -0.013571
     25       0.009770  -0.030058   0.008475  -0.000454  -0.000695  -0.049459
     26       0.016439  -0.035722  -0.005289  -0.000146   0.000585   0.068419
     27      -0.014345  -0.000853  -0.018301  -0.002522   0.001242  -0.002351
     28      -0.027040   0.054020   0.602035   0.038123  -0.083069  -0.000188
     29      -0.013514  -0.053921  -0.626237  -0.041277   0.090297   0.004371
     30      -0.026750   0.003886  -0.007002   0.002246  -0.003715  -0.000694
     31       0.018796  -0.071839  -0.398394   0.062906  -0.033781  -0.223344
     32      -0.035759  -0.032484  -0.193162   0.031725  -0.015946  -0.115143
     33      -0.034774  -0.000643   0.000084   0.000252   0.000164   0.000004
     34      -0.070066  -0.001454  -0.000147   0.000052   0.000070   0.001313
     35      -0.020549  -0.000802   0.000090   0.000073  -0.000092  -0.001093
     36       0.001531  -0.710765   0.055967  -0.002040  -0.007541   0.166459
     37       0.026528   0.226840  -0.014360   0.000770   0.001949  -0.058761
     38       0.046062   0.611337  -0.043473   0.003341   0.004232  -0.129866
     39       0.020085   0.014901  -0.000712   0.002011  -0.001233  -0.000520
     40      -0.050621   0.150036  -0.093660   0.001021   0.009419   0.637647
     41      -0.043175  -0.169750   0.099626  -0.000407  -0.010599  -0.681940
     42       0.529690  -0.006024   0.003467  -0.000435  -0.000452  -0.002174
     43       0.281073   0.002519   0.004498   0.000107  -0.001154  -0.007131
     44       0.370231  -0.003824  -0.000273   0.000225   0.000608   0.012810
     45       0.128727   0.003057   0.000080  -0.000065  -0.000345   0.002155
     46       0.627188  -0.006340   0.003001  -0.000092  -0.000632  -0.003230
     47      -0.272902   0.005956  -0.000804  -0.000601  -0.000024  -0.001724
                 42         43         44         45         46         47    
      0       0.001416   0.001906  -0.032599  -0.082615  -0.000090   0.000077
      1       0.001244   0.001867  -0.023437  -0.021911  -0.000040   0.000027
      2       0.014288  -0.001566   0.082608  -0.036182  -0.000078   0.000029
      3      -0.053036  -0.009669   0.004963  -0.005967  -0.000007   0.000008
      4       0.003245  -0.007167  -0.004527  -0.001071   0.000062   0.000056
      5      -0.073987  -0.003190   0.012030  -0.006020   0.000001  -0.000057
      6      -0.010968   0.002453  -0.115375   0.027689  -0.000034   0.000122
      7       0.038239  -0.008844   0.358861  -0.122793  -0.000003  -0.000016
      8      -0.060586   0.015894  -0.535656   0.179183  -0.000037   0.000095
      9      -0.089506  -0.011043  -0.107487   0.653008   0.002253  -0.000029
     10      -0.050336  -0.005857  -0.064333   0.383828   0.000545  -0.000064
     11      -0.059786  -0.007428  -0.059380   0.465980   0.000705  -0.000589
     12       0.082040  -0.016335   0.608025   0.314820  -0.000356  -0.000223
     13      -0.001663  -0.000282  -0.009426  -0.002939  -0.000104  -0.000116
     14      -0.049858   0.010009  -0.389082  -0.212288  -0.000010   0.000023
     15      -0.000076  -0.000407   0.000282   0.000256  -0.000181   0.000309
     16       0.008423  -0.087942  -0.002714  -0.000571  -0.000028  -0.000215
     17      -0.008215  -0.007023   0.000769  -0.000322   0.000198   0.000262
     18       0.558239   0.115174  -0.045751   0.061482  -0.000109  -0.000134
     19       0.306362   0.063310  -0.025481   0.037258  -0.000168  -0.000167
     20       0.363519   0.074229  -0.030868   0.042047  -0.000031   0.000054
     21       0.069902  -0.003365  -0.015990   0.005173   0.000000  -0.000101
     22      -0.347179   0.016701   0.072858  -0.020153  -0.000030  -0.000246
     23       0.522803  -0.030162  -0.107423   0.029565   0.000133   0.000327
     24       0.001997  -0.000079  -0.000144   0.000361   0.001535  -0.000543
     25       0.004872  -0.013465  -0.000669  -0.000022  -0.001360   0.001281
     26      -0.006993   0.014684   0.000825  -0.000171  -0.002968  -0.000779
     27       0.001071  -0.010480   0.001726  -0.000393   0.001182   0.001141
     28      -0.088576   0.292399   0.016893  -0.000271   0.001919   0.001348
     29       0.093231  -0.320935  -0.020462   0.000109  -0.001114   0.000044
     30      -0.000203   0.012440  -0.000373  -0.000187   0.000924  -0.000795
     31      -0.008928   0.756536   0.015566   0.005281  -0.000543  -0.000110
     32      -0.004633   0.394659   0.007135   0.002954   0.000443   0.000107
     33       0.000145  -0.000032   0.000109  -0.000845   0.037784  -0.044943
     34      -0.000171   0.000658   0.000037  -0.000067   0.042157   0.029147
     35       0.000184  -0.000219  -0.000070  -0.000094  -0.014167  -0.060227
     36      -0.022297   0.009400   0.001364  -0.002133  -0.006720   0.000563
     37       0.006092  -0.003084  -0.000076   0.000439  -0.001873   0.000164
     38       0.017889  -0.008005  -0.001392   0.001620   0.004196   0.000747
     39       0.002939  -0.001762  -0.000932   0.000047  -0.000437   0.000343
     40      -0.063684   0.151422   0.008402  -0.000254  -0.004415  -0.007023
     41       0.068922  -0.163651  -0.009108   0.000117   0.008140   0.007176
     42      -0.000725   0.001787   0.000987   0.000493  -0.035027  -0.053256
     43       0.000035   0.000470  -0.000454   0.000824  -0.565832  -0.425285
     44      -0.001364   0.003586   0.000541  -0.000996   0.556104   0.419191
     45      -0.000307   0.000464  -0.000053  -0.000094  -0.501692   0.678640
     46       0.000104  -0.000429   0.000202   0.000636   0.000973   0.012798
     47      -0.000125   0.000241   0.000008   0.001753  -0.337751   0.416238


-----------
IR SPECTRUM
-----------

 Mode   freq       eps      Int      T**2         TX        TY        TZ
       cm**-1   L/(mol*cm) km/mol    a.u.
----------------------------------------------------------------------------
  6:     46.02   0.000107    0.54  0.000727  (-0.003076  0.026684  0.002448)
  7:    155.39   0.000832    4.20  0.001670  (-0.016781  0.029779 -0.022404)
  8:    248.36   0.003383   17.09  0.004250  (-0.047694  0.010096 -0.043286)
  9:    265.54   0.004876   24.64  0.005730  ( 0.043430 -0.017128  0.059587)
 10:    313.84   0.000181    0.92  0.000180  ( 0.000429  0.002902  0.013097)
 11:    356.00   0.000542    2.74  0.000475  ( 0.005025  0.005562  0.020474)
 12:    489.20   0.001530    7.73  0.000976  (-0.016815 -0.011102 -0.023876)
 13:    766.46   0.001336    6.75  0.000544  (-0.015616 -0.003902 -0.016883)
 14:    811.69   0.015942   80.56  0.006129  (-0.036299  0.048333  0.049753)
 15:    836.18   0.001534    7.75  0.000572  ( 0.001170  0.009006  0.022135)
 16:    893.76   0.007500   37.90  0.002619  (-0.034167  0.025394  0.028400)
 17:    958.19   0.000171    0.86  0.000056  ( 0.005239  0.004102 -0.003372)
 18:    979.25   0.002176   11.00  0.000693  ( 0.012515 -0.018408 -0.014069)
 19:   1061.77   0.001261    6.37  0.000371  (-0.011054  0.008548  0.013238)
 20:   1077.62   0.000258    1.30  0.000075  ( 0.001476 -0.006723 -0.005231)
 21:   1140.50   0.000125    0.63  0.000034  (-0.001029  0.001917  0.005437)
 22:   1164.38   0.002414   12.20  0.000647  (-0.004145 -0.020627 -0.014298)
 23:   1209.06   0.000217    1.09  0.000056  ( 0.004974  0.005576 -0.000258)
 24:   1292.46   0.000859    4.34  0.000207  ( 0.012418  0.007230 -0.000989)
 25:   1296.65   0.000576    2.91  0.000139  ( 0.009119 -0.005261 -0.005283)
 26:   1333.96   0.000295    1.49  0.000069  (-0.000639  0.008244  0.000748)
 27:   1364.38   0.000302    1.53  0.000069  ( 0.005750  0.005329  0.002773)
 28:   1403.37   0.000443    2.24  0.000099  ( 0.009884  0.000490  0.000768)
 29:   1415.27   0.001930    9.75  0.000426  ( 0.012561 -0.015607 -0.004922)
 30:   1440.25   0.001800    9.10  0.000390  (-0.006083 -0.016626 -0.008750)
 31:   1458.10   0.000838    4.23  0.000179  ( 0.001917  0.004455  0.012483)
 32:   1466.91   0.000736    3.72  0.000157  (-0.007496 -0.009871  0.001746)
 33:   1473.48   0.001771    8.95  0.000375  (-0.003221 -0.002914 -0.018873)
 34:   1496.11   0.000425    2.15  0.000089  (-0.003778  0.000003 -0.008626)
 35:   1498.50   0.001375    6.95  0.000286  (-0.014181 -0.006067  0.006964)
 36:   1639.70   0.005860   29.61  0.001115  ( 0.022416  0.024226 -0.005081)
 37:   2985.93   0.017837   90.14  0.001864  ( 0.031724 -0.023826 -0.017032)
 38:   3046.31   0.005852   29.57  0.000599  (-0.007534 -0.000427  0.023292)
 39:   3056.41   0.007312   36.95  0.000747  (-0.001074  0.026852 -0.004934)
 40:   3059.96   0.004218   21.32  0.000430  (-0.020583  0.001660  0.001936)
 41:   3088.55   0.005748   29.05  0.000581  (-0.005697 -0.009018  0.021610)
 42:   3108.52   0.007204   36.41  0.000723  (-0.016872  0.004425 -0.020469)
 43:   3111.26   0.008588   43.40  0.000861  (-0.001117 -0.029327  0.000123)
 44:   3145.87   0.007533   38.07  0.000747  (-0.010461 -0.007594  0.024086)
 45:   3189.98   0.001050    5.31  0.000103  (-0.008885 -0.001636 -0.004596)
 46:   3558.19   0.000181    0.91  0.000016  (-0.003836 -0.000420  0.000969)
 47:   3644.70   0.000495    2.50  0.000042  ( 0.003344 -0.002375  0.005056)

* The epsilon (eps) is given for a Dirac delta lineshape.
** The dipole moment derivative (T) already includes vibrational overlap.

The first frequency considered to be a vibration is 6
The total number of vibrations considered is 42


--------------------------
THERMOCHEMISTRY AT 298.15K
--------------------------

Temperature         ... 298.15 K
Pressure            ... 1.00 atm
Total Mass          ... 73.14 AMU

Throughout the following assumptions are being made:
  (1) The electronic state is orbitally nondegenerate
  (2) There are no thermally accessible electronically excited states
  (3) Hindered rotations indicated by low frequency modes are not
      treated as such but are treated as vibrations and this may
      cause some error
  (4) All equations used are the standard statistical mechanics
      equations for an ideal gas
  (5) All vibrations are strictly harmonic

freq.      46.02  E(vib)   ...       0.53 
freq.     155.39  E(vib)   ...       0.40 
freq.     248.36  E(vib)   ...       0.31 
freq.     265.54  E(vib)   ...       0.29 
freq.     313.84  E(vib)   ...       0.25 
freq.     356.00  E(vib)   ...       0.22 
freq.     489.20  E(vib)   ...       0.15 
freq.     766.46  E(vib)   ...       0.06 
freq.     811.69  E(vib)   ...       0.05 
freq.     836.18  E(vib)   ...       0.04 
freq.     893.76  E(vib)   ...       0.03 
freq.     958.19  E(vib)   ...       0.03 
freq.     979.25  E(vib)   ...       0.03 
freq.    1061.77  E(vib)   ...       0.02 
freq.    1077.62  E(vib)   ...       0.02 
freq.    1140.50  E(vib)   ...       0.01 
freq.    1164.38  E(vib)   ...       0.01 
freq.    1209.06  E(vib)   ...       0.01 
freq.    1292.46  E(vib)   ...       0.01 
freq.    1296.65  E(vib)   ...       0.01 
freq.    1333.96  E(vib)   ...       0.01 
freq.    1364.38  E(vib)   ...       0.01 
freq.    1403.37  E(vib)   ...       0.00 
freq.    1415.27  E(vib)   ...       0.00 
freq.    1440.25  E(vib)   ...       0.00 
freq.    1458.10  E(vib)   ...       0.00 
freq.    1466.91  E(vib)   ...       0.00 
freq.    1473.48  E(vib)   ...       0.00 
freq.    1496.11  E(vib)   ...       0.00 
freq.    1498.50  E(vib)   ...       0.00 
freq.    1639.70  E(vib)   ...       0.00 
freq.    2985.93  E(vib)   ...       0.00 
freq.    3046.31  E(vib)   ...       0.00 
freq.    3056.41  E(vib)   ...       0.00 
freq.    3059.96  E(vib)   ...       0.00 
freq.    3088.55  E(vib)   ...       0.00 
freq.    3108.52  E(vib)   ...       0.00 
freq.    3111.26  E(vib)   ...       0.00 
freq.    3145.87  E(vib)   ...       0.00 
freq.    3189.98  E(vib)   ...       0.00 
freq.    3558.19  E(vib)   ...       0.00 
freq.    3644.70  E(vib)   ...       0.00 

------------
INNER ENERGY
------------

The inner energy is: U= E(el) + E(ZPE) + E(vib) + E(rot) + E(trans)
    E(el)   - is the total energy from the electronic structure calculation
              = E(kin-el) + E(nuc-el) + E(el-el) + E(nuc-nuc)
    E(ZPE)  - the the zero temperature vibrational energy from the frequency calculation
    E(vib)  - the the finite temperature correction to E(ZPE) due to population
              of excited vibrational states
    E(rot)  - is the rotational thermal energy
    E(trans)- is the translational thermal energy

Summary of contributions to the inner energy U:
Electronic energy                ...   -213.58950775 Eh
Zero point energy                ...      0.15115187 Eh      94.85 kcal/mol
Thermal vibrational correction   ...      0.00399658 Eh       2.51 kcal/mol
Thermal rotational correction    ...      0.00141627 Eh       0.89 kcal/mol
Thermal translational correction ...      0.00141627 Eh       0.89 kcal/mol
-----------------------------------------------------------------------
Total thermal energy                   -213.43152675 Eh


Summary of corrections to the electronic energy:
(perhaps to be used in another calculation)
Total thermal correction                  0.00682912 Eh       4.29 kcal/mol
Non-thermal (ZPE) correction              0.15115187 Eh      94.85 kcal/mol
-----------------------------------------------------------------------
Total correction                          0.15798099 Eh      99.13 kcal/mol


--------
ENTHALPY
--------

The enthalpy is H = U + kB*T
                kB is Boltzmann's constant
Total free energy                 ...   -213.43152675 Eh 
Thermal Enthalpy correction       ...      0.00094421 Eh       0.59 kcal/mol
-----------------------------------------------------------------------
Total Enthalpy                    ...   -213.43058254 Eh


Note: Only C1 symmetry has been detected, increase convergence thresholds 
      if your molecule has a higher symmetry. Symmetry factor of 1.0 is   
      used for the rotational entropy correction. 
 

Note: Rotational entropy computed according to Herzberg 
Infrared and Raman Spectra, Chapter V,1, Van Nostrand Reinhold, 1945 
Point Group:  C1, Symmetry Number:   1  
Rotational constants in cm-1:     0.242944     0.113079     0.086752 

Vibrational entropy computed according to the QRRHO of S. Grimme
Chem.Eur.J. 2012 18 9955


-------
ENTROPY
-------

The entropy contributions are T*S = T*(S(el)+S(vib)+S(rot)+S(trans))
     S(el)   - electronic entropy
     S(vib)  - vibrational entropy
     S(rot)  - rotational entropy
     S(trans)- translational entropy
The entropies will be listed as multiplied by the temperature to get
units of energy

Electronic entropy                ...      0.00000000 Eh      0.00 kcal/mol
Vibrational entropy               ...      0.00678901 Eh      4.26 kcal/mol
Rotational entropy                ...      0.01236190 Eh      7.76 kcal/mol
Translational entropy             ...      0.01842822 Eh     11.56 kcal/mol
-----------------------------------------------------------------------
Final entropy term                ...      0.03757914 Eh     23.58 kcal/mol

In case the symmetry of your molecule has not been determined correctly
or in case you have a reason to use a different symmetry number we print 
out the resulting rotational entropy values for sn=1,12 :
 --------------------------------------------------------
|  sn= 1 | S(rot)=       0.01236190 Eh      7.76 kcal/mol|
|  sn= 2 | S(rot)=       0.01170745 Eh      7.35 kcal/mol|
|  sn= 3 | S(rot)=       0.01132461 Eh      7.11 kcal/mol|
|  sn= 4 | S(rot)=       0.01105299 Eh      6.94 kcal/mol|
|  sn= 5 | S(rot)=       0.01084230 Eh      6.80 kcal/mol|
|  sn= 6 | S(rot)=       0.01067016 Eh      6.70 kcal/mol|
|  sn= 7 | S(rot)=       0.01052461 Eh      6.60 kcal/mol|
|  sn= 8 | S(rot)=       0.01039853 Eh      6.53 kcal/mol|
|  sn= 9 | S(rot)=       0.01028732 Eh      6.46 kcal/mol|
|  sn=10 | S(rot)=       0.01018785 Eh      6.39 kcal/mol|
|  sn=11 | S(rot)=       0.01009786 Eh      6.34 kcal/mol|
|  sn=12 | S(rot)=       0.01001570 Eh      6.28 kcal/mol|
 --------------------------------------------------------


-------------------
GIBBS FREE ENERGY
-------------------

The Gibbs free energy is G = H - T*S

Total enthalpy                    ...   -213.43058254 Eh 
Total entropy correction          ...     -0.03757914 Eh    -23.58 kcal/mol
-----------------------------------------------------------------------
Final Gibbs free energy         ...   -213.46816168 Eh

For completeness - the Gibbs free energy minus the electronic energy
G-E(el)                           ...      0.12134607 Eh     76.15 kcal/mol


Timings for individual modules:

Sum of individual times         ...      287.581 sec (=   4.793 min)
GTO integral calculation        ...        4.913 sec (=   0.082 min)   1.7 %
SCF iterations                  ...      165.819 sec (=   2.764 min)  57.7 %
SCF Gradient evaluation         ...       43.234 sec (=   0.721 min)  15.0 %
Geometry relaxation             ...        0.328 sec (=   0.005 min)   0.1 %
Analytical frequency calculation...       73.287 sec (=   1.221 min)  25.5 %
                             ****ORCA TERMINATED NORMALLY****
TOTAL RUN TIME: 0 days 0 hours 4 minutes 50 seconds 814 msec
