
                                 *****************
                                 * O   R   C   A *
                                 *****************

                                            #,                                       
                                            ###                                      
                                            ####                                     
                                            #####                                    
                                            ######                                   
                                           ########,                                 
                                     ,,################,,,,,                         
                               ,,#################################,,                 
                          ,,##########################################,,             
                       ,#########################################, ''#####,          
                    ,#############################################,,   '####,        
                  ,##################################################,,,,####,       
                ,###########''''           ''''###############################       
              ,#####''   ,,,,##########,,,,          '''####'''          '####       
            ,##' ,,,,###########################,,,                        '##       
           ' ,,###''''                  '''############,,,                           
         ,,##''                                '''############,,,,        ,,,,,,###''
      ,#''                                            '''#######################'''  
     '                                                          ''''####''''         
             ,#######,   #######,   ,#######,      ##                                
            ,#'     '#,  ##    ##  ,#'     '#,    #''#        ######   ,####,        
            ##       ##  ##   ,#'  ##            #'  '#       #        #'  '#        
            ##       ##  #######   ##           ,######,      #####,   #    #        
            '#,     ,#'  ##    ##  '#,     ,#' ,#      #,         ##   #,  ,#        
             '#######'   ##     ##  '#######'  #'      '#     #####' # '####'        



                  #######################################################
                  #                        -***-                        #
                  #          Department of theory and spectroscopy      #
                  #    Directorship and core code : Frank Neese         #
                  #        Max Planck Institute fuer Kohlenforschung    #
                  #                Kaiser Wilhelm Platz 1               #
                  #                 D-45470 Muelheim/Ruhr               #
                  #                      Germany                        #
                  #                                                     #
                  #                  All rights reserved                #
                  #                        -***-                        #
                  #######################################################


                         Program Version 5.0.4 -  RELEASE  -


 With contributions from (in alphabetic order):
   Daniel Aravena         : Magnetic Suceptibility
   Michael Atanasov       : Ab Initio Ligand Field Theory (pilot matlab implementation)
   Alexander A. Auer      : GIAO ZORA, VPT2 properties, NMR spectrum
   Ute Becker             : Parallelization
   Giovanni Bistoni       : ED, misc. LED, open-shell LED, HFLD
   Martin Brehm           : Molecular dynamics
   Dmytro Bykov           : SCF Hessian
   Vijay G. Chilkuri      : MRCI spin determinant printing, contributions to CSF-ICE
   Dipayan Datta          : RHF DLPNO-CCSD density
   Achintya Kumar Dutta   : EOM-CC, STEOM-CC
   Dmitry Ganyushin       : Spin-Orbit,Spin-Spin,Magnetic field MRCI
   Miquel Garcia          : C-PCM and meta-GGA Hessian, CC/C-PCM, Gaussian charge scheme
   Yang Guo               : DLPNO-NEVPT2, F12-NEVPT2, CIM, IAO-localization
   Andreas Hansen         : Spin unrestricted coupled pair/coupled cluster methods
   Benjamin Helmich-Paris : MC-RPA, TRAH-SCF, COSX integrals
   Lee Huntington         : MR-EOM, pCC
   Robert Izsak           : Overlap fitted RIJCOSX, COSX-SCS-MP3, EOM
   Marcus Kettner         : VPT2
   Christian Kollmar      : KDIIS, OOCD, Brueckner-CCSD(T), CCSD density, CASPT2, CASPT2-K
   Simone Kossmann        : Meta GGA functionals, TD-DFT gradient, OOMP2, MP2 Hessian
   Martin Krupicka        : Initial AUTO-CI
   Lucas Lang             : DCDCAS
   Marvin Lechner         : AUTO-CI (C++ implementation), FIC-MRCC
   Dagmar Lenk            : GEPOL surface, SMD
   Dimitrios Liakos       : Extrapolation schemes; Compound Job, initial MDCI parallelization
   Dimitrios Manganas     : Further ROCIS development; embedding schemes
   Dimitrios Pantazis     : SARC Basis sets
   Anastasios Papadopoulos: AUTO-CI, single reference methods and gradients
   Taras Petrenko         : DFT Hessian,TD-DFT gradient, ASA, ECA, R-Raman, ABS, FL, XAS/XES, NRVS
   Peter Pinski           : DLPNO-MP2, DLPNO-MP2 Gradient
   Christoph Reimann      : Effective Core Potentials
   Marius Retegan         : Local ZFS, SOC
   Christoph Riplinger    : Optimizer, TS searches, QM/MM, DLPNO-CCSD(T), (RO)-DLPNO pert. Triples
   Tobias Risthaus        : Range-separated hybrids, TD-DFT gradient, RPA, STAB
   Michael Roemelt        : Original ROCIS implementation
   Masaaki Saitow         : Open-shell DLPNO-CCSD energy and density
   Barbara Sandhoefer     : DKH picture change effects
   Avijit Sen             : IP-ROCIS
   Kantharuban Sivalingam : CASSCF convergence, NEVPT2, FIC-MRCI
   Bernardo de Souza      : ESD, SOC TD-DFT
   Georgi Stoychev        : AutoAux, RI-MP2 NMR, DLPNO-MP2 response
   Willem Van den Heuvel  : Paramagnetic NMR
   Boris Wezisla          : Elementary symmetry handling
   Frank Wennmohs         : Technical directorship


 We gratefully acknowledge several colleagues who have allowed us to
 interface, adapt or use parts of their codes:
   Stefan Grimme, W. Hujo, H. Kruse, P. Pracht,  : VdW corrections, initial TS optimization,
                  C. Bannwarth, S. Ehlert          DFT functionals, gCP, sTDA/sTD-DF
   Ed Valeev, F. Pavosevic, A. Kumar             : LibInt (2-el integral package), F12 methods
   Garnet Chan, S. Sharma, J. Yang, R. Olivares  : DMRG
   Ulf Ekstrom                                   : XCFun DFT Library
   Mihaly Kallay                                 : mrcc  (arbitrary order and MRCC methods)
   Jiri Pittner, Ondrej Demel                    : Mk-CCSD
   Frank Weinhold                                : gennbo (NPA and NBO analysis)
   Christopher J. Cramer and Donald G. Truhlar   : smd solvation model
   Lars Goerigk                                  : TD-DFT with DH, B97 family of functionals
   V. Asgeirsson, H. Jonsson                     : NEB implementation
   FAccTs GmbH                                   : IRC, NEB, NEB-TS, DLPNO-Multilevel, CI-OPT
                                                   MM, QMMM, 2- and 3-layer-ONIOM, Crystal-QMMM,
                                                   LR-CPCM, SF, NACMEs, symmetry and pop. for TD-DFT,
                                                   nearIR, NL-DFT gradient (VV10), updates on ESD,
                                                   ML-optimized integration grids
   S Lehtola, MJT Oliveira, MAL Marques          : LibXC Library
   Liviu Ungur et al                             : ANISO software


 Your calculation uses the libint2 library for the computation of 2-el integrals
 For citations please refer to: http://libint.valeyev.net

 Your ORCA version has been built with support for libXC version: 5.1.0
 For citations please refer to: https://tddft.org/programs/libxc/

 This ORCA versions uses:
   CBLAS   interface :  Fast vector & matrix operations
   LAPACKE interface :  Fast linear algebra routines
   SCALAPACK package :  Parallel linear algebra routines
   Shared memory     :  Shared parallel matrices
   BLAS/LAPACK       :  OpenBLAS 0.3.15  USE64BITINT DYNAMIC_ARCH NO_AFFINITY SkylakeX SINGLE_THREADED
        Core in use  :  SkylakeX
   Copyright (c) 2011-2014, The OpenBLAS Project




***************************************
The coordinates will be read from file: butylamine_deprot_aq_9.xyz
***************************************


Your calculation utilizes the atom-pairwise dispersion correction
based on tight binding partial charges (D4)
Cite in your paper:
E.Caldeweyher, C.Bannwarth, S.Grimme, J.Chem.Phys., (2017), 147, 034112.
E.Caldeweyher, S.Ehlert, A.Hansen, H.Neugebauer, S.Grimme, J.Chem.Phys., (2018), in progress.
   

XCFun DFT library Copyright 2009-2010 Ulf Ekstrom and contributors.
See http://admol.org/xcfun for more information.
This is free software; see the source code for copying conditions.
There is ABSOLUTELY NO WARRANTY; not even for MERCHANTABILITY or FITNESS FOR A PARTICULAR PURPOSE.
For details see the documentation.
Scientific users of this library should cite U. Ekstrom, L. Visscher, R. Bast, A. J. Thorvaldsen and K. Ruud;
J.Chem.Theor.Comp. 2010, DOI: 10.1021/ct100117s
XCFun Version 0.99 

================================================================================

----- Orbital basis set information -----
Your calculation utilizes the basis: def2-SVP
   F. Weigend and R. Ahlrichs, Phys. Chem. Chem. Phys. 7, 3297 (2005).

----- AuxJ basis set information -----
Your calculation utilizes the auxiliary basis: def2/J
   F. Weigend, Phys. Chem. Chem. Phys. 8, 1057 (2006).

================================================================================
                                        WARNINGS
                       Please study these warnings very carefully!
================================================================================


WARNING: Geometry Optimization
  ===> : Switching off AutoStart
         For restart on a previous wavefunction, please use MOREAD

INFO   : the flag for use of the SHARK integral package has been found!

================================================================================
                                       INPUT FILE
================================================================================
NAME = butylamine_deprot_aq_9.inp
|  1> # ORCA 5.0.4 - /users/bwb16179/postgrad/2024_06/pKa_Reviewer_Comments/CREST_Confs/butylamine/butylamine_deprot_aq_9.inp # write input file
|  2> # Basic Mode
|  3> #
|  4> ! Opt Freq wB97X Def2-SVP D4 SlowConv TightSCF Defgrid2 Def2/J RIJCOSX 
|  5> 
|  6> %PAL NPROCS 4 END
|  7> 
|  8> %maxcore 4500
|  9> 
| 10> %geom
| 11> Maxiter 150
| 12> END
| 13> 
| 14> * xyzfile 0 1 butylamine_deprot_aq_9.xyz
| 15> 
| 16>                          ****END OF INPUT****
================================================================================

                       *****************************
                       * Geometry Optimization Run *
                       *****************************

Geometry optimization settings:
Update method            Update   .... BFGS
Choice of coordinates    CoordSys .... Z-matrix Internals
Initial Hessian          InHess   .... Almoef's Model

Convergence Tolerances:
Energy Change            TolE     ....  5.0000e-06 Eh
Max. Gradient            TolMAXG  ....  3.0000e-04 Eh/bohr
RMS Gradient             TolRMSG  ....  1.0000e-04 Eh/bohr
Max. Displacement        TolMAXD  ....  4.0000e-03 bohr
RMS Displacement         TolRMSD  ....  2.0000e-03 bohr
Strict Convergence                ....  False
------------------------------------------------------------------------------
                        ORCA OPTIMIZATION COORDINATE SETUP
------------------------------------------------------------------------------

The optimization will be done in new redundant internal coordinates
Making redundant internal coordinates   ...  (new redundants) done
Evaluating the initial hessian          ...  (Almloef) done
Evaluating the coordinates              ...  done
Calculating the B-matrix                .... done
Calculating the G-matrix                .... done
Diagonalizing the G-matrix              .... done
Small eigenvalue found = 2.690e-02
The first mode is                       ....   33
The number of degrees of freedom        ....   42

    -----------------------------------------------------------------
                    Redundant Internal Coordinates


    -----------------------------------------------------------------
         Definition                    Initial Value    Approx d2E/dq
    -----------------------------------------------------------------
      1. B(C   1,C   0)                  1.5251         0.380416   
      2. B(H   2,C   0)                  1.0875         0.363378   
      3. B(H   3,C   0)                  1.0869         0.364234   
      4. B(H   4,C   0)                  1.0879         0.362859   
      5. B(C   5,C   1)                  1.5283         0.375878   
      6. B(H   6,C   1)                  1.0922         0.357235   
      7. B(H   7,C   1)                  1.0923         0.357028   
      8. B(C   8,C   5)                  1.5277         0.376679   
      9. B(H   9,C   5)                  1.0914         0.358191   
     10. B(H  10,C   5)                  1.0930         0.356208   
     11. B(N  11,C   8)                  1.4588         0.434672   
     12. B(H  12,C   8)                  1.1026         0.343817   
     13. B(H  13,C   8)                  1.0945         0.354210   
     14. B(H  14,N  11)                  1.0147         0.425235   
     15. B(H  15,N  11)                  1.0137         0.426840   
     16. A(H   3,C   0,H   4)          108.5253         0.291711   
     17. A(C   1,C   0,H   4)          110.4628         0.325696   
     18. A(C   1,C   0,H   2)          110.2396         0.325772   
     19. A(H   2,C   0,H   3)          108.1149         0.291777   
     20. A(H   2,C   0,H   4)          108.3476         0.291604   
     21. A(C   1,C   0,H   3)          111.0668         0.325899   
     22. A(C   0,C   1,C   5)          113.3295         0.364864   
     23. A(H   6,C   1,H   7)          107.6232         0.290084   
     24. A(C   5,C   1,H   7)          108.3453         0.324190   
     25. A(C   0,C   1,H   7)          108.7634         0.324829   
     26. A(C   5,C   1,H   6)          109.1945         0.324221   
     27. A(C   0,C   1,H   6)          109.4237         0.324860   
     28. A(C   8,C   5,H   9)          107.6029         0.324477   
     29. A(C   1,C   5,H   9)          109.2647         0.324363   
     30. A(C   1,C   5,C   8)          113.5001         0.364248   
     31. A(H   9,C   5,H  10)          107.7040         0.290102   
     32. A(C   8,C   5,H  10)          109.1739         0.324181   
     33. A(C   1,C   5,H  10)          109.4249         0.324068   
     34. A(H  12,C   8,H  13)          107.8375         0.287992   
     35. A(N  11,C   8,H  13)          107.3404         0.329623   
     36. A(C   5,C   8,H  13)          109.3855         0.323882   
     37. A(N  11,C   8,H  12)          112.6240         0.328006   
     38. A(C   5,C   8,H  12)          109.7532         0.322304   
     39. A(C   5,C   8,N  11)          109.8121         0.371112   
     40. A(H  14,N  11,H  15)          107.4815         0.301755   
     41. A(C   8,N  11,H  15)          109.9377         0.337073   
     42. A(C   8,N  11,H  14)          109.5176         0.336862   
     43. D(H   6,C   1,C   0,H   4)   -177.9651         0.011533   
     44. D(C   5,C   1,C   0,H   3)     64.6317         0.011533   
     45. D(H   7,C   1,C   0,H   3)   -174.8031         0.011533   
     46. D(H   6,C   1,C   0,H   2)     62.3206         0.011533   
     47. D(C   5,C   1,C   0,H   4)    -55.8424         0.011533   
     48. D(H   6,C   1,C   0,H   3)    -57.4910         0.011533   
     49. D(H   7,C   1,C   0,H   4)     64.7228         0.011533   
     50. D(C   5,C   1,C   0,H   2)   -175.5567         0.011533   
     51. D(H   7,C   1,C   0,H   2)    -54.9915         0.011533   
     52. D(H   9,C   5,C   1,H   6)    -65.3026         0.011274   
     53. D(C   8,C   5,C   1,H   7)    171.7314         0.011274   
     54. D(C   8,C   5,C   1,H   6)     54.7834         0.011274   
     55. D(C   8,C   5,C   1,C   0)    -67.4669         0.011274   
     56. D(H   9,C   5,C   1,H   7)     51.6453         0.011274   
     57. D(H  10,C   5,C   1,H   7)    -66.0540         0.011274   
     58. D(H  10,C   5,C   1,H   6)    176.9980         0.011274   
     59. D(H  10,C   5,C   1,C   0)     54.7477         0.011274   
     60. D(H   9,C   5,C   1,C   0)    172.4471         0.011274   
     61. D(H  13,C   8,C   5,H   9)     68.5311         0.011319   
     62. D(H  13,C   8,C   5,C   1)    -52.4932         0.011319   
     63. D(H  12,C   8,C   5,H  10)    -56.7226         0.011319   
     64. D(H  12,C   8,C   5,H   9)   -173.3445         0.011319   
     65. D(H  12,C   8,C   5,C   1)     65.6312         0.011319   
     66. D(N  11,C   8,C   5,H  10)     67.5977         0.011319   
     67. D(N  11,C   8,C   5,H   9)    -49.0242         0.011319   
     68. D(H  13,C   8,C   5,H  10)   -174.8470         0.011319   
     69. D(N  11,C   8,C   5,C   1)   -170.0486         0.011319   
     70. D(H  15,N  11,C   8,C   5)   -179.1789         0.016109   
     71. D(H  14,N  11,C   8,H  13)    179.8783         0.016109   
     72. D(H  14,N  11,C   8,H  12)     61.3377         0.016109   
     73. D(H  14,N  11,C   8,C   5)    -61.2997         0.016109   
     74. D(H  15,N  11,C   8,H  13)     61.9991         0.016109   
     75. D(H  15,N  11,C   8,H  12)    -56.5415         0.016109   
    -----------------------------------------------------------------

Number of atoms                         .... 16
Number of degrees of freedom            .... 75

         *************************************************************
         *                GEOMETRY OPTIMIZATION CYCLE   1            *
         *************************************************************
---------------------------------
CARTESIAN COORDINATES (ANGSTROEM)
---------------------------------
  C     -2.145215    0.264170   -0.580520
  C     -1.368475   -0.456671    0.516236
  H     -3.163465   -0.114395   -0.631344
  H     -1.680196    0.114554   -1.551452
  H     -2.186664    1.332276   -0.378020
  C      0.041702    0.095452    0.722013
  H     -1.306262   -1.520702    0.277885
  H     -1.916185   -0.359832    1.456355
  C      0.975479   -0.162963   -0.459213
  H      0.486345   -0.371600    1.602588
  H     -0.012643    1.171096    0.908009
  N      2.344854    0.179546   -0.091106
  H      0.621799    0.394020   -1.342614
  H      0.961233   -1.228907   -0.707137
  H      2.396215    1.165313    0.144112
  H      2.964130    0.021569   -0.877975

----------------------------
CARTESIAN COORDINATES (A.U.)
----------------------------
  NO LB      ZA    FRAG     MASS         X           Y           Z
   0 C     6.0000    0    12.011   -4.053868    0.499208   -1.097024
   1 C     6.0000    0    12.011   -2.586042   -0.862983    0.975544
   2 H     1.0000    0     1.008   -5.978082   -0.216176   -1.193066
   3 H     1.0000    0     1.008   -3.175109    0.216476   -2.931819
   4 H     1.0000    0     1.008   -4.132196    2.517636   -0.714353
   5 C     6.0000    0    12.011    0.078805    0.180378    1.364407
   6 H     1.0000    0     1.008   -2.468477   -2.873711    0.525127
   7 H     1.0000    0     1.008   -3.621066   -0.679983    2.752113
   8 C     6.0000    0    12.011    1.843387   -0.307955   -0.867787
   9 H     1.0000    0     1.008    0.919059   -0.702222    3.028452
  10 H     1.0000    0     1.008   -0.023891    2.213050    1.715888
  11 N     7.0000    0    14.007    4.431131    0.339293   -0.172165
  12 H     1.0000    0     1.008    1.175029    0.744591   -2.537173
  13 H     1.0000    0     1.008    1.816467   -2.322298   -1.336296
  14 H     1.0000    0     1.008    4.528191    2.202122    0.272333
  15 H     1.0000    0     1.008    5.601394    0.040760   -1.659132

--------------------------------
INTERNAL COORDINATES (ANGSTROEM)
--------------------------------
 C      0   0   0     0.000000000000     0.00000000     0.00000000
 C      1   0   0     1.525060445579     0.00000000     0.00000000
 H      1   2   0     1.087533004737   110.23961727     0.00000000
 H      1   2   3     1.086892715527   111.06683153   240.18839420
 H      1   2   3     1.087922237861   110.46275324   119.71431633
 C      2   1   3     1.528326624786   113.32950856   184.44330881
 H      2   1   3     1.092174327779   109.42369831    62.32056929
 H      2   1   3     1.092332395903   108.76344734   305.00853329
 C      6   2   1     1.527747617113   113.50014400   292.53309464
 H      6   2   1     1.091446697748   109.26473244   172.44707740
 H      6   2   1     1.092957912637   109.42489299    54.74769547
 N      9   6   2     1.458767576572   109.81208224   189.95143690
 H      9   6   2     1.102595583906   109.75321970    65.63115331
 H      9   6   2     1.094489075104   109.38547591   307.50676674
 H     12   9   6     1.014742429149   109.51756064   298.70031248
 H     12   9   6     1.013716888233   109.93773132   180.82112347

---------------------------
INTERNAL COORDINATES (A.U.)
---------------------------
 C      0   0   0     0.000000000000     0.00000000     0.00000000
 C      1   0   0     2.881946579819     0.00000000     0.00000000
 H      1   2   0     2.055139540554   110.23961727     0.00000000
 H      1   2   3     2.053929569300   111.06683153   240.18839420
 H      1   2   3     2.055875084560   110.46275324   119.71431633
 C      2   1   3     2.888118764025   113.32950856   184.44330881
 H      2   1   3     2.063910370002   109.42369831    62.32056929
 H      2   1   3     2.064209075466   108.76344734   305.00853329
 C      6   2   1     2.887024598094   113.50014400   292.53309464
 H      6   2   1     2.062535348517   109.26473244   172.44707740
 H      6   2   1     2.065391130787   109.42489299    54.74769547
 N      9   6   2     2.756671212766   109.81208224   189.95143690
 H      9   6   2     2.083603690053   109.75321970    65.63115331
 H      9   6   2     2.068284608515   109.38547591   307.50676674
 H     12   9   6     1.917585287561   109.51756064   298.70031248
 H     12   9   6     1.915647296091   109.93773132   180.82112347

---------------------
BASIS SET INFORMATION
---------------------
There are 3 groups of distinct atoms

 Group   1 Type C   : 7s4p1d contracted to 3s2p1d pattern {511/31/1}
 Group   2 Type H   : 4s1p contracted to 2s1p pattern {31/1}
 Group   3 Type N   : 7s4p1d contracted to 3s2p1d pattern {511/31/1}

Atom   0C    basis set group =>   1
Atom   1C    basis set group =>   1
Atom   2H    basis set group =>   2
Atom   3H    basis set group =>   2
Atom   4H    basis set group =>   2
Atom   5C    basis set group =>   1
Atom   6H    basis set group =>   2
Atom   7H    basis set group =>   2
Atom   8C    basis set group =>   1
Atom   9H    basis set group =>   2
Atom  10H    basis set group =>   2
Atom  11N    basis set group =>   3
Atom  12H    basis set group =>   2
Atom  13H    basis set group =>   2
Atom  14H    basis set group =>   2
Atom  15H    basis set group =>   2
---------------------------------
AUXILIARY/J BASIS SET INFORMATION
---------------------------------
There are 3 groups of distinct atoms

 Group   1 Type C   : 12s5p4d2f1g contracted to 6s4p3d1f1g pattern {711111/2111/211/2/1}
 Group   2 Type H   : 5s2p1d contracted to 3s1p1d pattern {311/2/1}
 Group   3 Type N   : 12s5p4d2f1g contracted to 6s4p3d1f1g pattern {711111/2111/211/2/1}

Atom   0C    basis set group =>   1
Atom   1C    basis set group =>   1
Atom   2H    basis set group =>   2
Atom   3H    basis set group =>   2
Atom   4H    basis set group =>   2
Atom   5C    basis set group =>   1
Atom   6H    basis set group =>   2
Atom   7H    basis set group =>   2
Atom   8C    basis set group =>   1
Atom   9H    basis set group =>   2
Atom  10H    basis set group =>   2
Atom  11N    basis set group =>   3
Atom  12H    basis set group =>   2
Atom  13H    basis set group =>   2
Atom  14H    basis set group =>   2
Atom  15H    basis set group =>   2


           ************************************************************
           *        Program running with 4 parallel MPI-processes     *
           *              working on a common directory               *
           ************************************************************
------------------------------------------------------------------------------
                           ORCA GTO INTEGRAL CALCULATION
                           -- RI-GTO INTEGRALS CHOSEN --
------------------------------------------------------------------------------
------------------------------------------------------------------------------
                   ___                                                        
                  /   \      - P O W E R E D   B Y -                         
                 /     \                                                     
                 |  |  |   _    _      __       _____    __    __             
                 |  |  |  | |  | |    /  \     |  _  \  |  |  /  |          
                  \  \/   | |  | |   /    \    | | | |  |  | /  /          
                 / \  \   | |__| |  /  /\  \   | |_| |  |  |/  /          
                |  |  |   |  __  | /  /__\  \  |    /   |      \           
                |  |  |   | |  | | |   __   |  |    \   |  |\   \          
                \     /   | |  | | |  |  |  |  | |\  \  |  | \   \       
                 \___/    |_|  |_| |__|  |__|  |_| \__\ |__|  \__/        
                                                                              
                      - O R C A' S   B I G   F R I E N D -                    
                                      &                                       
                       - I N T E G R A L  F E E D E R -                       
                                                                              
 v1 FN, 2020, v2 2021                                                         
------------------------------------------------------------------------------


Reading SHARK input file butylamine_deprot_aq_9.SHARKINP.tmp ... ok
----------------------
SHARK INTEGRAL PACKAGE
----------------------

Number of atoms                             ...     16
Number of basis functions                   ...    125
Number of shells                            ...     63
Maximum angular momentum                    ...      2
Integral batch strategy                     ... SHARK/LIBINT Hybrid
RI-J (if used) integral strategy            ... SPLIT-RIJ (Revised 2003 algorithm where possible)
Printlevel                                  ...      1
Contraction scheme used                     ... SEGMENTED contraction
Coulomb Range Separation                    ... NOT USED
Exchange Range Separation                   ... Long Range
   Mu parameter                             ...  0.300000
   Scaling (regular/separated)              ...  0.157706  0.842294
Finite Nucleus Model                        ... NOT USED
Auxiliary Coulomb fitting basis             ... AVAILABLE
   # of basis functions in Aux-J            ...    366
   # of shells in Aux-J                     ...    130
   Maximum angular momentum in Aux-J        ...      4
Auxiliary J/K fitting basis                 ... NOT available
Auxiliary Correlation fitting basis         ... NOT available
Auxiliary 'external' fitting basis          ... NOT available
Integral threshold                          ...     2.500000e-11
Primitive cut-off                           ...     2.500000e-12
Primitive pair pre-selection threshold      ...     2.500000e-12

Calculating pre-screening integrals         ... done (  0.0 sec) Dimension = 63
Organizing shell pair data                  ... done (  0.0 sec)
Shell pair information
Total number of shell pairs                 ...      2016
Shell pairs after pre-screening             ...      1951
Total number of primitive shell pairs       ...      6768
Primitive shell pairs kept                  ...      5186
          la=0 lb=0:    684 shell pairs
          la=1 lb=0:    750 shell pairs
          la=1 lb=1:    221 shell pairs
          la=2 lb=0:    180 shell pairs
          la=2 lb=1:    101 shell pairs
          la=2 lb=2:     15 shell pairs

Calculating one electron integrals          ... done (  0.0 sec)
Calculating RI/J V-Matrix + Cholesky decomp.... done (  0.4 sec)
Calculating Nuclear repulsion               ... done (  0.0 sec) ENN=    188.915887592098 Eh

SHARK setup successfully completed in   0.9 seconds

Maximum memory used throughout the entire GTOINT-calculation: 10.6 MB


           ************************************************************
           *        Program running with 4 parallel MPI-processes     *
           *              working on a common directory               *
           ************************************************************
-------------------------------------------------------------------------------
                                 ORCA SCF
-------------------------------------------------------------------------------

------------
SCF SETTINGS
------------
Hamiltonian:
 Density Functional     Method          .... DFT(GTOs)
 Exchange Functional    Exchange        .... WB97X
 Correlation Functional Correlation     .... WB97X
 Gradients option       PostSCFGGA      .... off
 Hybrid DFT is turned on
   Fraction HF Exchange ScalHFX         ....  0.157706
   Scaling of DF-GGA-X  ScalDFX         ....  0.000000
   Scaling of DF-GGA-C  ScalDFC         ....  1.000000
   Scaling of DF-LDA-C  ScalLDAC        ....  1.000000
   Perturbative correction              ....  0.000000
   Density functional embedding theory  .... OFF
 Long-range corrected/Screened/Range-Separated Hybrid DFT is turned on
   Amount of maximum screened exact exchange              ....  0.842294
   Range separation parameter mu (erf(mu*r12)/r12)        ....  0.300000
 RI-approximation to the Coulomb term is turned on
   Number of AuxJ basis functions       .... 366
   RIJ-COSX (HFX calculated with COS-X)).... on


General Settings:
 Integral files         IntName         .... butylamine_deprot_aq_9
 Hartree-Fock type      HFTyp           .... RHF
 Total Charge           Charge          ....    0
 Multiplicity           Mult            ....    1
 Number of Electrons    NEL             ....   42
 Basis Dimension        Dim             ....  125
 Nuclear Repulsion      ENuc            ....    188.9158875921 Eh

Convergence Acceleration:
 DIIS                   CNVDIIS         .... on
   Start iteration      DIISMaxIt       ....     0
   Startup error        DIISStart       ....  0.200000
   # of expansion vecs  DIISMaxEq       ....     5
   Bias factor          DIISBfac        ....   1.050
   Max. coefficient     DIISMaxC        ....  10.000
 Trust-Rad. Augm. Hess. CNVTRAH         .... auto
   Auto Start mean grad. ratio tolernc. ....  1.125000
   Auto Start start iteration           ....    20
   Auto Start num. interpolation iter.  ....    10
   Max. Number of Micro iterations      ....    16
   Max. Number of Macro iterations      .... Maxiter - #DIIS iter
   Number of Davidson start vectors     ....     2
   Converg. threshold I  (grad. norm)   ....   1.000e-05
   Converg. threshold II (energy diff.) ....   1.000e-08
   Grad. Scal. Fac. for Micro threshold ....   0.100
   Minimum threshold for Micro iter.    ....   0.010
   NR start threshold (gradient norm)   ....   0.001
   Initial trust radius                 ....   0.400
   Minimum AH scaling param. (alpha)    ....   1.000
   Maximum AH scaling param. (alpha)    .... 1000.000
   Orbital update algorithm             .... Taylor
   White noise on init. David. guess    .... on
   Maximum white noise                  ....   0.010
   Quad. conv. algorithm                .... NR
 SOSCF                  CNVSOSCF        .... on
   Start iteration      SOSCFMaxIt      ....   150
   Startup grad/error   SOSCFStart      ....  0.001000
 Level Shifting         CNVShift        .... on
   Level shift para.    LevelShift      ....    0.2500
   Turn off err/grad.   ShiftErr        ....    0.0000
 Zerner damping         CNVZerner       .... off
 Static damping         CNVDamp         .... on
   Fraction old density DampFac         ....    0.8500
   Max. Damping (<1)    DampMax         ....    0.9800
   Min. Damping (>=0)   DampMin         ....    0.0000
   Turn off err/grad.   DampErr         ....    0.0300
 Fernandez-Rico         CNVRico         .... off

SCF Procedure:
 Maximum # iterations   MaxIter         ....   125
 SCF integral mode      SCFMode         .... Direct
   Integral package                     .... SHARK and LIBINT hybrid scheme
 Reset frequency        DirectResetFreq ....    20
 Integral Threshold     Thresh          ....  2.500e-11 Eh
 Primitive CutOff       TCut            ....  2.500e-12 Eh

Convergence Tolerance:
 Convergence Check Mode ConvCheckMode   .... Total+1el-Energy
 Convergence forced     ConvForced      .... 0
 Energy Change          TolE            ....  1.000e-08 Eh
 1-El. energy change                    ....  1.000e-05 Eh
 Orbital Gradient       TolG            ....  1.000e-05
 Orbital Rotation angle TolX            ....  1.000e-05
 DIIS Error             TolErr          ....  5.000e-07


Diagonalization of the overlap matrix:
Smallest eigenvalue                        ... 1.861e-03
Time for diagonalization                   ...    0.010 sec
Threshold for overlap eigenvalues          ... 1.000e-08
Number of eigenvalues below threshold      ... 0
Time for construction of square roots      ...    0.003 sec
Total time needed                          ...    0.013 sec

Time for model grid setup =    0.104 sec

------------------------------
INITIAL GUESS: MODEL POTENTIAL
------------------------------
Loading Hartree-Fock densities                     ... done
Calculating cut-offs                               ... done
Initializing the effective Hamiltonian             ... done
Setting up the integral package (SHARK)            ... done
Starting the Coulomb interaction                   ... done (   0.0 sec)
Reading the grid                                   ... done
Mapping shells                                     ... done
Starting the XC term evaluation                    ... done (   0.0 sec)
  promolecular density results
     # of electrons  =     41.992517278
     EX              =    -30.244343433
     EC              =     -1.356030824
     EX+EC           =    -31.600374257
Transforming the Hamiltonian                       ... done (   0.0 sec)
Diagonalizing the Hamiltonian                      ... done (   0.0 sec)
Back transforming the eigenvectors                 ... done (   0.0 sec)
Now organizing SCF variables                       ... done
                      ------------------
                      INITIAL GUESS DONE (   0.2 sec)
                      ------------------
-------------------
DFT GRID GENERATION
-------------------

General Integration Accuracy     IntAcc      ... 4.388
Radial Grid Type                 RadialGrid  ... OptM3 with GC (2021)
Angular Grid (max. ang.)         AngularGrid ... 4 (Lebedev-302)
Angular grid pruning method      GridPruning ... 4 (adaptive)
Weight generation scheme         WeightScheme... Becke
Basis function cutoff            BFCut       ... 1.0000e-11
Integration weight cutoff        WCut        ... 1.0000e-14
Angular grids for H and He will be reduced by one unit
Partially contracted basis set               ... off
Rotationally invariant grid construction     ... off

Total number of grid points                  ...    65485
Total number of batches                      ...     1030
Average number of points per batch           ...       63
Average number of grid points per atom       ...     4093
Time for grid setup =    0.361 sec

--------------------
COSX GRID GENERATION
--------------------

GRIDX 1
-------
General Integration Accuracy     IntAcc      ... 3.816
Radial Grid Type                 RadialGrid  ... OptM3 with GC (2021)
Angular Grid (max. ang.)         AngularGrid ... 1 (Lebedev-50)
Angular grid pruning method      GridPruning ... 4 (adaptive)
Weight generation scheme         WeightScheme... Becke
Basis function cutoff            BFCut       ... 1.0000e-11
Integration weight cutoff        WCut        ... 1.0000e-14
Angular grids for H and He will be reduced by one unit
Partially contracted basis set               ... on
Rotationally invariant grid construction     ... off

Total number of grid points                  ...     8452
Total number of batches                      ...      144
Average number of points per batch           ...       58
Average number of grid points per atom       ...      528
UseSFitting                                  ... on

GRIDX 2
-------
General Integration Accuracy     IntAcc      ... 4.020
Radial Grid Type                 RadialGrid  ... OptM3 with GC (2021)
Angular Grid (max. ang.)         AngularGrid ... 2 (Lebedev-110)
Angular grid pruning method      GridPruning ... 4 (adaptive)
Weight generation scheme         WeightScheme... Becke
Basis function cutoff            BFCut       ... 1.0000e-11
Integration weight cutoff        WCut        ... 1.0000e-14
Angular grids for H and He will be reduced by one unit
Partially contracted basis set               ... on
Rotationally invariant grid construction     ... off

Total number of grid points                  ...    17417
Total number of batches                      ...      280
Average number of points per batch           ...       62
Average number of grid points per atom       ...     1089
UseSFitting                                  ... on

GRIDX 3
-------
General Integration Accuracy     IntAcc      ... 4.338
Radial Grid Type                 RadialGrid  ... OptM3 with GC (2021)
Angular Grid (max. ang.)         AngularGrid ... 3 (Lebedev-194)
Angular grid pruning method      GridPruning ... 4 (adaptive)
Weight generation scheme         WeightScheme... Becke
Basis function cutoff            BFCut       ... 1.0000e-11
Integration weight cutoff        WCut        ... 1.0000e-14
Angular grids for H and He will be reduced by one unit
Partially contracted basis set               ... on
Rotationally invariant grid construction     ... off

Total number of grid points                  ...    38004
Total number of batches                      ...      601
Average number of points per batch           ...       63
Average number of grid points per atom       ...     2375
UseSFitting                                  ... on

Time for X-Grid setup             =    0.414 sec

--------------
SCF ITERATIONS
--------------
ITER       Energy         Delta-E        Max-DP      RMS-DP      [F,P]     Damp
               ***  Starting incremental Fock matrix formation  ***
  0   -213.3798642764   0.000000000000 0.03896963  0.00115483  0.2355028 0.8500
  1   -213.4253532386  -0.045488962200 0.03346605  0.00109828  0.1819419 0.8500
                               ***Turning on DIIS***
  2   -213.4587684891  -0.033415250446 0.02489022  0.00087904  0.1326544 0.8500
  3   -213.4828389828  -0.024070493714 0.01432600  0.00056887  0.0954761 0.8500
  4   -213.5010564635  -0.018217480710 0.00953333  0.00040421  0.0748069 0.8500
  5   -213.5152290860  -0.014172622564 0.00711761  0.00031849  0.0618091 0.8500
  6   -213.5266876170  -0.011458531004 0.00566875  0.00026399  0.0520797 0.8500
  7   -213.5361446876  -0.009457070593 0.00474906  0.00022728  0.0441613 0.8500
  8   -213.5440455694  -0.007900881785 0.00403649  0.00019586  0.0372344 0.8500
  9   -213.5506612360  -0.006615666586 0.00342046  0.00016752  0.0313047 0.8500
 10   -213.5562075519  -0.005546315937 0.01920072  0.00095049  0.0263315 0.0000
 11   -213.5863666079  -0.030159055947 0.00110703  0.00003858  0.0015512 0.0000
                      *** Initiating the SOSCF procedure ***
                           *** Shutting down DIIS ***
                      *** Re-Reading the Fockian *** 
                      *** Removing any level shift *** 
ITER      Energy       Delta-E        Grad      Rot      Max-DP    RMS-DP
 12   -213.58637600  -0.0000093916  0.000062  0.000062  0.000263  0.000013
               *** Restarting incremental Fock matrix formation ***
 13   -213.58638713  -0.0000111348  0.000035  0.000071  0.000301  0.000012
 14   -213.58638725  -0.0000001163  0.000013  0.000040  0.000103  0.000005
 15   -213.58638726  -0.0000000106  0.000009  0.000009  0.000028  0.000001
                 **** Energy Check signals convergence ****
              ***Rediagonalizing the Fockian in SOSCF/NRSCF***

               *****************************************************
               *                     SUCCESS                       *
               *           SCF CONVERGED AFTER  16 CYCLES          *
               *****************************************************

Old exchange energy                            =    -10.443901468 Eh
New exchange energy                            =    -10.443897152 Eh
Exchange energy change after final integration =      0.000004316 Eh
Total energy after final integration           =   -213.586382948 Eh
Final COS-X integration done in                =     3.120 sec

----------------
TOTAL SCF ENERGY
----------------

Total Energy       :         -213.58638295 Eh           -5811.98096 eV

Components:
Nuclear Repulsion  :          188.91588759 Eh            5140.66265 eV
Electronic Energy  :         -402.50227054 Eh          -10952.64360 eV
One Electron Energy:         -660.57524429 Eh          -17975.16624 eV
Two Electron Energy:          258.07297375 Eh            7022.52263 eV
Max COSX asymmetry :            0.00000229 Eh               0.00006 eV

Virial components:
Potential Energy   :         -424.61208106 Eh          -11554.28213 eV
Kinetic Energy     :          211.02569811 Eh            5742.30118 eV
Virial Ratio       :            2.01213447


DFT components:
N(Alpha)           :       21.000046793501 electrons
N(Beta)            :       21.000046793501 electrons
N(Total)           :       42.000093587002 electrons
E(XC)              :      -22.250134510124 Eh       
DFET-embed. en.    :        0.000000000000 Eh       

---------------
SCF CONVERGENCE
---------------

  Last Energy change         ...   -2.7635e-09  Tolerance :   1.0000e-08
  Last MAX-Density change    ...    5.3291e-15  Tolerance :   1.0000e-07
  Last RMS-Density change    ...    5.6829e-17  Tolerance :   5.0000e-09
  Last Orbital Gradient      ...    2.4060e-06  Tolerance :   1.0000e-05
  Last Orbital Rotation      ...    1.4461e-06  Tolerance :   1.0000e-05

             **** THE GBW FILE WAS UPDATED (butylamine_deprot_aq_9.gbw) ****
             **** DENSITY butylamine_deprot_aq_9.scfp WAS UPDATED ****
             **** ENERGY FILE WAS UPDATED (butylamine_deprot_aq_9.en.tmp) ****
             **** THE GBW FILE WAS UPDATED (butylamine_deprot_aq_9.gbw) ****
             **** DENSITY butylamine_deprot_aq_9.scfp WAS UPDATED ****
----------------
ORBITAL ENERGIES
----------------

  NO   OCC          E(Eh)            E(eV) 
   0   2.0000     -14.373800      -391.1310 
   1   2.0000     -10.282426      -279.7990 
   2   2.0000     -10.260237      -279.1952 
   3   2.0000     -10.255472      -279.0656 
   4   2.0000     -10.254984      -279.0523 
   5   2.0000      -0.996403       -27.1135 
   6   2.0000      -0.910194       -24.7676 
   7   2.0000      -0.820888       -22.3375 
   8   2.0000      -0.742312       -20.1993 
   9   2.0000      -0.684266       -18.6198 
  10   2.0000      -0.588173       -16.0050 
  11   2.0000      -0.582137       -15.8408 
  12   2.0000      -0.568203       -15.4616 
  13   2.0000      -0.517147       -14.0723 
  14   2.0000      -0.511516       -13.9191 
  15   2.0000      -0.489658       -13.3243 
  16   2.0000      -0.457961       -12.4618 
  17   2.0000      -0.429853       -11.6969 
  18   2.0000      -0.427145       -11.6232 
  19   2.0000      -0.421929       -11.4813 
  20   2.0000      -0.331311        -9.0154 
  21   0.0000       0.146703         3.9920 
  22   0.0000       0.159105         4.3295 
  23   0.0000       0.179023         4.8715 
  24   0.0000       0.186382         5.0717 
  25   0.0000       0.216201         5.8831 
  26   0.0000       0.228896         6.2286 
  27   0.0000       0.241599         6.5743 
  28   0.0000       0.245016         6.6672 
  29   0.0000       0.256729         6.9859 
  30   0.0000       0.264276         7.1913 
  31   0.0000       0.275391         7.4938 
  32   0.0000       0.327234         8.9045 
  33   0.0000       0.336939         9.1686 
  34   0.0000       0.357923         9.7396 
  35   0.0000       0.360070         9.7980 
  36   0.0000       0.516412        14.0523 
  37   0.0000       0.535204        14.5636 
  38   0.0000       0.539768        14.6878 
  39   0.0000       0.559329        15.2201 
  40   0.0000       0.566601        15.4180 
  41   0.0000       0.602044        16.3824 
  42   0.0000       0.639859        17.4114 
  43   0.0000       0.704672        19.1751 
  44   0.0000       0.728623        19.8268 
  45   0.0000       0.738846        20.1050 
  46   0.0000       0.750173        20.4132 
  47   0.0000       0.755778        20.5658 
  48   0.0000       0.773142        21.0383 
  49   0.0000       0.785979        21.3876 
  50   0.0000       0.788561        21.4578 
  51   0.0000       0.799618        21.7587 
  52   0.0000       0.809658        22.0319 
  53   0.0000       0.813575        22.1385 
  54   0.0000       0.825900        22.4739 
  55   0.0000       0.827629        22.5209 
  56   0.0000       0.842849        22.9351 
  57   0.0000       0.845549        23.0086 
  58   0.0000       0.868434        23.6313 
  59   0.0000       0.913624        24.8610 
  60   0.0000       0.946748        25.7623 
  61   0.0000       1.044213        28.4145 
  62   0.0000       1.053090        28.6560 
  63   0.0000       1.098566        29.8935 
  64   0.0000       1.142008        31.0756 
  65   0.0000       1.164589        31.6901 
  66   0.0000       1.263785        34.3893 
  67   0.0000       1.302676        35.4476 
  68   0.0000       1.361781        37.0560 
  69   0.0000       1.387847        37.7652 
  70   0.0000       1.395236        37.9663 
  71   0.0000       1.450459        39.4690 
  72   0.0000       1.511893        41.1407 
  73   0.0000       1.598741        43.5040 
  74   0.0000       1.642528        44.6955 
  75   0.0000       1.665300        45.3151 
  76   0.0000       1.714295        46.6483 
  77   0.0000       1.788977        48.6805 
  78   0.0000       1.838474        50.0274 
  79   0.0000       1.863400        50.7057 
  80   0.0000       1.870625        50.9023 
  81   0.0000       1.889908        51.4270 
  82   0.0000       1.900739        51.7217 
  83   0.0000       1.911058        52.0025 
  84   0.0000       1.925829        52.4045 
  85   0.0000       1.944071        52.9009 
  86   0.0000       1.949066        53.0368 
  87   0.0000       1.975945        53.7682 
  88   0.0000       1.983534        53.9747 
  89   0.0000       1.990634        54.1679 
  90   0.0000       2.009353        54.6773 
  91   0.0000       2.044136        55.6238 
  92   0.0000       2.057779        55.9950 
  93   0.0000       2.066372        56.2288 
  94   0.0000       2.071752        56.3752 
  95   0.0000       2.129203        57.9386 
  96   0.0000       2.172661        59.1211 
  97   0.0000       2.241036        60.9817 
  98   0.0000       2.283313        62.1321 
  99   0.0000       2.348319        63.9010 
 100   0.0000       2.372365        64.5553 
 101   0.0000       2.399954        65.3061 
 102   0.0000       2.430711        66.1430 
 103   0.0000       2.499007        68.0014 
 104   0.0000       2.531364        68.8819 
 105   0.0000       2.544070        69.2277 
 106   0.0000       2.612856        71.0994 
 107   0.0000       2.654908        72.2437 
 108   0.0000       2.706623        73.6510 
 109   0.0000       2.715626        73.8959 
 110   0.0000       2.762596        75.1740 
 111   0.0000       2.790206        75.9254 
 112   0.0000       2.893771        78.7435 
 113   0.0000       2.912129        79.2431 
 114   0.0000       2.982098        81.1470 
 115   0.0000       3.012094        81.9632 
 116   0.0000       3.031625        82.4947 
 117   0.0000       3.066301        83.4383 
 118   0.0000       3.083669        83.9109 
 119   0.0000       3.140180        85.4486 
 120   0.0000       3.153402        85.8084 
 121   0.0000       3.204176        87.1901 
 122   0.0000       3.243203        88.2520 
 123   0.0000       3.348531        91.1182 
 124   0.0000       3.526878        95.9712 

                    ********************************
                    * MULLIKEN POPULATION ANALYSIS *
                    ********************************

-----------------------
MULLIKEN ATOMIC CHARGES
-----------------------
   0 C :   -0.035448
   1 C :   -0.046789
   2 H :    0.025640
   3 H :    0.022588
   4 H :    0.017500
   5 C :   -0.050625
   6 H :    0.013743
   7 H :    0.018083
   8 C :    0.067354
   9 H :    0.024288
  10 H :    0.002325
  11 N :   -0.248367
  12 H :   -0.002871
  13 H :    0.006972
  14 H :    0.091795
  15 H :    0.093812
Sum of atomic charges:   -0.0000000

--------------------------------
MULLIKEN REDUCED ORBITAL CHARGES
--------------------------------
  0 C s       :     2.998527  s :     2.998527
      pz      :     0.998311  p :     3.008419
      px      :     1.006756
      py      :     1.003351
      dz2     :     0.008546  d :     0.028502
      dxz     :     0.005274
      dyz     :     0.003220
      dx2y2   :     0.008063
      dxy     :     0.003400
  1 C s       :     3.028938  s :     3.028938
      pz      :     0.998856  p :     2.981021
      px      :     0.976020
      py      :     1.006145
      dz2     :     0.007959  d :     0.036830
      dxz     :     0.009521
      dyz     :     0.003967
      dx2y2   :     0.009956
      dxy     :     0.005427
  2 H s       :     0.950377  s :     0.950377
      pz      :     0.004537  p :     0.023983
      px      :     0.013493
      py      :     0.005953
  3 H s       :     0.953100  s :     0.953100
      pz      :     0.012587  p :     0.024313
      px      :     0.006735
      py      :     0.004990
  4 H s       :     0.958465  s :     0.958465
      pz      :     0.004816  p :     0.024035
      px      :     0.004698
      py      :     0.014521
  5 C s       :     3.034716  s :     3.034716
      pz      :     1.010929  p :     2.980660
      px      :     0.966607
      py      :     1.003124
      dz2     :     0.006781  d :     0.035249
      dxz     :     0.009229
      dyz     :     0.004889
      dx2y2   :     0.009323
      dxy     :     0.005027
  6 H s       :     0.963531  s :     0.963531
      pz      :     0.004794  p :     0.022726
      px      :     0.003864
      py      :     0.014068
  7 H s       :     0.959240  s :     0.959240
      pz      :     0.011760  p :     0.022677
      px      :     0.006435
      py      :     0.004482
  8 C s       :     2.995468  s :     2.995468
      pz      :     1.002443  p :     2.885029
      px      :     0.859007
      py      :     1.023580
      dz2     :     0.008998  d :     0.052150
      dxz     :     0.014242
      dyz     :     0.006735
      dx2y2   :     0.013627
      dxy     :     0.008548
  9 H s       :     0.953147  s :     0.953147
      pz      :     0.010690  p :     0.022564
      px      :     0.005585
      py      :     0.006290
 10 H s       :     0.974782  s :     0.974782
      pz      :     0.004540  p :     0.022893
      px      :     0.003951
      py      :     0.014401
 11 N s       :     3.414557  s :     3.414557
      pz      :     1.445944  p :     3.813973
      px      :     1.113980
      py      :     1.254050
      dz2     :     0.004174  d :     0.019836
      dxz     :     0.006276
      dyz     :     0.000579
      dx2y2   :     0.007377
      dxy     :     0.001431
 12 H s       :     0.981634  s :     0.981634
      pz      :     0.010500  p :     0.021236
      px      :     0.003847
      py      :     0.006889
 13 H s       :     0.971591  s :     0.971591
      pz      :     0.004596  p :     0.021437
      px      :     0.002400
      py      :     0.014440
 14 H s       :     0.862340  s :     0.862340
      pz      :     0.014657  p :     0.045865
      px      :     0.008399
      py      :     0.022809
 15 H s       :     0.860605  s :     0.860605
      pz      :     0.018587  p :     0.045583
      px      :     0.015037
      py      :     0.011958


                     *******************************
                     * LOEWDIN POPULATION ANALYSIS *
                     *******************************

----------------------
LOEWDIN ATOMIC CHARGES
----------------------
   0 C :   -0.061574
   1 C :   -0.040480
   2 H :    0.024258
   3 H :    0.018670
   4 H :    0.021124
   5 C :   -0.044930
   6 H :    0.019398
   7 H :    0.022073
   8 C :    0.014666
   9 H :    0.024534
  10 H :    0.014352
  11 N :   -0.125857
  12 H :   -0.003098
  13 H :    0.015683
  14 H :    0.049315
  15 H :    0.051863

-------------------------------
LOEWDIN REDUCED ORBITAL CHARGES
-------------------------------
  0 C s       :     2.826329  s :     2.826329
      pz      :     1.049660  p :     3.161940
      px      :     1.054215
      py      :     1.058065
      dz2     :     0.020741  d :     0.073304
      dxz     :     0.014471
      dyz     :     0.008599
      dx2y2   :     0.020777
      dxy     :     0.008716
  1 C s       :     2.827905  s :     2.827905
      pz      :     1.045467  p :     3.122314
      px      :     1.025335
      py      :     1.051513
      dz2     :     0.019262  d :     0.090260
      dxz     :     0.023477
      dyz     :     0.010061
      dx2y2   :     0.024613
      dxy     :     0.012848
  2 H s       :     0.909261  s :     0.909261
      pz      :     0.013492  p :     0.066481
      px      :     0.036729
      py      :     0.016260
  3 H s       :     0.914141  s :     0.914141
      pz      :     0.034957  p :     0.067189
      px      :     0.018618
      py      :     0.013613
  4 H s       :     0.912542  s :     0.912542
      pz      :     0.014086  p :     0.066334
      px      :     0.013041
      py      :     0.039207
  5 C s       :     2.835186  s :     2.835186
      pz      :     1.044989  p :     3.121387
      px      :     1.022185
      py      :     1.054213
      dz2     :     0.017281  d :     0.088357
      dxz     :     0.023627
      dyz     :     0.011477
      dx2y2   :     0.024167
      dxy     :     0.011805
  6 H s       :     0.914491  s :     0.914491
      pz      :     0.014350  p :     0.066111
      px      :     0.013191
      py      :     0.038570
  7 H s       :     0.911811  s :     0.911811
      pz      :     0.032751  p :     0.066116
      px      :     0.020160
      py      :     0.013205
  8 C s       :     2.830579  s :     2.830579
      pz      :     1.046249  p :     3.035269
      px      :     0.930041
      py      :     1.058978
      dz2     :     0.020044  d :     0.119486
      dxz     :     0.034546
      dyz     :     0.016030
      dx2y2   :     0.032352
      dxy     :     0.016512
  9 H s       :     0.908067  s :     0.908067
      pz      :     0.031606  p :     0.067398
      px      :     0.018146
      py      :     0.017647
 10 H s       :     0.919232  s :     0.919232
      pz      :     0.014205  p :     0.066416
      px      :     0.013497
      py      :     0.038714
 11 N s       :     3.124808  s :     3.124808
      pz      :     1.475456  p :     3.957009
      px      :     1.172770
      py      :     1.308784
      dz2     :     0.007718  d :     0.044040
      dxz     :     0.013831
      dyz     :     0.001190
      dx2y2   :     0.017618
      dxy     :     0.003682
 12 H s       :     0.937928  s :     0.937928
      pz      :     0.030805  p :     0.065170
      px      :     0.015348
      py      :     0.019018
 13 H s       :     0.920519  s :     0.920519
      pz      :     0.013940  p :     0.063798
      px      :     0.010344
      py      :     0.039514
 14 H s       :     0.828883  s :     0.828883
      pz      :     0.036223  p :     0.121801
      px      :     0.021166
      py      :     0.064413
 15 H s       :     0.826146  s :     0.826146
      pz      :     0.056073  p :     0.121992
      px      :     0.038870
      py      :     0.027048


                      *****************************
                      * MAYER POPULATION ANALYSIS *
                      *****************************

  NA   - Mulliken gross atomic population
  ZA   - Total nuclear charge
  QA   - Mulliken gross atomic charge
  VA   - Mayer's total valence
  BVA  - Mayer's bonded valence
  FA   - Mayer's free valence

  ATOM       NA         ZA         QA         VA         BVA        FA
  0 C      6.0354     6.0000    -0.0354     4.0000     4.0000    -0.0000
  1 C      6.0468     6.0000    -0.0468     4.0854     4.0854     0.0000
  2 H      0.9744     1.0000     0.0256     0.9873     0.9873    -0.0000
  3 H      0.9774     1.0000     0.0226     0.9937     0.9937    -0.0000
  4 H      0.9825     1.0000     0.0175     0.9917     0.9917     0.0000
  5 C      6.0506     6.0000    -0.0506     4.0518     4.0518    -0.0000
  6 H      0.9863     1.0000     0.0137     0.9811     0.9811     0.0000
  7 H      0.9819     1.0000     0.0181     0.9770     0.9770     0.0000
  8 C      5.9326     6.0000     0.0674     4.0547     4.0547    -0.0000
  9 H      0.9757     1.0000     0.0243     0.9936     0.9936    -0.0000
 10 H      0.9977     1.0000     0.0023     0.9847     0.9847     0.0000
 11 N      7.2484     7.0000    -0.2484     3.0377     3.0377    -0.0000
 12 H      1.0029     1.0000    -0.0029     0.9757     0.9757    -0.0000
 13 H      0.9930     1.0000     0.0070     0.9846     0.9846    -0.0000
 14 H      0.9082     1.0000     0.0918     0.9998     0.9998     0.0000
 15 H      0.9062     1.0000     0.0938     0.9971     0.9971     0.0000

  Mayer bond orders larger than 0.100000
B(  0-C ,  1-C ) :   1.0765 B(  0-C ,  2-H ) :   0.9728 B(  0-C ,  3-H ) :   0.9765 
B(  0-C ,  4-H ) :   0.9762 B(  1-C ,  5-C ) :   1.0760 B(  1-C ,  6-H ) :   0.9555 
B(  1-C ,  7-H ) :   0.9560 B(  5-C ,  8-C ) :   1.0642 B(  5-C ,  9-H ) :   0.9498 
B(  5-C , 10-H ) :   0.9514 B(  8-C , 11-N ) :   1.0651 B(  8-C , 12-H ) :   0.9509 
B(  8-C , 13-H ) :   0.9530 B( 11-N , 14-H ) :   0.9755 B( 11-N , 15-H ) :   0.9726 


-------
TIMINGS
-------

Total SCF time: 0 days 0 hours 0 min 26 sec 

Total time                  ....      26.104 sec
Sum of individual times     ....      25.431 sec  ( 97.4%)

Fock matrix formation       ....      24.195 sec  ( 92.7%)
  Split-RI-J                ....       1.131 sec  (  4.7% of F)
  Chain of spheres X        ....      18.012 sec  ( 74.4% of F)
  XC integration            ....       4.472 sec  ( 18.5% of F)
    Basis function eval.    ....       1.363 sec  ( 30.5% of XC)
    Density eval.           ....       0.730 sec  ( 16.3% of XC)
    XC-Functional eval.     ....       0.631 sec  ( 14.1% of XC)
    XC-Potential eval.      ....       0.801 sec  ( 17.9% of XC)
Diagonalization             ....       0.102 sec  (  0.4%)
Density matrix formation    ....       0.003 sec  (  0.0%)
Population analysis         ....       0.057 sec  (  0.2%)
Initial guess               ....       0.132 sec  (  0.5%)
Orbital Transformation      ....       0.000 sec  (  0.0%)
Orbital Orthonormalization  ....       0.000 sec  (  0.0%)
DIIS solution               ....       0.048 sec  (  0.2%)
SOSCF solution              ....       0.015 sec  (  0.1%)
Grid generation             ....       0.878 sec  (  3.4%)

Maximum memory used throughout the entire SCF-calculation: 49.8 MB


-------------------------------------------------------------------------------
                          DFT DISPERSION CORRECTION                            
                                                                               
                                 DFTD4 V2.5                                    
-------------------------------------------------------------------------------
The WB97X functional is recognized
Active option DFTDOPT                   ...         5   

Starting D4
-------------------------   ----------------
Dispersion correction           -0.001394260
-------------------------   ----------------


-------------------------   --------------------
FINAL SINGLE POINT ENERGY      -213.587777207840
-------------------------   --------------------



           ************************************************************
           *        Program running with 4 parallel MPI-processes     *
           *              working on a common directory               *
           ************************************************************
------------------------------------------------------------------------------
                         ORCA SCF GRADIENT CALCULATION
------------------------------------------------------------------------------

 ... reading COSX grid (gridx3)
Gradient of the Kohn-Sham DFT energy:
Kohn-Sham wavefunction type      ... RKS
Hartree-Fock exchange scaling    ...    0.158
Number of operators              ...    1
Number of atoms                  ...   16
Basis set dimensions             ...  125
Integral neglect threshold       ... 2.5e-11
Integral primitive cutoff        ... 2.5e-12
SHARK Integral package           ... ON

Nuc. rep. gradient       (SHARK) ... done (  0.0 sec)
HCore & Overlap gradient (SHARK) ... done (  0.0 sec)
RI-J gradient            (SHARK) ... done (  0.2 sec)
COSX-gradient                    ... done (  3.5 sec)
Exchange-correlation gradient    ... done
Dispersion correction            ... Starting D4
Starting D4
Starting D4
Starting D4


------------------- 
Dispersion Gradient 
------------------- 
   1  :   -0.000027075    0.000005989   -0.000011480
   2  :   -0.000016441   -0.000009144    0.000008696
   3  :   -0.000006260    0.000000563   -0.000000812
   4  :   -0.000008674    0.000000045    0.000002236
   5  :   -0.000007481   -0.000002224   -0.000000583
   6  :    0.000001187    0.000003208    0.000010869
   7  :   -0.000004726    0.000003445    0.000001036
   8  :   -0.000004310    0.000000012   -0.000001059
   9  :    0.000002085   -0.000003757   -0.000010652
  10  :    0.000002190    0.000000050   -0.000002283
  11  :    0.000000823   -0.000004774   -0.000000877
  12  :    0.000037096    0.000000029    0.000002703
  13  :    0.000007329   -0.000001017    0.000004831
  14  :    0.000007728    0.000003939    0.000003282
  15  :    0.000006866    0.000002926   -0.000000734
  16  :    0.000009663    0.000000708   -0.000005173

  |G| =    0.000057567

done

------------------
CARTESIAN GRADIENT
------------------

   1   C   :   -0.004057926    0.007936084   -0.008427463
   2   C   :   -0.003716137   -0.012146813    0.004132933
   3   H   :    0.008895930    0.001763027    0.002222388
   4   H   :   -0.002918845   -0.000019212    0.009398841
   5   H   :    0.001056013   -0.009646459   -0.000498201
   6   C   :    0.003093289    0.011445181    0.010982950
   7   H   :    0.000190758    0.008117083   -0.000467907
   8   H   :    0.003764925    0.001863968   -0.006043156
   9   C   :   -0.006482007   -0.007451388   -0.010318999
  10   H   :   -0.004381221    0.001454575   -0.005907944
  11   H   :   -0.000254052   -0.008157425   -0.002853894
  12   N   :    0.004149673    0.004100546   -0.001063631
  13   H   :    0.003276774   -0.000123519    0.004376299
  14   H   :    0.002450813    0.005906797    0.002452862
  15   H   :   -0.002022087   -0.003286174    0.000598596
  16   H   :   -0.003132666   -0.001513081    0.001548402

Difference to translation invariance:
           :   -0.0000867642    0.0002431915    0.0001320765

Difference to rotation invariance:
           :    0.0000544447   -0.0012321161   -0.0008878706

Norm of the cartesian gradient     ...    0.0382829286
RMS gradient                       ...    0.0055256648
MAX gradient                       ...    0.0121468127

-------
TIMINGS
-------

Total SCF gradient time            ...        5.043 sec

One electron gradient       ....       0.039 sec  (  0.8%)
RI-J Coulomb gradient       ....       0.248 sec  (  4.9%)
COSX gradient               ....       3.457 sec  ( 68.5%)
XC gradient                 ....       1.003 sec  ( 19.9%)

Maximum memory used throughout the entire SCFGRAD-calculation: 38.3 MB
------------------------------------------------------------------------------
                         ORCA GEOMETRY RELAXATION STEP
------------------------------------------------------------------------------

Reading the OPT-File                    .... done
Getting information on internals        .... done
Copying old internal coords+grads       .... done
Making the new internal coordinates     .... (new redundants).... done
Validating the new internal coordinates .... (new redundants).... done
Calculating the B-matrix                .... done
Calculating the G,G- and P matrices     .... done
Transforming gradient to internals      .... done
Projecting the internal gradient        .... done
Number of atoms                         ....  16
Number of internal coordinates          ....  75
Current Energy                          ....  -213.587777208 Eh
Current gradient norm                   ....     0.038282929 Eh/bohr
Maximum allowed component of the step   ....  0.300
Current trust radius                    ....  0.300
Evaluating the initial hessian          ....  (Almloef) done
Projecting the Hessian                  .... done
Forming the augmented Hessian           .... done
Diagonalizing the augmented Hessian     .... done
Last element of RFO vector              ....  0.994082684
Lowest eigenvalues of augmented Hessian:
 -0.002196574  0.011281352  0.011355131  0.011536134  0.016111146
Length of the computed step             ....  0.109272644
The final length of the internal step   ....  0.109272644
Converting the step to cartesian space:
 Initial RMS(Int)=    0.0126177181
Transforming coordinates:
 Iter   0:  RMS(Cart)=    0.0183693188 RMS(Int)=    0.0125994951
 Iter   1:  RMS(Cart)=    0.0001355955 RMS(Int)=    0.0000972729
 Iter   2:  RMS(Cart)=    0.0000014906 RMS(Int)=    0.0000011599
 Iter   3:  RMS(Cart)=    0.0000000330 RMS(Int)=    0.0000000227
done
Storing new coordinates                 .... done

                                .--------------------.
          ----------------------|Geometry convergence|-------------------------
          Item                value                   Tolerance       Converged
          ---------------------------------------------------------------------
          RMS gradient        0.0030358260            0.0001000000      NO
          MAX gradient        0.0096500768            0.0003000000      NO
          RMS step            0.0126177181            0.0020000000      NO
          MAX step            0.0320835571            0.0040000000      NO
          ........................................................
          Max(Bonds)      0.0140      Max(Angles)    0.80
          Max(Dihed)        1.84      Max(Improp)    0.00
          ---------------------------------------------------------------------

The optimization has not yet converged - more geometry cycles are needed


    ---------------------------------------------------------------------------
                         Redundant Internal Coordinates
                            (Angstroem and degrees)

        Definition                    Value    dE/dq     Step     New-Value
    ----------------------------------------------------------------------------
     1. B(C   1,C   0)                1.5251 -0.003525  0.0049    1.5299   
     2. B(H   2,C   0)                1.0875 -0.009036  0.0131    1.1006   
     3. B(H   3,C   0)                1.0869 -0.009650  0.0139    1.1008   
     4. B(H   4,C   0)                1.0879 -0.009629  0.0140    1.1019   
     5. B(C   5,C   1)                1.5283 -0.002216  0.0031    1.5314   
     6. B(H   6,C   1)                1.0922 -0.007772  0.0114    1.1036   
     7. B(H   7,C   1)                1.0923 -0.006930  0.0102    1.1025   
     8. B(C   8,C   5)                1.5277  0.001319 -0.0018    1.5259   
     9. B(H   9,C   5)                1.0914 -0.007171  0.0105    1.1020   
    10. B(H  10,C   5)                1.0930 -0.008517  0.0126    1.1055   
    11. B(N  11,C   8)                1.4588 -0.000859  0.0010    1.4598   
    12. B(H  12,C   8)                1.1026 -0.004608  0.0070    1.1096   
    13. B(H  13,C   8)                1.0945 -0.006329  0.0094    1.1039   
    14. B(H  14,N  11)                1.0147 -0.003162  0.0039    1.0187   
    15. B(H  15,N  11)                1.0137 -0.002851  0.0035    1.0172   
    16. A(H   3,C   0,H   4)          108.53  0.001883   -0.43    108.10   
    17. A(C   1,C   0,H   4)          110.46 -0.001087    0.18    110.64   
    18. A(C   1,C   0,H   2)          110.24 -0.002718    0.53    110.77   
    19. A(H   2,C   0,H   3)          108.11  0.002166   -0.34    107.78   
    20. A(H   2,C   0,H   4)          108.35  0.001892   -0.33    108.02   
    21. A(C   1,C   0,H   3)          111.07 -0.001911    0.34    111.41   
    22. A(C   0,C   1,C   5)          113.33 -0.002184    0.60    113.93   
    23. A(H   6,C   1,H   7)          107.62  0.000944   -0.80    106.82   
    24. A(C   5,C   1,H   7)          108.35  0.000071    0.17    108.52   
    25. A(C   0,C   1,H   7)          108.76  0.000230    0.16    108.92   
    26. A(C   5,C   1,H   6)          109.19  0.000939   -0.21    108.99   
    27. A(C   0,C   1,H   6)          109.42  0.000149   -0.00    109.42   
    28. A(C   8,C   5,H   9)          107.60  0.001432   -0.15    107.45   
    29. A(C   1,C   5,H   9)          109.26 -0.000839    0.45    109.71   
    30. A(C   1,C   5,C   8)          113.50 -0.002529    0.60    114.10   
    31. A(H   9,C   5,H  10)          107.70  0.000493   -0.57    107.13   
    32. A(C   8,C   5,H  10)          109.17  0.000581   -0.18    108.99   
    33. A(C   1,C   5,H  10)          109.42  0.001000   -0.20    109.23   
    34. A(H  12,C   8,H  13)          107.84  0.000888   -0.71    107.13   
    35. A(N  11,C   8,H  13)          107.34 -0.000997    0.41    107.75   
    36. A(C   5,C   8,H  13)          109.39  0.001594   -0.42    108.96   
    37. A(N  11,C   8,H  12)          112.62 -0.000472    0.36    112.98   
    38. A(C   5,C   8,H  12)          109.75  0.000895   -0.19    109.56   
    39. A(C   5,C   8,N  11)          109.81 -0.001819    0.52    110.33   
    40. A(H  14,N  11,H  15)          107.48  0.002548   -0.60    106.88   
    41. A(C   8,N  11,H  15)          109.94 -0.002723    0.41    110.35   
    42. A(C   8,N  11,H  14)          109.52 -0.001742    0.24    109.76   
    43. D(H   6,C   1,C   0,H   4)   -177.97  0.000423   -0.54   -178.50   
    44. D(C   5,C   1,C   0,H   3)     64.63  0.000624   -0.58     64.05   
    45. D(H   7,C   1,C   0,H   3)   -174.80 -0.000543    0.14   -174.67   
    46. D(H   6,C   1,C   0,H   2)     62.32  0.000503   -0.58     61.74   
    47. D(C   5,C   1,C   0,H   4)    -55.84  0.000240   -0.39    -56.23   
    48. D(H   6,C   1,C   0,H   3)    -57.49  0.000807   -0.73    -58.22   
    49. D(H   7,C   1,C   0,H   4)     64.72 -0.000927    0.33     65.05   
    50. D(C   5,C   1,C   0,H   2)   -175.56  0.000320   -0.43   -175.99   
    51. D(H   7,C   1,C   0,H   2)    -54.99 -0.000847    0.29    -54.70   
    52. D(H   9,C   5,C   1,H   6)    -65.30 -0.000540    0.68    -64.63   
    53. D(C   8,C   5,C   1,H   7)    171.73  0.000714    0.22    171.95   
    54. D(C   8,C   5,C   1,H   6)     54.78 -0.000968    1.19     55.98   
    55. D(C   8,C   5,C   1,C   0)    -67.47 -0.000351    0.93    -66.53   
    56. D(H   9,C   5,C   1,H   7)     51.65  0.001141   -0.29     51.35   
    57. D(H  10,C   5,C   1,H   7)    -66.05  0.000453    0.25    -65.80   
    58. D(H  10,C   5,C   1,H   6)    177.00 -0.001228    1.22    178.22   
    59. D(H  10,C   5,C   1,C   0)     54.75 -0.000611    0.96     55.71   
    60. D(H   9,C   5,C   1,C   0)    172.45  0.000076    0.42    172.86   
    61. D(H  13,C   8,C   5,H   9)     68.53 -0.002192    0.25     68.78   
    62. D(H  13,C   8,C   5,C   1)    -52.49 -0.000537   -0.59    -53.08   
    63. D(H  12,C   8,C   5,H  10)    -56.72  0.002041   -1.84    -58.56   
    64. D(H  12,C   8,C   5,H   9)   -173.34  0.000365   -0.98   -174.33   
    65. D(H  12,C   8,C   5,C   1)     65.63  0.002019   -1.82     63.81   
    66. D(N  11,C   8,C   5,H  10)     67.60  0.000817   -1.16     66.43   
    67. D(N  11,C   8,C   5,H   9)    -49.02 -0.000859   -0.31    -49.33   
    68. D(H  13,C   8,C   5,H  10)   -174.85 -0.000516   -0.61   -175.46   
    69. D(N  11,C   8,C   5,C   1)   -170.05  0.000796   -1.14   -171.19   
    70. D(H  15,N  11,C   8,C   5)   -179.18  0.000128   -0.20   -179.38   
    71. D(H  14,N  11,C   8,H  13)    179.88  0.000254   -0.56    179.32   
    72. D(H  14,N  11,C   8,H  12)     61.34  0.000080   -0.16     61.18   
    73. D(H  14,N  11,C   8,C   5)    -61.30  0.000576   -0.54    -61.84   
    74. D(H  15,N  11,C   8,H  13)     62.00 -0.000193   -0.22     61.78   
    75. D(H  15,N  11,C   8,H  12)    -56.54 -0.000368    0.18    -56.36   
    ----------------------------------------------------------------------------

         *************************************************************
         *                GEOMETRY OPTIMIZATION CYCLE   2            *
         *************************************************************
---------------------------------
CARTESIAN COORDINATES (ANGSTROEM)
---------------------------------
  C     -2.153122    0.264906   -0.584893
  C     -1.372697   -0.453026    0.517927
  H     -3.185519   -0.112342   -0.641361
  H     -1.686141    0.115002   -1.570430
  H     -2.196436    1.348166   -0.387883
  C      0.046485    0.083956    0.724918
  H     -1.318688   -1.530895    0.287166
  H     -1.925168   -0.357215    1.467239
  C      0.984303   -0.163898   -0.452984
  H      0.497479   -0.389861    1.611741
  H     -0.000823    1.170250    0.924745
  N      2.354558    0.188240   -0.093205
  H      0.615336    0.385715   -1.343543
  H      0.967897   -1.238628   -0.704480
  H      2.406881    1.179753    0.134445
  H      2.978307    0.032803   -0.881582

----------------------------
CARTESIAN COORDINATES (A.U.)
----------------------------
  NO LB      ZA    FRAG     MASS         X           Y           Z
   0 C     6.0000    0    12.011   -4.068810    0.500599   -1.105288
   1 C     6.0000    0    12.011   -2.594021   -0.856095    0.978741
   2 H     1.0000    0     1.008   -6.019758   -0.212295   -1.211996
   3 H     1.0000    0     1.008   -3.186345    0.217322   -2.967682
   4 H     1.0000    0     1.008   -4.150662    2.547664   -0.732992
   5 C     6.0000    0    12.011    0.087844    0.158654    1.369897
   6 H     1.0000    0     1.008   -2.491959   -2.892972    0.542664
   7 H     1.0000    0     1.008   -3.638040   -0.675039    2.772679
   8 C     6.0000    0    12.011    1.860064   -0.309722   -0.856017
   9 H     1.0000    0     1.008    0.940098   -0.736731    3.045748
  10 H     1.0000    0     1.008   -0.001555    2.211453    1.747514
  11 N     7.0000    0    14.007    4.449469    0.355722   -0.176132
  12 H     1.0000    0     1.008    1.162816    0.728895   -2.538929
  13 H     1.0000    0     1.008    1.829061   -2.340668   -1.331273
  14 H     1.0000    0     1.008    4.548347    2.229411    0.254064
  15 H     1.0000    0     1.008    5.628184    0.061989   -1.665949

--------------------------------
INTERNAL COORDINATES (ANGSTROEM)
--------------------------------
 C      0   0   0     0.000000000000     0.00000000     0.00000000
 C      1   0   0     1.529935219860     0.00000000     0.00000000
 H      1   2   0     1.100612595863   110.77058880     0.00000000
 H      1   2   3     1.100828777903   111.41029565   240.03634927
 H      1   2   3     1.101880855966   110.64016061   119.75669718
 C      2   1   3     1.531427893188   113.92892958   184.00981649
 H      2   1   3     1.103616855799   109.42359638    61.73903867
 H      2   1   3     1.102540557844   108.92093999   305.29651250
 C      6   2   1     1.525906050320   114.09553931   293.46834034
 H      6   2   1     1.101976394965   109.71058614   172.86179504
 H      6   2   1     1.105533525199   109.22715695    55.71288591
 N      9   6   2     1.459807829983   110.33226147   188.80800286
 H      9   6   2     1.109642446753   109.55522565    63.81463629
 H      9   6   2     1.103885750254   108.95796100   306.91718087
 H     12   9   6     1.018656577646   109.76037493   298.16345087
 H     12   9   6     1.017232899457   110.34652890   180.62356022

---------------------------
INTERNAL COORDINATES (A.U.)
---------------------------
 C      0   0   0     0.000000000000     0.00000000     0.00000000
 C      1   0   0     2.891158568176     0.00000000     0.00000000
 H      1   2   0     2.079856385724   110.77058880     0.00000000
 H      1   2   3     2.080264910575   111.41029565   240.03634927
 H      1   2   3     2.082253049987   110.64016061   119.75669718
 C      2   1   3     2.893979311972   113.92892958   184.00981649
 H      2   1   3     2.085533614239   109.42359638    61.73903867
 H      2   1   3     2.083499705866   108.92093999   305.29651250
 C      6   2   1     2.883544541198   114.09553931   293.46834034
 H      6   2   1     2.082433592530   109.71058614   172.86179504
 H      6   2   1     2.089155594494   109.22715695    55.71288591
 N      9   6   2     2.758637006822   110.33226147   188.80800286
 H      9   6   2     2.096920330938   109.55522565    63.81463629
 H      9   6   2     2.086041751118   108.95796100   306.91718087
 H     12   9   6     1.924981956268   109.76037493   298.16345087
 H     12   9   6     1.922291594389   110.34652890   180.62356022



           ************************************************************
           *        Program running with 4 parallel MPI-processes     *
           *              working on a common directory               *
           ************************************************************
------------------------------------------------------------------------------
                   ___                                                        
                  /   \      - P O W E R E D   B Y -                         
                 /     \                                                     
                 |  |  |   _    _      __       _____    __    __             
                 |  |  |  | |  | |    /  \     |  _  \  |  |  /  |          
                  \  \/   | |  | |   /    \    | | | |  |  | /  /          
                 / \  \   | |__| |  /  /\  \   | |_| |  |  |/  /          
                |  |  |   |  __  | /  /__\  \  |    /   |      \           
                |  |  |   | |  | | |   __   |  |    \   |  |\   \          
                \     /   | |  | | |  |  |  |  | |\  \  |  | \   \       
                 \___/    |_|  |_| |__|  |__|  |_| \__\ |__|  \__/        
                                                                              
[...]
     37       0.035177   0.075373   0.116589  -0.077497   0.024080   0.618551
     38       0.199080   0.075322   0.108882  -0.026265   0.003313   0.249475
     39      -0.438412  -0.005215  -0.094654  -0.034521   0.039699   0.337772
     40      -0.077541  -0.025465  -0.053836   0.018512  -0.000621  -0.155136
     41       0.184798   0.095027   0.170227  -0.066104   0.009944   0.573698
     42       0.146992   0.013484   0.049465   0.001077  -0.010119   0.028619
     43       0.012435   0.001394   0.004537   0.000208  -0.002173  -0.001628
     44       0.008243  -0.010129  -0.005844   0.001128   0.002829  -0.013352
     45      -0.186710  -0.021638  -0.056311   0.001255   0.016244   0.043728
     46      -0.049291   0.001140  -0.009865   0.002063   0.004474   0.032659
     47      -0.092906  -0.011609  -0.028473  -0.000128   0.007532   0.016741
                 36         37         38         39         40         41    
      0      -0.000251   0.000937   0.000718   0.022594  -0.009506  -0.002902
      1      -0.000057   0.000175  -0.001248  -0.026392   0.021319   0.002254
      2      -0.000293  -0.002739   0.001420   0.028369  -0.017204  -0.000124
      3       0.001453  -0.000065   0.001567  -0.012811  -0.018055   0.001680
      4      -0.001776  -0.000457  -0.004919  -0.029228  -0.054374  -0.003112
      5      -0.001619   0.000565  -0.006582   0.013540   0.023852  -0.003405
      6      -0.000451   0.009639  -0.018738  -0.447262   0.209275   0.032366
      7       0.000484   0.003358  -0.008318  -0.163687   0.074123   0.011981
      8       0.001772  -0.002058  -0.000378  -0.021733   0.013759   0.002841
      9       0.003034  -0.016460   0.011198   0.203308  -0.117776  -0.002922
     10       0.001307   0.005607  -0.004050  -0.067355   0.041032   0.001973
     11       0.001178   0.033741  -0.023129  -0.410363   0.243165   0.005357
     12       0.000402   0.000343   0.001315  -0.014259   0.011285   0.001351
     13       0.000111  -0.010503   0.023328   0.542135  -0.359043  -0.040004
     14      -0.000768  -0.002077   0.006712   0.103258  -0.068362  -0.007419
     15      -0.001689  -0.000015   0.010452  -0.001217  -0.001216   0.007177
     16       0.000357   0.003701   0.059814   0.000959   0.006355  -0.004324
     17       0.005215  -0.001791   0.041100  -0.003500  -0.004214   0.014047
     18      -0.009395  -0.001144  -0.000467  -0.012410  -0.024036  -0.003263
     19      -0.001668   0.007241   0.054656   0.384783   0.689837   0.029401
     20      -0.001577   0.001494   0.009815   0.085610   0.148282   0.006123
     21       0.009541  -0.000380  -0.031685   0.150491   0.239460  -0.020334
     22       0.002249  -0.001124   0.007291  -0.035380  -0.055219   0.002530
     23       0.002939  -0.003603   0.062989  -0.255317  -0.413081   0.034726
     24      -0.011179   0.024913   0.001723   0.000115  -0.000331  -0.007548
     25       0.011309  -0.016573  -0.009340   0.004318  -0.000520   0.086485
     26      -0.022592   0.068831  -0.002734   0.001499  -0.002219   0.000638
     27      -0.009082   0.012336  -0.147520   0.018954   0.024912  -0.085418
     28       0.002950  -0.011135   0.180759  -0.022471  -0.034836   0.094359
     29       0.010428   0.020877  -0.293408   0.039620   0.059020  -0.165408
     30       0.019803  -0.000665   0.026966   0.000818  -0.000573   0.004325
     31       0.009027  -0.041235  -0.892392   0.011588  -0.040137  -0.038400
     32      -0.005252  -0.009076  -0.181726   0.001512  -0.010333  -0.006798
     33       0.072339   0.001533  -0.000165   0.000000  -0.000168  -0.000270
     34       0.036413   0.000277   0.000145  -0.000025   0.000088  -0.001671
     35      -0.004030  -0.000009   0.000001  -0.000046   0.000195  -0.000478
     36      -0.047338  -0.339828  -0.003113  -0.003732   0.008262   0.081301
     37       0.015788   0.455230  -0.000955   0.004526  -0.010366  -0.100276
     38      -0.011531  -0.773471  -0.001764  -0.007281   0.018019   0.195699
     39       0.055236   0.006522  -0.002027   0.000108  -0.002048   0.016674
     40      -0.002423  -0.259812   0.115576  -0.054776   0.018331  -0.921086
     41       0.040073  -0.037970   0.024417  -0.010472   0.004792  -0.194329
     42      -0.610962   0.002261  -0.003807   0.000254   0.000411  -0.003670
     43      -0.026482  -0.002476  -0.003781   0.000860   0.000283   0.013804
     44       0.361802  -0.006468   0.002086  -0.000114  -0.000063   0.000552
     45      -0.276978  -0.000999  -0.002134   0.000290   0.000002   0.002338
     46      -0.624504   0.007748  -0.002070  -0.000009  -0.000894   0.000161
     47      -0.113240   0.005816  -0.001272   0.000403  -0.000462   0.002363
                 42         43         44         45         46         47    
      0      -0.005572  -0.001329   0.018796   0.079023  -0.000024   0.000018
      1       0.011924  -0.003824   0.076616   0.011266  -0.000000   0.000015
      2       0.015252  -0.001599   0.046127  -0.047020   0.000040  -0.000016
      3       0.035139  -0.000552  -0.005447   0.005448   0.000025  -0.000046
      4      -0.049473   0.011241   0.013670  -0.003545   0.000112  -0.000009
      5      -0.066336   0.003746   0.011011  -0.009487   0.000084  -0.000052
      6      -0.011832   0.027566  -0.442943  -0.664891   0.000189   0.000000
      7       0.000196   0.008782  -0.146128  -0.238122   0.000067  -0.000024
      8       0.002341   0.000799  -0.019381  -0.047111  -0.000096   0.000091
      9       0.079634  -0.008063   0.199146  -0.289944   0.000152  -0.000043
     10      -0.023793   0.002184  -0.050851   0.098644  -0.000105  -0.000014
     11      -0.159189   0.015598  -0.399340   0.616143  -0.000486   0.000183
     12       0.000879   0.000408   0.024964   0.011560  -0.000026   0.000021
     13      -0.120145   0.030580  -0.719246   0.003848   0.000031  -0.000057
     14      -0.021901   0.006690  -0.128005  -0.006958   0.000031  -0.000022
     15      -0.004478  -0.030651  -0.000737  -0.000773  -0.000033  -0.000072
     16       0.000331   0.064522   0.002225   0.000351   0.000107   0.000280
     17      -0.010184  -0.053084  -0.000623  -0.001074  -0.000140   0.000269
     18      -0.010106   0.000557   0.005703  -0.001609   0.000350   0.000310
     19       0.523167  -0.125876  -0.144790   0.034329  -0.000436   0.000252
     20       0.102187  -0.026055  -0.027799   0.006966  -0.000191   0.000018
     21      -0.403523   0.009893   0.059661  -0.059365  -0.000345   0.000159
     22       0.071879  -0.002871  -0.011148   0.010116  -0.000024   0.000124
     23       0.686370  -0.018366  -0.104459   0.104354  -0.000010   0.000124
     24      -0.000278  -0.003182   0.000226  -0.000670   0.002459  -0.000197
     25      -0.002050   0.017270  -0.000125   0.001933  -0.001675  -0.001263
     26       0.000475  -0.002841   0.000884  -0.001372   0.002110  -0.000915
     27       0.053135   0.355149   0.006991   0.005292  -0.000139  -0.000362
     28      -0.059300  -0.399472  -0.008096  -0.005921   0.000170  -0.000294
     29       0.106669   0.711914   0.012318   0.010526  -0.000600   0.000195
     30      -0.000190   0.008112  -0.002263   0.000089  -0.000921  -0.001336
     31       0.048245  -0.372730  -0.021948   0.000999  -0.001582  -0.001037
     32       0.008679  -0.086232  -0.005590  -0.000086   0.000819   0.000634
     33       0.000054   0.000060   0.000025   0.000074  -0.031192   0.034301
     34       0.000121  -0.000468  -0.000027  -0.000073  -0.045079  -0.053203
     35       0.000053   0.000133  -0.000082   0.000163   0.020025  -0.049811
     36      -0.003522   0.026910  -0.005283   0.008427   0.000344  -0.000491
     37       0.003872  -0.038782   0.006188  -0.010908   0.005766   0.000248
     38      -0.006985   0.068286  -0.009942   0.019728  -0.006152   0.000996
     39      -0.001982   0.006024   0.001091   0.000005  -0.002429  -0.000129
     40       0.022079  -0.159372  -0.004334  -0.011856   0.008432   0.009224
     41       0.005917  -0.034639  -0.000939  -0.002644   0.000483   0.002126
     42       0.000715  -0.003222  -0.000393  -0.000108   0.017358   0.021584
     43      -0.000042   0.002239  -0.000244   0.000713   0.767235   0.604247
     44      -0.000432   0.000115   0.000086  -0.000134   0.162003   0.099756
     45       0.000396   0.001386   0.000009   0.000180   0.389987  -0.492808
     46       0.000070  -0.001148   0.000132  -0.000062  -0.135793   0.138269
     47      -0.000015   0.000839   0.000237  -0.000583  -0.459022   0.596578


-----------
IR SPECTRUM
-----------

 Mode   freq       eps      Int      T**2         TX        TY        TZ
       cm**-1   L/(mol*cm) km/mol    a.u.
----------------------------------------------------------------------------
  6:     70.77   0.000952    4.81  0.004196  (-0.003664 -0.055713 -0.032843)
  7:    132.90   0.000210    1.06  0.000494  ( 0.022152 -0.001574 -0.000887)
  8:    215.54   0.001085    5.48  0.001570  (-0.013427  0.027003  0.025704)
  9:    240.47   0.005795   29.29  0.007520  (-0.049184  0.054997  0.045568)
 10:    299.28   0.001281    6.47  0.001336  (-0.025136  0.021171  0.015983)
 11:    355.80   0.001623    8.20  0.001423  ( 0.034259 -0.012426 -0.009754)
 12:    495.78   0.000700    3.54  0.000441  (-0.018560  0.009791 -0.000618)
 13:    754.25   0.000830    4.20  0.000344  (-0.015848  0.009426 -0.001892)
 14:    799.16   0.002967   14.99  0.001159  (-0.016311  0.000721 -0.029866)
 15:    839.84   0.022180  112.09  0.008242  ( 0.068527 -0.016516  0.057209)
 16:    901.67   0.000923    4.67  0.000320  (-0.006289  0.008070 -0.014660)
 17:    960.10   0.000497    2.51  0.000162  (-0.002631  0.007288 -0.010081)
 18:    984.78   0.002764   13.97  0.000876  (-0.024949  0.002703 -0.015685)
 19:   1070.10   0.000103    0.52  0.000030  (-0.003119  0.002362 -0.003829)
 20:   1109.18   0.000554    2.80  0.000156  (-0.012299 -0.000550  0.002046)
 21:   1143.61   0.002936   14.84  0.000801  (-0.027581 -0.001884 -0.006068)
 22:   1154.83   0.001198    6.05  0.000324  ( 0.002843 -0.011288  0.013715)
 23:   1219.48   0.000311    1.57  0.000080  (-0.008112 -0.002912 -0.002327)
 24:   1273.86   0.000026    0.13  0.000006  ( 0.001005 -0.001303  0.001898)
 25:   1298.16   0.000028    0.14  0.000007  ( 0.000004 -0.000597  0.002506)
 26:   1333.76   0.000534    2.70  0.000125  (-0.008822 -0.003605  0.005846)
 27:   1354.09   0.000319    1.61  0.000073  (-0.008498 -0.000908 -0.000642)
 28:   1386.34   0.000002    0.01  0.000001  ( 0.000492  0.000413 -0.000346)
 29:   1418.66   0.001403    7.09  0.000309  (-0.012601  0.007719 -0.009495)
 30:   1453.44   0.002017   10.19  0.000433  ( 0.019642  0.006491 -0.002262)
 31:   1467.17   0.000187    0.94  0.000040  (-0.003550 -0.004970  0.001558)
 32:   1473.02   0.000251    1.27  0.000053  ( 0.002532  0.006837 -0.000084)
 33:   1479.75   0.001911    9.66  0.000403  ( 0.001570  0.013756  0.014535)
 34:   1488.07   0.001162    5.87  0.000244  (-0.012738 -0.008560  0.002843)
 35:   1504.78   0.000319    1.61  0.000066  (-0.007428  0.000848  0.003207)
 36:   1643.53   0.005630   28.45  0.001069  (-0.020798 -0.022950  0.010476)
 37:   2997.17   0.014158   71.55  0.001474  ( 0.020384 -0.002433  0.032445)
 38:   3048.05   0.004772   24.12  0.000489  ( 0.006338  0.016313  0.013502)
 39:   3061.90   0.007031   35.53  0.000717  ( 0.005491 -0.019438  0.017566)
 40:   3064.72   0.003053   15.43  0.000311  (-0.013737 -0.010958  0.001462)
 41:   3085.27   0.006487   32.78  0.000656  (-0.001583  0.025381  0.003078)
 42:   3116.44   0.004172   21.08  0.000418  ( 0.007457 -0.009866 -0.016274)
 43:   3126.04   0.007161   36.19  0.000715  (-0.008110  0.021921 -0.012982)
 44:   3155.04   0.006417   32.43  0.000635  ( 0.003267  0.020909  0.013670)
 45:   3164.66   0.005801   29.32  0.000572  ( 0.020092  0.002011 -0.012819)
 46:   3559.64   0.000105    0.53  0.000009  (-0.000701  0.001129 -0.002728)
 47:   3643.95   0.000322    1.63  0.000028  (-0.001748  0.003288  0.003707)

* The epsilon (eps) is given for a Dirac delta lineshape.
** The dipole moment derivative (T) already includes vibrational overlap.

The first frequency considered to be a vibration is 6
The total number of vibrations considered is 42


--------------------------
THERMOCHEMISTRY AT 298.15K
--------------------------

Temperature         ... 298.15 K
Pressure            ... 1.00 atm
Total Mass          ... 73.14 AMU

Throughout the following assumptions are being made:
  (1) The electronic state is orbitally nondegenerate
  (2) There are no thermally accessible electronically excited states
  (3) Hindered rotations indicated by low frequency modes are not
      treated as such but are treated as vibrations and this may
      cause some error
  (4) All equations used are the standard statistical mechanics
      equations for an ideal gas
  (5) All vibrations are strictly harmonic

freq.      70.77  E(vib)   ...       0.50 
freq.     132.90  E(vib)   ...       0.42 
freq.     215.54  E(vib)   ...       0.34 
freq.     240.47  E(vib)   ...       0.31 
freq.     299.28  E(vib)   ...       0.26 
freq.     355.80  E(vib)   ...       0.22 
freq.     495.78  E(vib)   ...       0.14 
freq.     754.25  E(vib)   ...       0.06 
freq.     799.16  E(vib)   ...       0.05 
freq.     839.84  E(vib)   ...       0.04 
freq.     901.67  E(vib)   ...       0.03 
freq.     960.10  E(vib)   ...       0.03 
freq.     984.78  E(vib)   ...       0.02 
freq.    1070.10  E(vib)   ...       0.02 
freq.    1109.18  E(vib)   ...       0.02 
freq.    1143.61  E(vib)   ...       0.01 
freq.    1154.83  E(vib)   ...       0.01 
freq.    1219.48  E(vib)   ...       0.01 
freq.    1273.86  E(vib)   ...       0.01 
freq.    1298.16  E(vib)   ...       0.01 
freq.    1333.76  E(vib)   ...       0.01 
freq.    1354.09  E(vib)   ...       0.01 
freq.    1386.34  E(vib)   ...       0.00 
freq.    1418.66  E(vib)   ...       0.00 
freq.    1453.44  E(vib)   ...       0.00 
freq.    1467.17  E(vib)   ...       0.00 
freq.    1473.02  E(vib)   ...       0.00 
freq.    1479.75  E(vib)   ...       0.00 
freq.    1488.07  E(vib)   ...       0.00 
freq.    1504.78  E(vib)   ...       0.00 
freq.    1643.53  E(vib)   ...       0.00 
freq.    2997.17  E(vib)   ...       0.00 
freq.    3048.05  E(vib)   ...       0.00 
freq.    3061.90  E(vib)   ...       0.00 
freq.    3064.72  E(vib)   ...       0.00 
freq.    3085.27  E(vib)   ...       0.00 
freq.    3116.44  E(vib)   ...       0.00 
freq.    3126.04  E(vib)   ...       0.00 
freq.    3155.04  E(vib)   ...       0.00 
freq.    3164.66  E(vib)   ...       0.00 
freq.    3559.64  E(vib)   ...       0.00 
freq.    3643.95  E(vib)   ...       0.00 

------------
INNER ENERGY
------------

The inner energy is: U= E(el) + E(ZPE) + E(vib) + E(rot) + E(trans)
    E(el)   - is the total energy from the electronic structure calculation
              = E(kin-el) + E(nuc-el) + E(el-el) + E(nuc-nuc)
    E(ZPE)  - the the zero temperature vibrational energy from the frequency calculation
    E(vib)  - the the finite temperature correction to E(ZPE) due to population
              of excited vibrational states
    E(rot)  - is the rotational thermal energy
    E(trans)- is the translational thermal energy

Summary of contributions to the inner energy U:
Electronic energy                ...   -213.58926442 Eh
Zero point energy                ...      0.15114514 Eh      94.84 kcal/mol
Thermal vibrational correction   ...      0.00408154 Eh       2.56 kcal/mol
Thermal rotational correction    ...      0.00141627 Eh       0.89 kcal/mol
Thermal translational correction ...      0.00141627 Eh       0.89 kcal/mol
-----------------------------------------------------------------------
Total thermal energy                   -213.43120520 Eh


Summary of corrections to the electronic energy:
(perhaps to be used in another calculation)
Total thermal correction                  0.00691409 Eh       4.34 kcal/mol
Non-thermal (ZPE) correction              0.15114514 Eh      94.84 kcal/mol
-----------------------------------------------------------------------
Total correction                          0.15805923 Eh      99.18 kcal/mol


--------
ENTHALPY
--------

The enthalpy is H = U + kB*T
                kB is Boltzmann's constant
Total free energy                 ...   -213.43120520 Eh 
Thermal Enthalpy correction       ...      0.00094421 Eh       0.59 kcal/mol
-----------------------------------------------------------------------
Total Enthalpy                    ...   -213.43026099 Eh


Note: Only C1 symmetry has been detected, increase convergence thresholds 
      if your molecule has a higher symmetry. Symmetry factor of 1.0 is   
      used for the rotational entropy correction. 
 

Note: Rotational entropy computed according to Herzberg 
Infrared and Raman Spectra, Chapter V,1, Van Nostrand Reinhold, 1945 
Point Group:  C1, Symmetry Number:   1  
Rotational constants in cm-1:     0.405634     0.077076     0.071415 

Vibrational entropy computed according to the QRRHO of S. Grimme
Chem.Eur.J. 2012 18 9955


-------
ENTROPY
-------

The entropy contributions are T*S = T*(S(el)+S(vib)+S(rot)+S(trans))
     S(el)   - electronic entropy
     S(vib)  - vibrational entropy
     S(rot)  - rotational entropy
     S(trans)- translational entropy
The entropies will be listed as multiplied by the temperature to get
units of energy

Electronic entropy                ...      0.00000000 Eh      0.00 kcal/mol
Vibrational entropy               ...      0.00699810 Eh      4.39 kcal/mol
Rotational entropy                ...      0.01239269 Eh      7.78 kcal/mol
Translational entropy             ...      0.01842822 Eh     11.56 kcal/mol
-----------------------------------------------------------------------
Final entropy term                ...      0.03781901 Eh     23.73 kcal/mol

In case the symmetry of your molecule has not been determined correctly
or in case you have a reason to use a different symmetry number we print 
out the resulting rotational entropy values for sn=1,12 :
 --------------------------------------------------------
|  sn= 1 | S(rot)=       0.01239269 Eh      7.78 kcal/mol|
|  sn= 2 | S(rot)=       0.01173823 Eh      7.37 kcal/mol|
|  sn= 3 | S(rot)=       0.01135540 Eh      7.13 kcal/mol|
|  sn= 4 | S(rot)=       0.01108378 Eh      6.96 kcal/mol|
|  sn= 5 | S(rot)=       0.01087309 Eh      6.82 kcal/mol|
|  sn= 6 | S(rot)=       0.01070095 Eh      6.71 kcal/mol|
|  sn= 7 | S(rot)=       0.01055540 Eh      6.62 kcal/mol|
|  sn= 8 | S(rot)=       0.01042932 Eh      6.54 kcal/mol|
|  sn= 9 | S(rot)=       0.01031811 Eh      6.47 kcal/mol|
|  sn=10 | S(rot)=       0.01021863 Eh      6.41 kcal/mol|
|  sn=11 | S(rot)=       0.01012864 Eh      6.36 kcal/mol|
|  sn=12 | S(rot)=       0.01004649 Eh      6.30 kcal/mol|
 --------------------------------------------------------


-------------------
GIBBS FREE ENERGY
-------------------

The Gibbs free energy is G = H - T*S

Total enthalpy                    ...   -213.43026099 Eh 
Total entropy correction          ...     -0.03781901 Eh    -23.73 kcal/mol
-----------------------------------------------------------------------
Final Gibbs free energy         ...   -213.46808000 Eh

For completeness - the Gibbs free energy minus the electronic energy
G-E(el)                           ...      0.12118442 Eh     76.04 kcal/mol


Timings for individual modules:

Sum of individual times         ...      231.556 sec (=   3.859 min)
GTO integral calculation        ...        5.378 sec (=   0.090 min)   2.3 %
SCF iterations                  ...      121.787 sec (=   2.030 min)  52.6 %
SCF Gradient evaluation         ...       31.739 sec (=   0.529 min)  13.7 %
Geometry relaxation             ...        0.529 sec (=   0.009 min)   0.2 %
Analytical frequency calculation...       72.123 sec (=   1.202 min)  31.1 %
                             ****ORCA TERMINATED NORMALLY****
TOTAL RUN TIME: 0 days 0 hours 3 minutes 54 seconds 546 msec
