
                                 *****************
                                 * O   R   C   A *
                                 *****************

                                            #,                                       
                                            ###                                      
                                            ####                                     
                                            #####                                    
                                            ######                                   
                                           ########,                                 
                                     ,,################,,,,,                         
                               ,,#################################,,                 
                          ,,##########################################,,             
                       ,#########################################, ''#####,          
                    ,#############################################,,   '####,        
                  ,##################################################,,,,####,       
                ,###########''''           ''''###############################       
              ,#####''   ,,,,##########,,,,          '''####'''          '####       
            ,##' ,,,,###########################,,,                        '##       
           ' ,,###''''                  '''############,,,                           
         ,,##''                                '''############,,,,        ,,,,,,###''
      ,#''                                            '''#######################'''  
     '                                                          ''''####''''         
             ,#######,   #######,   ,#######,      ##                                
            ,#'     '#,  ##    ##  ,#'     '#,    #''#        ######   ,####,        
            ##       ##  ##   ,#'  ##            #'  '#       #        #'  '#        
            ##       ##  #######   ##           ,######,      #####,   #    #        
            '#,     ,#'  ##    ##  '#,     ,#' ,#      #,         ##   #,  ,#        
             '#######'   ##     ##  '#######'  #'      '#     #####' # '####'        



                  #######################################################
                  #                        -***-                        #
                  #          Department of theory and spectroscopy      #
                  #    Directorship and core code : Frank Neese         #
                  #        Max Planck Institute fuer Kohlenforschung    #
                  #                Kaiser Wilhelm Platz 1               #
                  #                 D-45470 Muelheim/Ruhr               #
                  #                      Germany                        #
                  #                                                     #
                  #                  All rights reserved                #
                  #                        -***-                        #
                  #######################################################


                         Program Version 5.0.4 -  RELEASE  -


 With contributions from (in alphabetic order):
   Daniel Aravena         : Magnetic Suceptibility
   Michael Atanasov       : Ab Initio Ligand Field Theory (pilot matlab implementation)
   Alexander A. Auer      : GIAO ZORA, VPT2 properties, NMR spectrum
   Ute Becker             : Parallelization
   Giovanni Bistoni       : ED, misc. LED, open-shell LED, HFLD
   Martin Brehm           : Molecular dynamics
   Dmytro Bykov           : SCF Hessian
   Vijay G. Chilkuri      : MRCI spin determinant printing, contributions to CSF-ICE
   Dipayan Datta          : RHF DLPNO-CCSD density
   Achintya Kumar Dutta   : EOM-CC, STEOM-CC
   Dmitry Ganyushin       : Spin-Orbit,Spin-Spin,Magnetic field MRCI
   Miquel Garcia          : C-PCM and meta-GGA Hessian, CC/C-PCM, Gaussian charge scheme
   Yang Guo               : DLPNO-NEVPT2, F12-NEVPT2, CIM, IAO-localization
   Andreas Hansen         : Spin unrestricted coupled pair/coupled cluster methods
   Benjamin Helmich-Paris : MC-RPA, TRAH-SCF, COSX integrals
   Lee Huntington         : MR-EOM, pCC
   Robert Izsak           : Overlap fitted RIJCOSX, COSX-SCS-MP3, EOM
   Marcus Kettner         : VPT2
   Christian Kollmar      : KDIIS, OOCD, Brueckner-CCSD(T), CCSD density, CASPT2, CASPT2-K
   Simone Kossmann        : Meta GGA functionals, TD-DFT gradient, OOMP2, MP2 Hessian
   Martin Krupicka        : Initial AUTO-CI
   Lucas Lang             : DCDCAS
   Marvin Lechner         : AUTO-CI (C++ implementation), FIC-MRCC
   Dagmar Lenk            : GEPOL surface, SMD
   Dimitrios Liakos       : Extrapolation schemes; Compound Job, initial MDCI parallelization
   Dimitrios Manganas     : Further ROCIS development; embedding schemes
   Dimitrios Pantazis     : SARC Basis sets
   Anastasios Papadopoulos: AUTO-CI, single reference methods and gradients
   Taras Petrenko         : DFT Hessian,TD-DFT gradient, ASA, ECA, R-Raman, ABS, FL, XAS/XES, NRVS
   Peter Pinski           : DLPNO-MP2, DLPNO-MP2 Gradient
   Christoph Reimann      : Effective Core Potentials
   Marius Retegan         : Local ZFS, SOC
   Christoph Riplinger    : Optimizer, TS searches, QM/MM, DLPNO-CCSD(T), (RO)-DLPNO pert. Triples
   Tobias Risthaus        : Range-separated hybrids, TD-DFT gradient, RPA, STAB
   Michael Roemelt        : Original ROCIS implementation
   Masaaki Saitow         : Open-shell DLPNO-CCSD energy and density
   Barbara Sandhoefer     : DKH picture change effects
   Avijit Sen             : IP-ROCIS
   Kantharuban Sivalingam : CASSCF convergence, NEVPT2, FIC-MRCI
   Bernardo de Souza      : ESD, SOC TD-DFT
   Georgi Stoychev        : AutoAux, RI-MP2 NMR, DLPNO-MP2 response
   Willem Van den Heuvel  : Paramagnetic NMR
   Boris Wezisla          : Elementary symmetry handling
   Frank Wennmohs         : Technical directorship


 We gratefully acknowledge several colleagues who have allowed us to
 interface, adapt or use parts of their codes:
   Stefan Grimme, W. Hujo, H. Kruse, P. Pracht,  : VdW corrections, initial TS optimization,
                  C. Bannwarth, S. Ehlert          DFT functionals, gCP, sTDA/sTD-DF
   Ed Valeev, F. Pavosevic, A. Kumar             : LibInt (2-el integral package), F12 methods
   Garnet Chan, S. Sharma, J. Yang, R. Olivares  : DMRG
   Ulf Ekstrom                                   : XCFun DFT Library
   Mihaly Kallay                                 : mrcc  (arbitrary order and MRCC methods)
   Jiri Pittner, Ondrej Demel                    : Mk-CCSD
   Frank Weinhold                                : gennbo (NPA and NBO analysis)
   Christopher J. Cramer and Donald G. Truhlar   : smd solvation model
   Lars Goerigk                                  : TD-DFT with DH, B97 family of functionals
   V. Asgeirsson, H. Jonsson                     : NEB implementation
   FAccTs GmbH                                   : IRC, NEB, NEB-TS, DLPNO-Multilevel, CI-OPT
                                                   MM, QMMM, 2- and 3-layer-ONIOM, Crystal-QMMM,
                                                   LR-CPCM, SF, NACMEs, symmetry and pop. for TD-DFT,
                                                   nearIR, NL-DFT gradient (VV10), updates on ESD,
                                                   ML-optimized integration grids
   S Lehtola, MJT Oliveira, MAL Marques          : LibXC Library
   Liviu Ungur et al                             : ANISO software


 Your calculation uses the libint2 library for the computation of 2-el integrals
 For citations please refer to: http://libint.valeyev.net

 Your ORCA version has been built with support for libXC version: 5.1.0
 For citations please refer to: https://tddft.org/programs/libxc/

 This ORCA versions uses:
   CBLAS   interface :  Fast vector & matrix operations
   LAPACKE interface :  Fast linear algebra routines
   SCALAPACK package :  Parallel linear algebra routines
   Shared memory     :  Shared parallel matrices
   BLAS/LAPACK       :  OpenBLAS 0.3.15  USE64BITINT DYNAMIC_ARCH NO_AFFINITY SkylakeX SINGLE_THREADED
        Core in use  :  SkylakeX
   Copyright (c) 2011-2014, The OpenBLAS Project




***************************************
The coordinates will be read from file: butylamine_deprot_aq_7.xyz
***************************************


Your calculation utilizes the atom-pairwise dispersion correction
based on tight binding partial charges (D4)
Cite in your paper:
E.Caldeweyher, C.Bannwarth, S.Grimme, J.Chem.Phys., (2017), 147, 034112.
E.Caldeweyher, S.Ehlert, A.Hansen, H.Neugebauer, S.Grimme, J.Chem.Phys., (2018), in progress.
   

XCFun DFT library Copyright 2009-2010 Ulf Ekstrom and contributors.
See http://admol.org/xcfun for more information.
This is free software; see the source code for copying conditions.
There is ABSOLUTELY NO WARRANTY; not even for MERCHANTABILITY or FITNESS FOR A PARTICULAR PURPOSE.
For details see the documentation.
Scientific users of this library should cite U. Ekstrom, L. Visscher, R. Bast, A. J. Thorvaldsen and K. Ruud;
J.Chem.Theor.Comp. 2010, DOI: 10.1021/ct100117s
XCFun Version 0.99 

================================================================================

----- Orbital basis set information -----
Your calculation utilizes the basis: def2-SVP
   F. Weigend and R. Ahlrichs, Phys. Chem. Chem. Phys. 7, 3297 (2005).

----- AuxJ basis set information -----
Your calculation utilizes the auxiliary basis: def2/J
   F. Weigend, Phys. Chem. Chem. Phys. 8, 1057 (2006).

================================================================================
                                        WARNINGS
                       Please study these warnings very carefully!
================================================================================


WARNING: Geometry Optimization
  ===> : Switching off AutoStart
         For restart on a previous wavefunction, please use MOREAD

INFO   : the flag for use of the SHARK integral package has been found!

================================================================================
                                       INPUT FILE
================================================================================
NAME = butylamine_deprot_aq_7.inp
|  1> # ORCA 5.0.4 - /users/bwb16179/postgrad/2024_06/pKa_Reviewer_Comments/CREST_Confs/butylamine/butylamine_deprot_aq_7.inp # write input file
|  2> # Basic Mode
|  3> #
|  4> ! Opt Freq wB97X Def2-SVP D4 SlowConv TightSCF Defgrid2 Def2/J RIJCOSX 
|  5> 
|  6> %PAL NPROCS 4 END
|  7> 
|  8> %maxcore 4500
|  9> 
| 10> %geom
| 11> Maxiter 150
| 12> END
| 13> 
| 14> * xyzfile 0 1 butylamine_deprot_aq_7.xyz
| 15> 
| 16>                          ****END OF INPUT****
================================================================================

                       *****************************
                       * Geometry Optimization Run *
                       *****************************

Geometry optimization settings:
Update method            Update   .... BFGS
Choice of coordinates    CoordSys .... Z-matrix Internals
Initial Hessian          InHess   .... Almoef's Model

Convergence Tolerances:
Energy Change            TolE     ....  5.0000e-06 Eh
Max. Gradient            TolMAXG  ....  3.0000e-04 Eh/bohr
RMS Gradient             TolRMSG  ....  1.0000e-04 Eh/bohr
Max. Displacement        TolMAXD  ....  4.0000e-03 bohr
RMS Displacement         TolRMSD  ....  2.0000e-03 bohr
Strict Convergence                ....  False
------------------------------------------------------------------------------
                        ORCA OPTIMIZATION COORDINATE SETUP
------------------------------------------------------------------------------

The optimization will be done in new redundant internal coordinates
Making redundant internal coordinates   ...  (new redundants) done
Evaluating the initial hessian          ...  (Almloef) done
Evaluating the coordinates              ...  done
Calculating the B-matrix                .... done
Calculating the G-matrix                .... done
Diagonalizing the G-matrix              .... done
Small eigenvalue found = 2.877e-02
The first mode is                       ....   33
The number of degrees of freedom        ....   42

    -----------------------------------------------------------------
                    Redundant Internal Coordinates


    -----------------------------------------------------------------
         Definition                    Initial Value    Approx d2E/dq
    -----------------------------------------------------------------
      1. B(C   1,C   0)                  1.5240         0.381865   
      2. B(H   2,C   0)                  1.0878         0.362989   
      3. B(H   3,C   0)                  1.0875         0.363367   
      4. B(H   4,C   0)                  1.0875         0.363404   
      5. B(C   5,C   1)                  1.5279         0.376525   
      6. B(H   6,C   1)                  1.0934         0.355680   
      7. B(H   7,C   1)                  1.0918         0.357753   
      8. B(C   8,C   5)                  1.5291         0.374786   
      9. B(H   9,C   5)                  1.0908         0.359098   
     10. B(H  10,C   5)                  1.0921         0.357353   
     11. B(N  11,C   8)                  1.4576         0.436600   
     12. B(H  12,C   8)                  1.0943         0.354426   
     13. B(H  13,C   8)                  1.1047         0.341138   
     14. B(H  14,N  11)                  1.0135         0.427185   
     15. B(H  15,N  11)                  1.0141         0.426251   
     16. A(H   3,C   0,H   4)          108.4674         0.291671   
     17. A(C   1,C   0,H   4)          110.6059         0.325980   
     18. A(C   1,C   0,H   2)          110.5173         0.325919   
     19. A(H   2,C   0,H   3)          108.3370         0.291619   
     20. A(H   2,C   0,H   4)          108.4399         0.291623   
     21. A(C   1,C   0,H   3)          110.4008         0.325975   
     22. A(C   0,C   1,C   5)          111.5576         0.365209   
     23. A(H   6,C   1,H   7)          107.9175         0.289978   
     24. A(C   5,C   1,H   7)          109.7009         0.324390   
     25. A(C   0,C   1,H   7)          108.9447         0.325141   
     26. A(C   5,C   1,H   6)          109.2873         0.324080   
     27. A(C   0,C   1,H   6)          109.3582         0.324831   
     28. A(C   8,C   5,H   9)          108.4097         0.324343   
     29. A(C   1,C   5,H   9)          109.5550         0.324590   
     30. A(C   1,C   5,C   8)          113.2774         0.364042   
     31. A(H   9,C   5,H  10)          108.1918         0.290363   
     32. A(C   8,C   5,H  10)          108.3672         0.324083   
     33. A(C   1,C   5,H  10)          108.9152         0.324330   
     34. A(H  12,C   8,H  13)          107.6287         0.287668   
     35. A(N  11,C   8,H  13)          112.9802         0.327823   
     36. A(C   5,C   8,H  13)          108.9636         0.321626   
     37. A(N  11,C   8,H  12)          106.9936         0.329897   
     38. A(C   5,C   8,H  12)          108.9849         0.323646   
     39. A(C   5,C   8,N  11)          111.1482         0.371073   
     40. A(H  14,N  11,H  15)          107.3626         0.301909   
     41. A(C   8,N  11,H  15)          109.7594         0.337244   
     42. A(C   8,N  11,H  14)          109.8137         0.337367   
     43. D(H   6,C   1,C   0,H   4)     59.0752         0.011616   
     44. D(C   5,C   1,C   0,H   3)    -59.8522         0.011616   
     45. D(H   7,C   1,C   0,H   3)     61.4017         0.011616   
     46. D(H   6,C   1,C   0,H   2)    -61.0257         0.011616   
     47. D(C   5,C   1,C   0,H   4)   -179.9117         0.011616   
     48. D(H   6,C   1,C   0,H   3)    179.1347         0.011616   
     49. D(H   7,C   1,C   0,H   4)    -58.6578         0.011616   
     50. D(C   5,C   1,C   0,H   2)     59.9873         0.011616   
     51. D(H   7,C   1,C   0,H   2)   -178.7588         0.011616   
     52. D(H   9,C   5,C   1,H   6)   -176.6603         0.011310   
     53. D(C   8,C   5,C   1,H   7)     62.6465         0.011310   
     54. D(C   8,C   5,C   1,H   6)    -55.4860         0.011310   
     55. D(C   8,C   5,C   1,C   0)   -176.5403         0.011310   
     56. D(H   9,C   5,C   1,H   7)    -58.5278         0.011310   
     57. D(H  10,C   5,C   1,H   7)   -176.6879         0.011310   
     58. D(H  10,C   5,C   1,H   6)     65.1796         0.011310   
     59. D(H  10,C   5,C   1,C   0)    -55.8748         0.011310   
     60. D(H   9,C   5,C   1,C   0)     62.2854         0.011310   
     61. D(H  13,C   8,C   5,H   9)    174.2062         0.011212   
     62. D(H  13,C   8,C   5,C   1)     52.3889         0.011212   
     63. D(H  12,C   8,C   5,H  10)     48.5985         0.011212   
     64. D(H  12,C   8,C   5,H   9)    -68.6088         0.011212   
     65. D(H  12,C   8,C   5,C   1)    169.5738         0.011212   
     66. D(N  11,C   8,C   5,H  10)    166.2751         0.011212   
     67. D(N  11,C   8,C   5,H   9)     49.0678         0.011212   
     68. D(H  13,C   8,C   5,H  10)    -68.5865         0.011212   
     69. D(N  11,C   8,C   5,C   1)    -72.7495         0.011212   
     70. D(H  15,N  11,C   8,C   5)     63.7613         0.016253   
     71. D(H  14,N  11,C   8,H  13)     58.7114         0.016253   
     72. D(H  14,N  11,C   8,H  12)    -59.5550         0.016253   
     73. D(H  14,N  11,C   8,C   5)   -178.4337         0.016253   
     74. D(H  15,N  11,C   8,H  13)    -59.0937         0.016253   
     75. D(H  15,N  11,C   8,H  12)   -177.3601         0.016253   
    -----------------------------------------------------------------

Number of atoms                         .... 16
Number of degrees of freedom            .... 75

         *************************************************************
         *                GEOMETRY OPTIMIZATION CYCLE   1            *
         *************************************************************
---------------------------------
CARTESIAN COORDINATES (ANGSTROEM)
---------------------------------
  C     -2.430041    0.296346    0.127414
  C     -1.030471   -0.241675    0.400159
  H     -2.809352   -0.088894   -0.816554
  H     -2.414618    1.382380    0.072287
  H     -3.114555    0.001298    0.919295
  C     -0.049545    0.162451   -0.699305
  H     -1.068202   -1.332310    0.467474
  H     -0.684231    0.142418    1.361706
  C      1.348382   -0.427137   -0.508540
  H      0.036333    1.249375   -0.730512
  H     -0.437604   -0.176683   -1.662137
  N      2.051419    0.230116    0.586105
  H      1.935044   -0.252990   -1.415757
  H      1.261453   -1.519806   -0.370934
  H      2.983232   -0.157774    0.677980
  H      1.564491    0.057800    1.458798

----------------------------
CARTESIAN COORDINATES (A.U.)
----------------------------
  NO LB      ZA    FRAG     MASS         X           Y           Z
   0 C     6.0000    0    12.011   -4.592113    0.560013    0.240778
   1 C     6.0000    0    12.011   -1.947308   -0.456699    0.756190
   2 H     1.0000    0     1.008   -5.308906   -0.167985   -1.543064
   3 H     1.0000    0     1.008   -4.562967    2.612320    0.136602
   4 H     1.0000    0     1.008   -5.885655    0.002453    1.737216
   5 C     6.0000    0    12.011   -0.093627    0.306987   -1.321494
   6 H     1.0000    0     1.008   -2.018609   -2.517701    0.883399
   7 H     1.0000    0     1.008   -1.293009    0.269132    2.573252
   8 C     6.0000    0    12.011    2.548072   -0.807171   -0.961000
   9 H     1.0000    0     1.008    0.068660    2.360977   -1.380467
  10 H     1.0000    0     1.008   -0.826952   -0.333883   -3.140985
  11 N     7.0000    0    14.007    3.876619    0.434856    1.107578
  12 H     1.0000    0     1.008    3.656704   -0.478082   -2.675393
  13 H     1.0000    0     1.008    2.383800   -2.872017   -0.700964
  14 H     1.0000    0     1.008    5.637491   -0.298150    1.281196
  15 H     1.0000    0     1.008    2.956460    0.109225    2.756729

--------------------------------
INTERNAL COORDINATES (ANGSTROEM)
--------------------------------
 C      0   0   0     0.000000000000     0.00000000     0.00000000
 C      1   0   0     1.524025476326     0.00000000     0.00000000
 H      1   2   0     1.087824752862   110.51726539     0.00000000
 H      1   2   3     1.087541842068   110.40077831   240.16045490
 H      1   2   3     1.087514127003   110.60590064   120.10092077
 C      2   1   3     1.527858429434   111.55759936    59.98734862
 H      2   1   3     1.093361819078   109.35820734   298.97429157
 H      2   1   3     1.091779893671   108.94467595   181.24122986
 C      6   2   1     1.529119055992   113.27735156   183.45968283
 H      6   2   1     1.090758366220   109.55502140    62.28536204
 H      6   2   1     1.092084395235   108.91516198   304.12522249
 N      9   6   2     1.457562454490   111.14823063   287.25049057
 H      9   6   2     1.094323345041   108.98485376   169.57382830
 H      9   6   2     1.104725353105   108.96361069    52.38885111
 H     12   9   6     1.013496913186   109.81366857   181.56631702
 H     12   9   6     1.014092880831   109.75944599    63.76125196

---------------------------
INTERNAL COORDINATES (A.U.)
---------------------------
 C      0   0   0     0.000000000000     0.00000000     0.00000000
 C      1   0   0     2.879990771374     0.00000000     0.00000000
 H      1   2   0     2.055690864609   110.51726539     0.00000000
 H      1   2   3     2.055156240688   110.40077831   240.16045490
 H      1   2   3     2.055103866807   110.60590064   120.10092077
 C      2   1   3     2.887234003033   111.55759936    59.98734862
 H      2   1   3     2.066154403343   109.35820734   298.97429157
 H      2   1   3     2.063164997560   108.94467595   181.24122986
 C      6   2   1     2.889616241985   113.27735156   183.45968283
 H      6   2   1     2.061234590439   109.55502140    62.28536204
 H      6   2   1     2.063740422123   108.91516198   304.12522249
 N      9   6   2     2.754393862072   111.14823063   287.25049057
 H      9   6   2     2.067971424084   108.98485376   169.57382830
 H      9   6   2     2.087628370567   108.96361069    52.38885111
 H     12   9   6     1.915231603496   109.81366857   181.56631702
 H     12   9   6     1.916357819130   109.75944599    63.76125196

---------------------
BASIS SET INFORMATION
---------------------
There are 3 groups of distinct atoms

 Group   1 Type C   : 7s4p1d contracted to 3s2p1d pattern {511/31/1}
 Group   2 Type H   : 4s1p contracted to 2s1p pattern {31/1}
 Group   3 Type N   : 7s4p1d contracted to 3s2p1d pattern {511/31/1}

Atom   0C    basis set group =>   1
Atom   1C    basis set group =>   1
Atom   2H    basis set group =>   2
Atom   3H    basis set group =>   2
Atom   4H    basis set group =>   2
Atom   5C    basis set group =>   1
Atom   6H    basis set group =>   2
Atom   7H    basis set group =>   2
Atom   8C    basis set group =>   1
Atom   9H    basis set group =>   2
Atom  10H    basis set group =>   2
Atom  11N    basis set group =>   3
Atom  12H    basis set group =>   2
Atom  13H    basis set group =>   2
Atom  14H    basis set group =>   2
Atom  15H    basis set group =>   2
---------------------------------
AUXILIARY/J BASIS SET INFORMATION
---------------------------------
There are 3 groups of distinct atoms

 Group   1 Type C   : 12s5p4d2f1g contracted to 6s4p3d1f1g pattern {711111/2111/211/2/1}
 Group   2 Type H   : 5s2p1d contracted to 3s1p1d pattern {311/2/1}
 Group   3 Type N   : 12s5p4d2f1g contracted to 6s4p3d1f1g pattern {711111/2111/211/2/1}

Atom   0C    basis set group =>   1
Atom   1C    basis set group =>   1
Atom   2H    basis set group =>   2
Atom   3H    basis set group =>   2
Atom   4H    basis set group =>   2
Atom   5C    basis set group =>   1
Atom   6H    basis set group =>   2
Atom   7H    basis set group =>   2
Atom   8C    basis set group =>   1
Atom   9H    basis set group =>   2
Atom  10H    basis set group =>   2
Atom  11N    basis set group =>   3
Atom  12H    basis set group =>   2
Atom  13H    basis set group =>   2
Atom  14H    basis set group =>   2
Atom  15H    basis set group =>   2


           ************************************************************
           *        Program running with 4 parallel MPI-processes     *
           *              working on a common directory               *
           ************************************************************
------------------------------------------------------------------------------
                           ORCA GTO INTEGRAL CALCULATION
                           -- RI-GTO INTEGRALS CHOSEN --
------------------------------------------------------------------------------
------------------------------------------------------------------------------
                   ___                                                        
                  /   \      - P O W E R E D   B Y -                         
                 /     \                                                     
                 |  |  |   _    _      __       _____    __    __             
                 |  |  |  | |  | |    /  \     |  _  \  |  |  /  |          
                  \  \/   | |  | |   /    \    | | | |  |  | /  /          
                 / \  \   | |__| |  /  /\  \   | |_| |  |  |/  /          
                |  |  |   |  __  | /  /__\  \  |    /   |      \           
                |  |  |   | |  | | |   __   |  |    \   |  |\   \          
                \     /   | |  | | |  |  |  |  | |\  \  |  | \   \       
                 \___/    |_|  |_| |__|  |__|  |_| \__\ |__|  \__/        
                                                                              
                      - O R C A' S   B I G   F R I E N D -                    
                                      &                                       
                       - I N T E G R A L  F E E D E R -                       
                                                                              
 v1 FN, 2020, v2 2021                                                         
------------------------------------------------------------------------------


Reading SHARK input file butylamine_deprot_aq_7.SHARKINP.tmp ... ok
----------------------
SHARK INTEGRAL PACKAGE
----------------------

Number of atoms                             ...     16
Number of basis functions                   ...    125
Number of shells                            ...     63
Maximum angular momentum                    ...      2
Integral batch strategy                     ... SHARK/LIBINT Hybrid
RI-J (if used) integral strategy            ... SPLIT-RIJ (Revised 2003 algorithm where possible)
Printlevel                                  ...      1
Contraction scheme used                     ... SEGMENTED contraction
Coulomb Range Separation                    ... NOT USED
Exchange Range Separation                   ... Long Range
   Mu parameter                             ...  0.300000
   Scaling (regular/separated)              ...  0.157706  0.842294
Finite Nucleus Model                        ... NOT USED
Auxiliary Coulomb fitting basis             ... AVAILABLE
   # of basis functions in Aux-J            ...    366
   # of shells in Aux-J                     ...    130
   Maximum angular momentum in Aux-J        ...      4
Auxiliary J/K fitting basis                 ... NOT available
Auxiliary Correlation fitting basis         ... NOT available
Auxiliary 'external' fitting basis          ... NOT available
Integral threshold                          ...     2.500000e-11
Primitive cut-off                           ...     2.500000e-12
Primitive pair pre-selection threshold      ...     2.500000e-12

Calculating pre-screening integrals         ... done (  0.0 sec) Dimension = 63
Organizing shell pair data                  ... done (  0.0 sec)
Shell pair information
Total number of shell pairs                 ...      2016
Shell pairs after pre-screening             ...      1948
Total number of primitive shell pairs       ...      6768
Primitive shell pairs kept                  ...      5181
          la=0 lb=0:    687 shell pairs
          la=1 lb=0:    749 shell pairs
          la=1 lb=1:    217 shell pairs
          la=2 lb=0:    179 shell pairs
          la=2 lb=1:    101 shell pairs
          la=2 lb=2:     15 shell pairs

Calculating one electron integrals          ... done (  0.0 sec)
Calculating RI/J V-Matrix + Cholesky decomp.... done (  0.0 sec)
Calculating Nuclear repulsion               ... done (  0.0 sec) ENN=    188.918115712610 Eh

SHARK setup successfully completed in   0.2 seconds

Maximum memory used throughout the entire GTOINT-calculation: 10.6 MB


           ************************************************************
           *        Program running with 4 parallel MPI-processes     *
           *              working on a common directory               *
           ************************************************************
-------------------------------------------------------------------------------
                                 ORCA SCF
-------------------------------------------------------------------------------

------------
SCF SETTINGS
------------
Hamiltonian:
 Density Functional     Method          .... DFT(GTOs)
 Exchange Functional    Exchange        .... WB97X
 Correlation Functional Correlation     .... WB97X
 Gradients option       PostSCFGGA      .... off
 Hybrid DFT is turned on
   Fraction HF Exchange ScalHFX         ....  0.157706
   Scaling of DF-GGA-X  ScalDFX         ....  0.000000
   Scaling of DF-GGA-C  ScalDFC         ....  1.000000
   Scaling of DF-LDA-C  ScalLDAC        ....  1.000000
   Perturbative correction              ....  0.000000
   Density functional embedding theory  .... OFF
 Long-range corrected/Screened/Range-Separated Hybrid DFT is turned on
   Amount of maximum screened exact exchange              ....  0.842294
   Range separation parameter mu (erf(mu*r12)/r12)        ....  0.300000
 RI-approximation to the Coulomb term is turned on
   Number of AuxJ basis functions       .... 366
   RIJ-COSX (HFX calculated with COS-X)).... on


General Settings:
 Integral files         IntName         .... butylamine_deprot_aq_7
 Hartree-Fock type      HFTyp           .... RHF
 Total Charge           Charge          ....    0
 Multiplicity           Mult            ....    1
 Number of Electrons    NEL             ....   42
 Basis Dimension        Dim             ....  125
 Nuclear Repulsion      ENuc            ....    188.9181157126 Eh

Convergence Acceleration:
 DIIS                   CNVDIIS         .... on
   Start iteration      DIISMaxIt       ....     0
   Startup error        DIISStart       ....  0.200000
   # of expansion vecs  DIISMaxEq       ....     5
   Bias factor          DIISBfac        ....   1.050
   Max. coefficient     DIISMaxC        ....  10.000
 Trust-Rad. Augm. Hess. CNVTRAH         .... auto
   Auto Start mean grad. ratio tolernc. ....  1.125000
   Auto Start start iteration           ....    20
   Auto Start num. interpolation iter.  ....    10
   Max. Number of Micro iterations      ....    16
   Max. Number of Macro iterations      .... Maxiter - #DIIS iter
   Number of Davidson start vectors     ....     2
   Converg. threshold I  (grad. norm)   ....   1.000e-05
   Converg. threshold II (energy diff.) ....   1.000e-08
   Grad. Scal. Fac. for Micro threshold ....   0.100
   Minimum threshold for Micro iter.    ....   0.010
   NR start threshold (gradient norm)   ....   0.001
   Initial trust radius                 ....   0.400
   Minimum AH scaling param. (alpha)    ....   1.000
   Maximum AH scaling param. (alpha)    .... 1000.000
   Orbital update algorithm             .... Taylor
   White noise on init. David. guess    .... on
   Maximum white noise                  ....   0.010
   Quad. conv. algorithm                .... NR
 SOSCF                  CNVSOSCF        .... on
   Start iteration      SOSCFMaxIt      ....   150
   Startup grad/error   SOSCFStart      ....  0.001000
 Level Shifting         CNVShift        .... on
   Level shift para.    LevelShift      ....    0.2500
   Turn off err/grad.   ShiftErr        ....    0.0000
 Zerner damping         CNVZerner       .... off
 Static damping         CNVDamp         .... on
   Fraction old density DampFac         ....    0.8500
   Max. Damping (<1)    DampMax         ....    0.9800
   Min. Damping (>=0)   DampMin         ....    0.0000
   Turn off err/grad.   DampErr         ....    0.0300
 Fernandez-Rico         CNVRico         .... off

SCF Procedure:
 Maximum # iterations   MaxIter         ....   125
 SCF integral mode      SCFMode         .... Direct
   Integral package                     .... SHARK and LIBINT hybrid scheme
 Reset frequency        DirectResetFreq ....    20
 Integral Threshold     Thresh          ....  2.500e-11 Eh
 Primitive CutOff       TCut            ....  2.500e-12 Eh

Convergence Tolerance:
 Convergence Check Mode ConvCheckMode   .... Total+1el-Energy
 Convergence forced     ConvForced      .... 0
 Energy Change          TolE            ....  1.000e-08 Eh
 1-El. energy change                    ....  1.000e-05 Eh
 Orbital Gradient       TolG            ....  1.000e-05
 Orbital Rotation angle TolX            ....  1.000e-05
 DIIS Error             TolErr          ....  5.000e-07


Diagonalization of the overlap matrix:
Smallest eigenvalue                        ... 1.748e-03
Time for diagonalization                   ...    0.003 sec
Threshold for overlap eigenvalues          ... 1.000e-08
Number of eigenvalues below threshold      ... 0
Time for construction of square roots      ...    0.003 sec
Total time needed                          ...    0.006 sec

Time for model grid setup =    0.063 sec

------------------------------
INITIAL GUESS: MODEL POTENTIAL
------------------------------
Loading Hartree-Fock densities                     ... done
Calculating cut-offs                               ... done
Initializing the effective Hamiltonian             ... done
Setting up the integral package (SHARK)            ... done
Starting the Coulomb interaction                   ... done (   0.0 sec)
Reading the grid                                   ... done
Mapping shells                                     ... done
Starting the XC term evaluation                    ... done (   0.0 sec)
  promolecular density results
     # of electrons  =     41.990061768
     EX              =    -30.244429568
     EC              =     -1.355898425
     EX+EC           =    -31.600327993
Transforming the Hamiltonian                       ... done (   0.0 sec)
Diagonalizing the Hamiltonian                      ... done (   0.0 sec)
Back transforming the eigenvectors                 ... done (   0.0 sec)
Now organizing SCF variables                       ... done
                      ------------------
                      INITIAL GUESS DONE (   0.1 sec)
                      ------------------
-------------------
DFT GRID GENERATION
-------------------

General Integration Accuracy     IntAcc      ... 4.388
Radial Grid Type                 RadialGrid  ... OptM3 with GC (2021)
Angular Grid (max. ang.)         AngularGrid ... 4 (Lebedev-302)
Angular grid pruning method      GridPruning ... 4 (adaptive)
Weight generation scheme         WeightScheme... Becke
Basis function cutoff            BFCut       ... 1.0000e-11
Integration weight cutoff        WCut        ... 1.0000e-14
Angular grids for H and He will be reduced by one unit
Partially contracted basis set               ... off
Rotationally invariant grid construction     ... off

Total number of grid points                  ...    65455
Total number of batches                      ...     1032
Average number of points per batch           ...       63
Average number of grid points per atom       ...     4091
Time for grid setup =    0.331 sec

--------------------
COSX GRID GENERATION
--------------------

GRIDX 1
-------
General Integration Accuracy     IntAcc      ... 3.816
Radial Grid Type                 RadialGrid  ... OptM3 with GC (2021)
Angular Grid (max. ang.)         AngularGrid ... 1 (Lebedev-50)
Angular grid pruning method      GridPruning ... 4 (adaptive)
Weight generation scheme         WeightScheme... Becke
Basis function cutoff            BFCut       ... 1.0000e-11
Integration weight cutoff        WCut        ... 1.0000e-14
Angular grids for H and He will be reduced by one unit
Partially contracted basis set               ... on
Rotationally invariant grid construction     ... off

Total number of grid points                  ...     8414
Total number of batches                      ...      142
Average number of points per batch           ...       59
Average number of grid points per atom       ...      526
UseSFitting                                  ... on

GRIDX 2
-------
General Integration Accuracy     IntAcc      ... 4.020
Radial Grid Type                 RadialGrid  ... OptM3 with GC (2021)
Angular Grid (max. ang.)         AngularGrid ... 2 (Lebedev-110)
Angular grid pruning method      GridPruning ... 4 (adaptive)
Weight generation scheme         WeightScheme... Becke
Basis function cutoff            BFCut       ... 1.0000e-11
Integration weight cutoff        WCut        ... 1.0000e-14
Angular grids for H and He will be reduced by one unit
Partially contracted basis set               ... on
Rotationally invariant grid construction     ... off

Total number of grid points                  ...    17382
Total number of batches                      ...      282
Average number of points per batch           ...       61
Average number of grid points per atom       ...     1086
UseSFitting                                  ... on

GRIDX 3
-------
General Integration Accuracy     IntAcc      ... 4.338
Radial Grid Type                 RadialGrid  ... OptM3 with GC (2021)
Angular Grid (max. ang.)         AngularGrid ... 3 (Lebedev-194)
Angular grid pruning method      GridPruning ... 4 (adaptive)
Weight generation scheme         WeightScheme... Becke
Basis function cutoff            BFCut       ... 1.0000e-11
Integration weight cutoff        WCut        ... 1.0000e-14
Angular grids for H and He will be reduced by one unit
Partially contracted basis set               ... on
Rotationally invariant grid construction     ... off

Total number of grid points                  ...    37962
Total number of batches                      ...      602
Average number of points per batch           ...       63
Average number of grid points per atom       ...     2373
UseSFitting                                  ... on

Time for X-Grid setup             =    0.311 sec

--------------
SCF ITERATIONS
--------------
ITER       Energy         Delta-E        Max-DP      RMS-DP      [F,P]     Damp
               ***  Starting incremental Fock matrix formation  ***
  0   -213.3792071067   0.000000000000 0.03922547  0.00115837  0.2284411 0.8500
  1   -213.4251153710  -0.045908264250 0.03368675  0.00110062  0.1759488 0.8500
                               ***Turning on DIIS***
  2   -213.4587739161  -0.033658545128 0.02504860  0.00088018  0.1275448 0.8500
  3   -213.4829813084  -0.024207392292 0.01434652  0.00056843  0.0907261 0.8500
  4   -213.5012917463  -0.018310437903 0.00952636  0.00040371  0.0705313 0.8500
  5   -213.5155329740  -0.014241227717 0.00708809  0.00031809  0.0580657 0.8500
  6   -213.5270476529  -0.011514678927 0.00563030  0.00026370  0.0488161 0.8500
  7   -213.5365521916  -0.009504538673 0.00470726  0.00022710  0.0413286 0.8500
  8   -213.5444938017  -0.007941610087 0.00400235  0.00019574  0.0348453 0.8500
  9   -213.5511435982  -0.006649796450 0.02263403  0.00111619  0.0292938 0.0000
 10   -213.5870290261  -0.035885427914 0.00150271  0.00004805  0.0021574 0.0000
                      *** Initiating the SOSCF procedure ***
                           *** Shutting down DIIS ***
                      *** Re-Reading the Fockian *** 
                      *** Removing any level shift *** 
ITER      Energy       Delta-E        Grad      Rot      Max-DP    RMS-DP
 11   -213.58704285  -0.0000138288  0.000106  0.000106  0.000304  0.000017
               *** Restarting incremental Fock matrix formation ***
 12   -213.58708209  -0.0000392313  0.000064  0.000110  0.000234  0.000011
 13   -213.58708224  -0.0000001549  0.000027  0.000056  0.000107  0.000006
 14   -213.58708227  -0.0000000293  0.000008  0.000008  0.000035  0.000002
                  ***Gradient check signals convergence***
              ***Rediagonalizing the Fockian in SOSCF/NRSCF***

               *****************************************************
               *                     SUCCESS                       *
               *           SCF CONVERGED AFTER  15 CYCLES          *
               *****************************************************

Old exchange energy                            =    -10.443618530 Eh
New exchange energy                            =    -10.443622907 Eh
Exchange energy change after final integration =     -0.000004377 Eh
Total energy after final integration           =   -213.587086652 Eh
Final COS-X integration done in                =     3.123 sec

----------------
TOTAL SCF ENERGY
----------------

Total Energy       :         -213.58708665 Eh           -5812.00010 eV

Components:
Nuclear Repulsion  :          188.91811571 Eh            5140.72328 eV
Electronic Energy  :         -402.50520236 Eh          -10952.72338 eV
One Electron Energy:         -660.56737159 Eh          -17974.95201 eV
Two Electron Energy:          258.06216923 Eh            7022.22863 eV
Max COSX asymmetry :            0.00000192 Eh               0.00005 eV

Virial components:
Potential Energy   :         -424.61626919 Eh          -11554.39610 eV
Kinetic Energy     :          211.02918254 Eh            5742.39599 eV
Virial Ratio       :            2.01212109


DFT components:
N(Alpha)           :       20.999988423427 electrons
N(Beta)            :       20.999988423427 electrons
N(Total)           :       41.999976846855 electrons
E(XC)              :      -22.249855320280 Eh       
DFET-embed. en.    :        0.000000000000 Eh       

---------------
SCF CONVERGENCE
---------------

  Last Energy change         ...   -5.1011e-09  Tolerance :   1.0000e-08
  Last MAX-Density change    ...    3.5527e-15  Tolerance :   1.0000e-07
  Last RMS-Density change    ...    4.7624e-17  Tolerance :   5.0000e-09
  Last Orbital Gradient      ...    1.1929e-06  Tolerance :   1.0000e-05
  Last Orbital Rotation      ...    2.2041e-06  Tolerance :   1.0000e-05

             **** THE GBW FILE WAS UPDATED (butylamine_deprot_aq_7.gbw) ****
             **** DENSITY butylamine_deprot_aq_7.scfp WAS UPDATED ****
             **** ENERGY FILE WAS UPDATED (butylamine_deprot_aq_7.en.tmp) ****
             **** THE GBW FILE WAS UPDATED (butylamine_deprot_aq_7.gbw) ****
             **** DENSITY butylamine_deprot_aq_7.scfp WAS UPDATED ****
----------------
ORBITAL ENERGIES
----------------

  NO   OCC          E(Eh)            E(eV) 
   0   2.0000     -14.374028      -391.1372 
   1   2.0000     -10.282399      -279.7983 
   2   2.0000     -10.261576      -279.2317 
   3   2.0000     -10.255118      -279.0559 
   4   2.0000     -10.255101      -279.0555 
   5   2.0000      -0.997052       -27.1312 
   6   2.0000      -0.908911       -24.7327 
   7   2.0000      -0.826101       -22.4794 
   8   2.0000      -0.736563       -20.0429 
   9   2.0000      -0.684370       -18.6226 
  10   2.0000      -0.601957       -16.3801 
  11   2.0000      -0.586225       -15.9520 
  12   2.0000      -0.543786       -14.7972 
  13   2.0000      -0.536890       -14.6095 
  14   2.0000      -0.502050       -13.6615 
  15   2.0000      -0.478623       -13.0240 
  16   2.0000      -0.470104       -12.7922 
  17   2.0000      -0.434589       -11.8258 
  18   2.0000      -0.428156       -11.6507 
  19   2.0000      -0.417099       -11.3498 
  20   2.0000      -0.332232        -9.0405 
  21   0.0000       0.144208         3.9241 
  22   0.0000       0.165438         4.5018 
  23   0.0000       0.174972         4.7612 
  24   0.0000       0.190282         5.1778 
  25   0.0000       0.211531         5.7560 
  26   0.0000       0.227339         6.1862 
  27   0.0000       0.237434         6.4609 
  28   0.0000       0.255536         6.9535 
  29   0.0000       0.259635         7.0650 
  30   0.0000       0.267234         7.2718 
  31   0.0000       0.274809         7.4779 
  32   0.0000       0.320314         8.7162 
  33   0.0000       0.333022         9.0620 
  34   0.0000       0.348313         9.4781 
  35   0.0000       0.363327         9.8866 
  36   0.0000       0.524584        14.2747 
  37   0.0000       0.529497        14.4083 
  38   0.0000       0.539626        14.6840 
  39   0.0000       0.544369        14.8130 
  40   0.0000       0.563331        15.3290 
  41   0.0000       0.605952        16.4888 
  42   0.0000       0.653333        17.7781 
  43   0.0000       0.704117        19.1600 
  44   0.0000       0.723438        19.6858 
  45   0.0000       0.737402        20.0657 
  46   0.0000       0.748432        20.3659 
  47   0.0000       0.760877        20.7045 
  48   0.0000       0.773461        21.0469 
  49   0.0000       0.788925        21.4677 
  50   0.0000       0.796977        21.6868 
  51   0.0000       0.804972        21.9044 
  52   0.0000       0.808922        22.0119 
  53   0.0000       0.822298        22.3759 
  54   0.0000       0.823301        22.4031 
  55   0.0000       0.829749        22.5786 
  56   0.0000       0.842634        22.9292 
  57   0.0000       0.853754        23.2318 
  58   0.0000       0.874998        23.8099 
  59   0.0000       0.913357        24.8537 
  60   0.0000       0.953645        25.9500 
  61   0.0000       1.010782        27.5048 
  62   0.0000       1.059276        28.8244 
  63   0.0000       1.104739        30.0615 
  64   0.0000       1.127163        30.6717 
  65   0.0000       1.163994        31.6739 
  66   0.0000       1.254554        34.1382 
  67   0.0000       1.323882        36.0247 
  68   0.0000       1.360706        37.0267 
  69   0.0000       1.372498        37.3476 
  70   0.0000       1.440442        39.1964 
  71   0.0000       1.476812        40.1861 
  72   0.0000       1.492652        40.6171 
  73   0.0000       1.578156        42.9438 
  74   0.0000       1.623834        44.1868 
  75   0.0000       1.660634        45.1882 
  76   0.0000       1.750039        47.6210 
  77   0.0000       1.792378        48.7731 
  78   0.0000       1.830300        49.8050 
  79   0.0000       1.853477        50.4357 
  80   0.0000       1.877437        51.0877 
  81   0.0000       1.890459        51.4420 
  82   0.0000       1.899009        51.6747 
  83   0.0000       1.914027        52.0833 
  84   0.0000       1.926232        52.4155 
  85   0.0000       1.939570        52.7784 
  86   0.0000       1.950938        53.0877 
  87   0.0000       1.974937        53.7408 
  88   0.0000       1.982520        53.9471 
  89   0.0000       1.993178        54.2371 
  90   0.0000       2.016384        54.8686 
  91   0.0000       2.018212        54.9183 
  92   0.0000       2.036299        55.4105 
  93   0.0000       2.078422        56.5567 
  94   0.0000       2.090785        56.8932 
  95   0.0000       2.154737        58.6334 
  96   0.0000       2.195425        59.7405 
  97   0.0000       2.245577        61.1053 
  98   0.0000       2.255184        61.3667 
  99   0.0000       2.298217        62.5377 
 100   0.0000       2.370725        64.5107 
 101   0.0000       2.419865        65.8479 
 102   0.0000       2.466076        67.1054 
 103   0.0000       2.507301        68.2271 
 104   0.0000       2.526877        68.7598 
 105   0.0000       2.569033        69.9069 
 106   0.0000       2.574132        70.0457 
 107   0.0000       2.639890        71.8351 
 108   0.0000       2.708236        73.6949 
 109   0.0000       2.731329        74.3233 
 110   0.0000       2.759844        75.0992 
 111   0.0000       2.803834        76.2962 
 112   0.0000       2.887517        78.5733 
 113   0.0000       2.908696        79.1496 
 114   0.0000       2.965238        80.6882 
 115   0.0000       3.003115        81.7189 
 116   0.0000       3.034075        82.5614 
 117   0.0000       3.052789        83.0706 
 118   0.0000       3.099843        84.3510 
 119   0.0000       3.129603        85.1608 
 120   0.0000       3.177700        86.4696 
 121   0.0000       3.212739        87.4231 
 122   0.0000       3.224206        87.7351 
 123   0.0000       3.350306        91.1665 
 124   0.0000       3.529142        96.0328 

                    ********************************
                    * MULLIKEN POPULATION ANALYSIS *
                    ********************************

-----------------------
MULLIKEN ATOMIC CHARGES
-----------------------
   0 C :   -0.006386
   1 C :   -0.080962
   2 H :    0.018857
   3 H :    0.021294
   4 H :    0.023921
   5 C :   -0.048154
   6 H :    0.010362
   7 H :    0.012031
   8 C :    0.092059
   9 H :    0.018534
  10 H :    0.008708
  11 N :   -0.256726
  12 H :    0.012154
  13 H :   -0.010541
  14 H :    0.097476
  15 H :    0.087370
Sum of atomic charges:   -0.0000000

--------------------------------
MULLIKEN REDUCED ORBITAL CHARGES
--------------------------------
  0 C s       :     2.981695  s :     2.981695
      pz      :     1.009239  p :     2.996141
      px      :     0.974472
      py      :     1.012429
      dz2     :     0.005607  d :     0.028551
      dxz     :     0.008160
      dyz     :     0.002519
      dx2y2   :     0.008327
      dxy     :     0.003937
  1 C s       :     3.042377  s :     3.042377
      pz      :     1.006861  p :     3.001613
      px      :     0.986396
      py      :     1.008356
      dz2     :     0.008877  d :     0.036972
      dxz     :     0.008693
      dyz     :     0.003810
      dx2y2   :     0.010158
      dxy     :     0.005434
  2 H s       :     0.957011  s :     0.957011
      pz      :     0.012519  p :     0.024132
      px      :     0.005456
      py      :     0.006157
  3 H s       :     0.954545  s :     0.954545
      pz      :     0.005024  p :     0.024161
      px      :     0.004142
      py      :     0.014995
  4 H s       :     0.952126  s :     0.952126
      pz      :     0.010181  p :     0.023953
      px      :     0.008199
      py      :     0.005573
  5 C s       :     3.032218  s :     3.032218
      pz      :     0.990577  p :     2.980732
      px      :     0.971743
      py      :     1.018412
      dz2     :     0.008500  d :     0.035204
      dxz     :     0.008061
      dyz     :     0.003512
      dx2y2   :     0.009633
      dxy     :     0.005499
  6 H s       :     0.967128  s :     0.967128
      pz      :     0.004240  p :     0.022511
      px      :     0.003598
      py      :     0.014673
  7 H s       :     0.965114  s :     0.965114
      pz      :     0.012013  p :     0.022855
      px      :     0.004883
      py      :     0.005959
  8 C s       :     2.976980  s :     2.976980
      pz      :     0.941874  p :     2.878746
      px      :     0.979037
      py      :     0.957834
      dz2     :     0.011654  d :     0.052215
      dxz     :     0.013119
      dyz     :     0.007062
      dx2y2   :     0.012822
      dxy     :     0.007558
  9 H s       :     0.958863  s :     0.958863
      pz      :     0.004041  p :     0.022603
      px      :     0.003644
      py      :     0.014919
 10 H s       :     0.968553  s :     0.968553
      pz      :     0.012249  p :     0.022738
      px      :     0.004989
      py      :     0.005500
 11 N s       :     3.415471  s :     3.415471
      pz      :     1.078423  p :     3.821384
      px      :     1.057678
      py      :     1.685283
      dz2     :     0.004518  d :     0.019871
      dxz     :     0.003919
      dyz     :     0.004304
      dx2y2   :     0.001938
      dxy     :     0.005191
 12 H s       :     0.966398  s :     0.966398
      pz      :     0.010537  p :     0.021448
      px      :     0.006432
      py      :     0.004479
 13 H s       :     0.989442  s :     0.989442
      pz      :     0.003299  p :     0.021099
      px      :     0.003543
      py      :     0.014256
 14 H s       :     0.856945  s :     0.856945
      pz      :     0.008775  p :     0.045579
      px      :     0.022442
      py      :     0.014362
 15 H s       :     0.866360  s :     0.866360
      pz      :     0.019330  p :     0.046270
      px      :     0.012996
      py      :     0.013945


                     *******************************
                     * LOEWDIN POPULATION ANALYSIS *
                     *******************************

----------------------
LOEWDIN ATOMIC CHARGES
----------------------
   0 C :   -0.056992
   1 C :   -0.045305
   2 H :    0.021423
   3 H :    0.023017
   4 H :    0.023121
   5 C :   -0.044596
   6 H :    0.017672
   7 H :    0.016149
   8 C :    0.016380
   9 H :    0.022939
  10 H :    0.020222
  11 N :   -0.126826
  12 H :    0.017449
  13 H :   -0.003487
  14 H :    0.053061
  15 H :    0.045774

-------------------------------
LOEWDIN REDUCED ORBITAL CHARGES
-------------------------------
  0 C s       :     2.826290  s :     2.826290
      pz      :     1.064549  p :     3.157249
      px      :     1.028793
      py      :     1.063907
      dz2     :     0.015040  d :     0.073453
      dxz     :     0.020238
      dyz     :     0.006586
      dx2y2   :     0.021884
      dxy     :     0.009705
  1 C s       :     2.829826  s :     2.829826
      pz      :     1.048431  p :     3.125181
      px      :     1.022380
      py      :     1.054370
      dz2     :     0.021495  d :     0.090297
      dxz     :     0.021627
      dyz     :     0.009125
      dx2y2   :     0.025823
      dxy     :     0.012227
  2 H s       :     0.912310  s :     0.912310
      pz      :     0.033500  p :     0.066267
      px      :     0.016465
      py      :     0.016301
  3 H s       :     0.910533  s :     0.910533
      pz      :     0.013023  p :     0.066450
      px      :     0.013210
      py      :     0.040217
  4 H s       :     0.910438  s :     0.910438
      pz      :     0.027184  p :     0.066441
      px      :     0.024220
      py      :     0.015037
  5 C s       :     2.835403  s :     2.835403
      pz      :     1.042253  p :     3.120846
      px      :     1.017645
      py      :     1.060948
      dz2     :     0.021307  d :     0.088346
      dxz     :     0.021151
      dyz     :     0.008218
      dx2y2   :     0.024602
      dxy     :     0.013069
  6 H s       :     0.916283  s :     0.916283
      pz      :     0.013207  p :     0.066045
      px      :     0.013222
      py      :     0.039617
  7 H s       :     0.917134  s :     0.917134
      pz      :     0.033806  p :     0.066717
      px      :     0.016561
      py      :     0.016350
  8 C s       :     2.831303  s :     2.831303
      pz      :     0.983299  p :     3.032255
      px      :     1.018733
      py      :     1.030222
      dz2     :     0.026184  d :     0.120063
      dxz     :     0.029256
      dyz     :     0.015734
      dx2y2   :     0.031388
      dxy     :     0.017500
  9 H s       :     0.909443  s :     0.909443
      pz      :     0.012941  p :     0.067619
      px      :     0.013218
      py      :     0.041460
 10 H s       :     0.913274  s :     0.913274
      pz      :     0.034136  p :     0.066504
      px      :     0.016753
      py      :     0.015615
 11 N s       :     3.122847  s :     3.122847
      pz      :     1.149938  p :     3.959966
      px      :     1.134411
      py      :     1.675617
      dz2     :     0.011232  d :     0.044013
      dxz     :     0.011766
      dyz     :     0.007246
      dx2y2   :     0.004554
      dxy     :     0.009215
 12 H s       :     0.918686  s :     0.918686
      pz      :     0.030622  p :     0.063865
      px      :     0.020583
      py      :     0.012661
 13 H s       :     0.939162  s :     0.939162
      pz      :     0.011585  p :     0.064324
      px      :     0.012732
      py      :     0.040007
 14 H s       :     0.824912  s :     0.824912
      pz      :     0.020198  p :     0.122027
      px      :     0.055790
      py      :     0.046039
 15 H s       :     0.831377  s :     0.831377
      pz      :     0.051663  p :     0.122849
      px      :     0.028880
      py      :     0.042306


                      *****************************
                      * MAYER POPULATION ANALYSIS *
                      *****************************

  NA   - Mulliken gross atomic population
  ZA   - Total nuclear charge
  QA   - Mulliken gross atomic charge
  VA   - Mayer's total valence
  BVA  - Mayer's bonded valence
  FA   - Mayer's free valence

  ATOM       NA         ZA         QA         VA         BVA        FA
  0 C      6.0064     6.0000    -0.0064     4.0112     4.0112    -0.0000
  1 C      6.0810     6.0000    -0.0810     4.0823     4.0823     0.0000
  2 H      0.9811     1.0000     0.0189     0.9920     0.9920     0.0000
  3 H      0.9787     1.0000     0.0213     0.9918     0.9918    -0.0000
  4 H      0.9761     1.0000     0.0239     0.9866     0.9866    -0.0000
  5 C      6.0482     6.0000    -0.0482     4.0531     4.0531    -0.0000
  6 H      0.9896     1.0000     0.0104     0.9798     0.9798     0.0000
  7 H      0.9880     1.0000     0.0120     0.9780     0.9780     0.0000
  8 C      5.9079     6.0000     0.0921     4.0678     4.0678    -0.0000
  9 H      0.9815     1.0000     0.0185     0.9965     0.9965    -0.0000
 10 H      0.9913     1.0000     0.0087     0.9833     0.9833     0.0000
 11 N      7.2567     7.0000    -0.2567     3.0403     3.0403    -0.0000
 12 H      0.9878     1.0000     0.0122     0.9803     0.9803    -0.0000
 13 H      1.0105     1.0000    -0.0105     0.9738     0.9738    -0.0000
 14 H      0.9025     1.0000     0.0975     0.9961     0.9961     0.0000
 15 H      0.9126     1.0000     0.0874     1.0054     1.0054     0.0000

  Mayer bond orders larger than 0.100000
B(  0-C ,  1-C ) :   1.0914 B(  0-C ,  2-H ) :   0.9756 B(  0-C ,  3-H ) :   0.9751 
B(  0-C ,  4-H ) :   0.9734 B(  1-C ,  5-C ) :   1.0636 B(  1-C ,  6-H ) :   0.9565 
B(  1-C ,  7-H ) :   0.9521 B(  5-C ,  8-C ) :   1.0766 B(  5-C ,  9-H ) :   0.9468 
B(  5-C , 10-H ) :   0.9529 B(  8-C , 11-N ) :   1.0604 B(  8-C , 12-H ) :   0.9539 
B(  8-C , 13-H ) :   0.9464 B( 11-N , 14-H ) :   0.9720 B( 11-N , 15-H ) :   0.9769 


-------
TIMINGS
-------

Total SCF time: 0 days 0 hours 0 min 23 sec 

Total time                  ....      23.613 sec
Sum of individual times     ....      23.376 sec  ( 99.0%)

Fock matrix formation       ....      22.458 sec  ( 95.1%)
  Split-RI-J                ....       1.276 sec  (  5.7% of F)
  Chain of spheres X        ....      17.544 sec  ( 78.1% of F)
  XC integration            ....       3.577 sec  ( 15.9% of F)
    Basis function eval.    ....       1.220 sec  ( 34.1% of XC)
    Density eval.           ....       0.616 sec  ( 17.2% of XC)
    XC-Functional eval.     ....       0.568 sec  ( 15.9% of XC)
    XC-Potential eval.      ....       0.709 sec  ( 19.8% of XC)
Diagonalization             ....       0.051 sec  (  0.2%)
Density matrix formation    ....       0.003 sec  (  0.0%)
Population analysis         ....       0.014 sec  (  0.1%)
Initial guess               ....       0.085 sec  (  0.4%)
Orbital Transformation      ....       0.000 sec  (  0.0%)
Orbital Orthonormalization  ....       0.000 sec  (  0.0%)
DIIS solution               ....       0.044 sec  (  0.2%)
SOSCF solution              ....       0.015 sec  (  0.1%)
Grid generation             ....       0.705 sec  (  3.0%)

Maximum memory used throughout the entire SCF-calculation: 49.7 MB


-------------------------------------------------------------------------------
                          DFT DISPERSION CORRECTION                            
                                                                               
                                 DFTD4 V2.5                                    
-------------------------------------------------------------------------------
The WB97X functional is recognized
Active option DFTDOPT                   ...         5   

Starting D4
-------------------------   ----------------
Dispersion correction           -0.001386046
-------------------------   ----------------


-------------------------   --------------------
FINAL SINGLE POINT ENERGY      -213.588472697825
-------------------------   --------------------



           ************************************************************
           *        Program running with 4 parallel MPI-processes     *
           *              working on a common directory               *
           ************************************************************
------------------------------------------------------------------------------
                         ORCA SCF GRADIENT CALCULATION
------------------------------------------------------------------------------

 ... reading COSX grid (gridx3)
Gradient of the Kohn-Sham DFT energy:
Kohn-Sham wavefunction type      ... RKS
Hartree-Fock exchange scaling    ...    0.158
Number of operators              ...    1
Number of atoms                  ...   16
Basis set dimensions             ...  125
Integral neglect threshold       ... 2.5e-11
Integral primitive cutoff        ... 2.5e-12
SHARK Integral package           ... ON

Nuc. rep. gradient       (SHARK) ... done (  0.0 sec)
HCore & Overlap gradient (SHARK) ... done (  0.0 sec)
RI-J gradient            (SHARK) ... done (  0.2 sec)
COSX-gradient                    ... done (  3.4 sec)
Exchange-correlation gradient    ... done
Dispersion correction            ... Starting D4
Starting D4
Starting D4
Starting D4


------------------- 
Dispersion Gradient 
------------------- 
   1  :   -0.000034294    0.000005848    0.000000168
   2  :   -0.000008573   -0.000005689    0.000008018
   3  :   -0.000006629    0.000001398    0.000002787
   4  :   -0.000007884   -0.000001341    0.000001007
   5  :   -0.000007033    0.000000937    0.000000458
   6  :   -0.000001618    0.000002967   -0.000011995
   7  :   -0.000004614    0.000004237   -0.000001230
   8  :   -0.000004219    0.000000227   -0.000004965
   9  :    0.000013982   -0.000012791   -0.000012669
  10  :    0.000002353   -0.000004623    0.000001945
  11  :    0.000000393    0.000000213    0.000002097
  12  :    0.000029581    0.000007026    0.000008155
  13  :    0.000005529    0.000001124    0.000002619
  14  :    0.000006472    0.000003992    0.000000539
  15  :    0.000010749   -0.000002699    0.000002044
  16  :    0.000005805   -0.000000828    0.000001021

  |G| =    0.000056210

done

------------------
CARTESIAN GRADIENT
------------------

   1   C   :   -0.009730345    0.005244651   -0.005455878
   2   C   :    0.003653244   -0.007928729    0.012215492
   3   H   :    0.004355220    0.002585410    0.008013499
   4   H   :    0.001370171   -0.009460034    0.000844579
   5   H   :    0.007503653    0.001230634   -0.005526454
   6   C   :   -0.006893937    0.011876080   -0.009550190
   7   H   :   -0.000984331    0.007245540   -0.002172168
   8   H   :   -0.003023076   -0.001063384   -0.007872244
   9   C   :    0.001832134   -0.008783839   -0.005353901
  10   H   :   -0.000697406   -0.008186865    0.001934616
  11   H   :    0.003765939    0.001259426    0.007160181
  12   N   :    0.003529077   -0.001531680    0.004642861
  13   H   :   -0.002168907    0.001105804    0.005454935
  14   H   :    0.000843548    0.004538585    0.002166196
  15   H   :   -0.002609129    0.000775536   -0.002727861
  16   H   :   -0.000695427    0.001156549   -0.004081419

Difference to translation invariance:
           :    0.0000504270    0.0000636813   -0.0003077565

Difference to rotation invariance:
           :    0.0004602737   -0.0004717303    0.0001557645

Norm of the cartesian gradient     ...    0.0379042784
RMS gradient                       ...    0.0054710113
MAX gradient                       ...    0.0122154916

-------
TIMINGS
-------

Total SCF gradient time            ...        4.950 sec

One electron gradient       ....       0.038 sec  (  0.8%)
RI-J Coulomb gradient       ....       0.233 sec  (  4.7%)
COSX gradient               ....       3.399 sec  ( 68.7%)
XC gradient                 ....       0.990 sec  ( 20.0%)

Maximum memory used throughout the entire SCFGRAD-calculation: 38.3 MB
------------------------------------------------------------------------------
                         ORCA GEOMETRY RELAXATION STEP
------------------------------------------------------------------------------

Reading the OPT-File                    .... done
Getting information on internals        .... done
Copying old internal coords+grads       .... done
Making the new internal coordinates     .... (new redundants).... done
Validating the new internal coordinates .... (new redundants).... done
Calculating the B-matrix                .... done
Calculating the G,G- and P matrices     .... done
Transforming gradient to internals      .... done
Projecting the internal gradient        .... done
Number of atoms                         ....  16
Number of internal coordinates          ....  75
Current Energy                          ....  -213.588472698 Eh
Current gradient norm                   ....     0.037904278 Eh/bohr
Maximum allowed component of the step   ....  0.300
Current trust radius                    ....  0.300
Evaluating the initial hessian          ....  (Almloef) done
Projecting the Hessian                  .... done
Forming the augmented Hessian           .... done
Diagonalizing the augmented Hessian     .... done
Last element of RFO vector              ....  0.990518000
Lowest eigenvalues of augmented Hessian:
 -0.002255838  0.011301725  0.011366731  0.011616199  0.016262648
Length of the computed step             ....  0.138698149
The final length of the internal step   ....  0.138698149
Converting the step to cartesian space:
 Initial RMS(Int)=    0.0160154827
Transforming coordinates:
 Iter   0:  RMS(Cart)=    0.0272068846 RMS(Int)=    0.0160053220
 Iter   1:  RMS(Cart)=    0.0003398907 RMS(Int)=    0.0002398579
 Iter   2:  RMS(Cart)=    0.0000083976 RMS(Int)=    0.0000050418
 Iter   3:  RMS(Cart)=    0.0000002337 RMS(Int)=    0.0000001721
 Iter   4:  RMS(Cart)=    0.0000000059 RMS(Int)=    0.0000000041
done
Storing new coordinates                 .... done

                                .--------------------.
          ----------------------|Geometry convergence|-------------------------
          Item                value                   Tolerance       Converged
          ---------------------------------------------------------------------
          RMS gradient        0.0030364396            0.0001000000      NO
          MAX gradient        0.0094708745            0.0003000000      NO
          RMS step            0.0160154827            0.0020000000      NO
          MAX step            0.0447309088            0.0040000000      NO
          ........................................................
          Max(Bonds)      0.0137      Max(Angles)    0.87
          Max(Dihed)        2.56      Max(Improp)    0.00
          ---------------------------------------------------------------------

The optimization has not yet converged - more geometry cycles are needed


    ---------------------------------------------------------------------------
                         Redundant Internal Coordinates
                            (Angstroem and degrees)

        Definition                    Value    dE/dq     Step     New-Value
    ----------------------------------------------------------------------------
     1. B(C   1,C   0)                1.5240 -0.002982  0.0041    1.5281   
     2. B(H   2,C   0)                1.0878 -0.009408  0.0136    1.1015   
     3. B(H   3,C   0)                1.0875 -0.009471  0.0137    1.1012   
     4. B(H   4,C   0)                1.0875 -0.009063  0.0131    1.1006   
     5. B(C   5,C   1)                1.5279 -0.001289  0.0018    1.5297   
     6. B(H   6,C   1)                1.0934 -0.007328  0.0108    1.1042   
     7. B(H   7,C   1)                1.0918 -0.008244  0.0121    1.1039   
     8. B(C   8,C   5)                1.5291  0.001744 -0.0024    1.5267   
     9. B(H   9,C   5)                1.0908 -0.008282  0.0121    1.1029   
    10. B(H  10,C   5)                1.0921 -0.008051  0.0118    1.1039   
    11. B(N  11,C   8)                1.4576 -0.001312  0.0016    1.4591   
    12. B(H  12,C   8)                1.0943 -0.005529  0.0082    1.1025   
    13. B(H  13,C   8)                1.1047 -0.004271  0.0066    1.1113   
    14. B(H  14,N  11)                1.0135 -0.002943  0.0036    1.0171   
    15. B(H  15,N  11)                1.0141 -0.003368  0.0042    1.0183   
    16. A(H   3,C   0,H   4)          108.47  0.002050   -0.33    108.13   
    17. A(C   1,C   0,H   4)          110.61 -0.002960    0.57    111.18   
    18. A(C   1,C   0,H   2)          110.52 -0.000937    0.16    110.68   
    19. A(H   2,C   0,H   3)          108.34  0.001494   -0.36    107.98   
    20. A(H   2,C   0,H   4)          108.44  0.001890   -0.31    108.13   
    21. A(C   1,C   0,H   3)          110.40 -0.001338    0.23    110.63   
    22. A(C   0,C   1,C   5)          111.56 -0.003781    0.87    112.43   
    23. A(H   6,C   1,H   7)          107.92  0.000485   -0.73    107.19   
    24. A(C   5,C   1,H   7)          109.70  0.000983   -0.14    109.56   
    25. A(C   0,C   1,H   7)          108.94  0.000869   -0.05    108.89   
    26. A(C   5,C   1,H   6)          109.29  0.001244   -0.14    109.15   
    27. A(C   0,C   1,H   6)          109.36  0.000330    0.14    109.50   
    28. A(C   8,C   5,H   9)          108.41  0.001055   -0.28    108.13   
    29. A(C   1,C   5,H   9)          109.56  0.000279   -0.13    109.43   
    30. A(C   1,C   5,C   8)          113.28 -0.001968    0.48    113.76   
    31. A(H   9,C   5,H  10)          108.19  0.000469   -0.50    107.69   
    32. A(C   8,C   5,H  10)          108.37 -0.000385    0.32    108.69   
    33. A(C   1,C   5,H  10)          108.92  0.000639    0.06    108.98   
    34. A(H  12,C   8,H  13)          107.63  0.001179   -0.60    107.03   
    35. A(N  11,C   8,H  13)          112.98 -0.001111    0.29    113.27   
    36. A(C   5,C   8,H  13)          108.96  0.000712   -0.30    108.66   
    37. A(N  11,C   8,H  12)          106.99 -0.001556    0.57    107.57   
    38. A(C   5,C   8,H  12)          108.98  0.000303   -0.06    108.93   
    39. A(C   5,C   8,N  11)          111.15  0.000501    0.07    111.22   
    40. A(H  14,N  11,H  15)          107.36  0.002740   -0.64    106.72   
    41. A(C   8,N  11,H  15)          109.76 -0.002172    0.31    110.07   
    42. A(C   8,N  11,H  14)          109.81 -0.002637    0.39    110.20   
    43. D(H   6,C   1,C   0,H   4)     59.08  0.000652   -0.40     58.68   
    44. D(C   5,C   1,C   0,H   3)    -59.85 -0.000237    0.20    -59.65   
    45. D(H   7,C   1,C   0,H   3)     61.40 -0.000848    0.54     61.95   
    46. D(H   6,C   1,C   0,H   2)    -61.03  0.000824   -0.48    -61.51   
    47. D(C   5,C   1,C   0,H   4)   -179.91 -0.000013    0.09   -179.82   
    48. D(H   6,C   1,C   0,H   3)    179.13  0.000427   -0.29    178.85   
    49. D(H   7,C   1,C   0,H   4)    -58.66 -0.000624    0.44    -58.22   
    50. D(C   5,C   1,C   0,H   2)     59.99  0.000160    0.01     59.99   
    51. D(H   7,C   1,C   0,H   2)   -178.76 -0.000452    0.35   -178.41   
    52. D(H   9,C   5,C   1,H   6)   -176.66 -0.000653    0.03   -176.63   
    53. D(C   8,C   5,C   1,H   7)     62.65  0.001475   -1.15     61.50   
    54. D(C   8,C   5,C   1,H   6)    -55.49 -0.000430   -0.09    -55.58   
    55. D(C   8,C   5,C   1,C   0)   -176.54  0.000763   -0.74   -177.28   
    56. D(H   9,C   5,C   1,H   7)    -58.53  0.001252   -1.03    -59.55   
    57. D(H  10,C   5,C   1,H   7)   -176.69  0.000149   -0.38   -177.07   
    58. D(H  10,C   5,C   1,H   6)     65.18 -0.001756    0.67     65.85   
    59. D(H  10,C   5,C   1,C   0)    -55.87 -0.000562    0.02    -55.85   
    60. D(H   9,C   5,C   1,C   0)     62.29  0.000541   -0.62     61.67   
    61. D(H  13,C   8,C   5,H   9)    174.21 -0.001681    2.52    176.73   
    62. D(H  13,C   8,C   5,C   1)     52.39 -0.001492    2.56     54.95   
    63. D(H  12,C   8,C   5,H  10)     48.60  0.001223    1.03     49.63   
    64. D(H  12,C   8,C   5,H   9)    -68.61  0.000303    1.60    -67.01   
    65. D(H  12,C   8,C   5,C   1)    169.57  0.000492    1.64    171.22   
    66. D(N  11,C   8,C   5,H  10)    166.28 -0.000198    1.74    168.01   
    67. D(N  11,C   8,C   5,H   9)     49.07 -0.001119    2.31     51.38   
    68. D(H  13,C   8,C   5,H  10)    -68.59 -0.000760    1.95    -66.64   
    69. D(N  11,C   8,C   5,C   1)    -72.75 -0.000930    2.35    -70.40   
    70. D(H  15,N  11,C   8,C   5)     63.76 -0.000141    0.56     64.32   
    71. D(H  14,N  11,C   8,H  13)     58.71 -0.000167    0.33     59.04   
    72. D(H  14,N  11,C   8,H  12)    -59.56  0.000028    0.53    -59.03   
    73. D(H  14,N  11,C   8,C   5)   -178.43  0.000330    0.20   -178.23   
    74. D(H  15,N  11,C   8,H  13)    -59.09 -0.000638    0.68    -58.41   
    75. D(H  15,N  11,C   8,H  12)   -177.36 -0.000443    0.88   -176.48   
    ----------------------------------------------------------------------------

         *************************************************************
         *                GEOMETRY OPTIMIZATION CYCLE   2            *
         *************************************************************
---------------------------------
CARTESIAN COORDINATES (ANGSTROEM)
---------------------------------
  C     -2.435800    0.299327    0.135777
  C     -1.027771   -0.234647    0.395617
  H     -2.833634   -0.097716   -0.811476
  H     -2.427458    1.398386    0.066865
  H     -3.125448    0.012014    0.943999
  C     -0.043613    0.152379   -0.709599
  H     -1.061051   -1.334963    0.481902
  H     -0.669647    0.157713    1.363290
  C      1.357704   -0.420962   -0.513850
  H      0.038916    1.251056   -0.759137
  H     -0.436993   -0.198574   -1.679521
  N      2.040575    0.223036    0.603314
  H      1.952452   -0.229682   -1.422284
  H      1.278405   -1.523889   -0.403092
  H      2.981921   -0.149482    0.701479
  H      1.553178    0.020919    1.474194

----------------------------
CARTESIAN COORDINATES (A.U.)
----------------------------
  NO LB      ZA    FRAG     MASS         X           Y           Z
   0 C     6.0000    0    12.011   -4.602996    0.565646    0.256582
   1 C     6.0000    0    12.011   -1.942206   -0.443419    0.747607
   2 H     1.0000    0     1.008   -5.354792   -0.184657   -1.533468
   3 H     1.0000    0     1.008   -4.587231    2.642567    0.126357
   4 H     1.0000    0     1.008   -5.906240    0.022702    1.783900
   5 C     6.0000    0    12.011   -0.082417    0.287954   -1.340947
   6 H     1.0000    0     1.008   -2.005096   -2.522714    0.910662
   7 H     1.0000    0     1.008   -1.265450    0.298035    2.576244
   8 C     6.0000    0    12.011    2.565688   -0.795502   -0.971037
   9 H     1.0000    0     1.008    0.073541    2.364154   -1.434560
  10 H     1.0000    0     1.008   -0.825797   -0.375250   -3.173834
  11 N     7.0000    0    14.007    3.856127    0.421476    1.140098
  12 H     1.0000    0     1.008    3.689599   -0.434036   -2.687726
  13 H     1.0000    0     1.008    2.415835   -2.879732   -0.761733
  14 H     1.0000    0     1.008    5.635014   -0.282481    1.325604
  15 H     1.0000    0     1.008    2.935081    0.039531    2.785822

--------------------------------
INTERNAL COORDINATES (ANGSTROEM)
--------------------------------
 C      0   0   0     0.000000000000     0.00000000     0.00000000
 C      1   0   0     1.528133378212     0.00000000     0.00000000
 H      1   2   0     1.101455415213   110.67547155     0.00000000
 H      1   2   3     1.101249347299   110.63383754   240.35398427
 H      1   2   3     1.100629303088   111.17803713   120.18638716
 C      2   1   3     1.529658808450   112.42976851    59.99294249
 H      2   1   3     1.104195115672   109.49457124   298.49108298
 H      2   1   3     1.103897823150   108.89138694   181.59208770
 C      6   2   1     1.526671294003   113.75928876   182.71905826
 H      6   2   1     1.102886114043   109.42953410    61.66720369
 H      6   2   1     1.103931180059   108.97239029   304.14904748
 N      9   6   2     1.459144236914   111.22219862   289.60427259
 H      9   6   2     1.102526012186   108.92596897   171.21700236
 H      9   6   2     1.111307194085   108.66286138    54.95216019
 H     12   9   6     1.017123141152   110.20482169   181.76959360
 H     12   9   6     1.018252368521   110.07216934    64.32250762

---------------------------
INTERNAL COORDINATES (A.U.)
---------------------------
 C      0   0   0     0.000000000000     0.00000000     0.00000000
 C      1   0   0     2.887753580924     0.00000000     0.00000000
 H      1   2   0     2.081449083478   110.67547155     0.00000000
 H      1   2   3     2.081059671554   110.63383754   240.35398427
 H      1   2   3     2.079887957805   111.17803713   120.18638716
 C      2   1   3     2.890636226311   112.42976851    59.99294249
 H      2   1   3     2.086626367033   109.49457124   298.49108298
 H      2   1   3     2.086064565585   108.89138694   181.59208770
 C      6   2   1     2.884990642185   113.75928876   182.71905826
 H      6   2   1     2.084152712445   109.42953410    61.66720369
 H      6   2   1     2.086127601007   108.97239029   304.14904748
 N      9   6   2     2.757382997657   111.22219862   289.60427259
 H      9   6   2     2.083472218556   108.92596897   171.21700236
 H      9   6   2     2.100066247477   108.66286138    54.95216019
 H     12   9   6     1.922084181251   110.20482169   181.76959360
 H     12   9   6     1.924218111721   110.07216934    64.32250762



           ************************************************************
           *        Program running with 4 parallel MPI-processes     *
           *              working on a common directory               *
           ************************************************************
------------------------------------------------------------------------------
                   ___                                                        
                  /   \      - P O W E R E D   B Y -                         
                 /     \                                                     
                 |  |  |   _    _      __       _____    __    __             
                 |  |  |  | |  | |    /  \     |  _  \  |  |  /  |          
                  \  \/   | |  | |   /    \    | | | |  |  | /  /          
                 / \  \   | |__| |  /  /\  \   | |_| |  |  |/  /          
                |  |  |   |  __  | /  /__\  \  |    /   |      \           
                |  |  |   | |  | | |   __   |  |    \   |  |\   \          
                \     /   | |  | | |  |  |  |  | |\  \  |  | \   \       
                 \___/    |_|  |_| |__|  |__|  |_| \__\ |__|  \__/        
                                                                              
[...]
     37       0.084266  -0.053657  -0.015696  -0.026450   0.023588  -0.677133
     38      -0.301775  -0.110298  -0.025044   0.000088   0.003944  -0.179240
     39      -0.537736   0.013405   0.014293   0.042683  -0.019609   0.284988
     40       0.010526  -0.001918   0.001410  -0.001783   0.000190   0.005478
     41      -0.132756  -0.049349  -0.010071  -0.008220   0.034683  -0.628798
     42      -0.074544  -0.012715  -0.003031   0.000554  -0.003545  -0.009937
     43      -0.139349  -0.032342  -0.004698   0.001918  -0.006608  -0.013243
     44      -0.214362  -0.057360   0.006316   0.014553   0.003256  -0.069083
     45       0.134604   0.017782   0.006928   0.002875   0.014919  -0.035343
     46       0.075983   0.026311   0.000017  -0.000630   0.001055   0.003307
     47       0.132484   0.032682   0.004322   0.000502   0.009529  -0.012071
                 36         37         38         39         40         41    
      0      -0.001039   0.000270  -0.009540  -0.029291   0.035574   0.002375
      1       0.000947   0.000118   0.000089   0.012570  -0.013688   0.011155
      2       0.001924  -0.000185   0.000741  -0.010458   0.011165   0.007765
      3       0.002034  -0.000209  -0.013571   0.005727  -0.001747  -0.020897
      4      -0.001877   0.001312   0.047789  -0.014211   0.000783  -0.061711
      5      -0.000562  -0.000249  -0.047077   0.011084  -0.002912  -0.046290
      6       0.012794  -0.000597   0.039114   0.139551  -0.170164  -0.040110
      7      -0.006528  -0.000643   0.046324   0.162359  -0.193370  -0.044538
      8      -0.001304  -0.000803   0.095096   0.322718  -0.386206  -0.092051
      9       0.001402  -0.000856  -0.001114  -0.001636  -0.000493   0.000109
     10       0.001446   0.001842  -0.085551  -0.380984   0.444642  -0.099299
     11       0.002041  -0.000138   0.010717   0.043089  -0.049941   0.013595
     12      -0.001667  -0.001228   0.082247   0.190009  -0.240096   0.013012
     13       0.002354  -0.000913   0.034634   0.074687  -0.092610   0.007770
     14       0.002252   0.001997  -0.111148  -0.243372   0.303938  -0.014775
     15       0.004638  -0.000128   0.002068   0.015458   0.013045   0.010384
     16      -0.003947   0.003268  -0.007653  -0.020898  -0.019144   0.038259
     17      -0.004683   0.003416   0.010118   0.044078   0.039348   0.017374
     18      -0.006739   0.003485  -0.016147   0.001831   0.000749   0.004339
     19      -0.002233  -0.014338  -0.792058   0.219441  -0.015059   0.450526
     20      -0.006909  -0.000711   0.099897  -0.027808   0.002237  -0.066519
     21      -0.035097   0.000746   0.179949  -0.044773   0.011955   0.248892
     22       0.015802   0.001944   0.226888  -0.053825   0.011851   0.292105
     23       0.001676   0.003778   0.448887  -0.106636   0.027232   0.619621
     24      -0.002481   0.006908  -0.000103   0.002547   0.002614  -0.005548
     25       0.027614  -0.076344   0.001488   0.003559   0.004142  -0.001940
     26       0.005079  -0.007883  -0.001165  -0.005350  -0.005683   0.007771
     27       0.010832  -0.002045   0.008534   0.028617   0.027220  -0.018360
     28      -0.003016  -0.028706   0.134085   0.453081   0.406525  -0.363546
     29       0.004619   0.004336  -0.012168  -0.036544  -0.034317   0.037211
     30      -0.032150  -0.009748  -0.040645  -0.204834  -0.178067  -0.105936
     31       0.006234  -0.017193  -0.043168  -0.210405  -0.184896  -0.101323
     32       0.007749  -0.037601  -0.097770  -0.482128  -0.425337  -0.246984
     33      -0.040283  -0.000718  -0.000069  -0.000070  -0.000042  -0.000368
     34      -0.005230  -0.000438   0.000032   0.000047   0.000067  -0.000137
     35      -0.069531  -0.001436   0.000124  -0.000065   0.000021   0.000066
     36      -0.023666  -0.097909  -0.003289  -0.042533  -0.040781   0.065983
     37      -0.055433  -0.061807  -0.003916  -0.020506  -0.020757   0.029778
     38      -0.034074   0.145286   0.008138   0.063804   0.063334  -0.092921
     39       0.040857   0.039768   0.002865   0.000825   0.000745  -0.001257
     40       0.032744   0.976604  -0.015697  -0.018201  -0.024733   0.000687
     41       0.007206  -0.033617   0.000182  -0.000496  -0.000006   0.001475
     42      -0.085979   0.005345  -0.000369   0.000158   0.000126  -0.001074
     43      -0.128423   0.000082  -0.000270  -0.000377  -0.000645  -0.000370
     44       0.680932  -0.006324   0.001549   0.000415   0.000412   0.002143
     45       0.641621  -0.008509   0.001792   0.000006  -0.000269   0.002596
     46      -0.061215   0.002924   0.001249   0.000237   0.000649  -0.000254
     47       0.281051   0.002156   0.000342  -0.001066  -0.001112  -0.002295
                 42         43         44         45         46         47    
      0      -0.000008   0.002925  -0.017095  -0.033097  -0.000021  -0.000014
      1      -0.002386   0.012610  -0.076459  -0.040166  -0.000024  -0.000018
      2      -0.001643   0.007841  -0.046704   0.077684  -0.000004  -0.000037
      3       0.004112  -0.009948  -0.004940   0.001190  -0.000017   0.000078
      4       0.010726  -0.033240  -0.016374  -0.002433  -0.000207   0.000219
      5       0.007789  -0.021925  -0.010611   0.003584  -0.000219   0.000156
      6       0.005990  -0.040555   0.262888  -0.119601   0.000157  -0.000143
      7       0.007446  -0.047769   0.283991  -0.134684   0.000118   0.000033
      8       0.015237  -0.098024   0.589790  -0.248086   0.000319  -0.000075
      9      -0.000263  -0.001937  -0.007738  -0.007349  -0.000040   0.000052
     10       0.024650  -0.106690   0.656998   0.423688   0.000172  -0.000061
     11      -0.003283   0.014307  -0.084735  -0.038314  -0.000046   0.000033
     12      -0.006848   0.008406  -0.049967   0.516564   0.000058  -0.000066
     13      -0.003010   0.006892  -0.029012   0.191552   0.000039  -0.000012
     14       0.007544  -0.007739   0.052262  -0.640139  -0.000037   0.000045
     15       0.004270  -0.019917  -0.001660   0.000192   0.000186   0.000202
     16      -0.000348  -0.073035  -0.005874  -0.000129  -0.000191  -0.000093
     17       0.009349  -0.033635  -0.002842  -0.000080  -0.000190   0.000035
     18       0.000008   0.006201  -0.000010  -0.000630  -0.000040  -0.000149
     19      -0.075549   0.255622   0.125024   0.038974   0.001565  -0.001467
     20       0.010756  -0.038320  -0.016621  -0.005753  -0.000068   0.000113
     21      -0.042820   0.114875   0.058228  -0.012985   0.002708  -0.001363
     22      -0.051589   0.139459   0.066690  -0.013843   0.000619  -0.000694
     23      -0.108791   0.295958   0.139880  -0.030852   0.003046  -0.002793
     24      -0.046411  -0.005255  -0.000237   0.000024   0.000978  -0.000915
     25      -0.032972  -0.008193  -0.000439  -0.000200   0.003215  -0.000027
     26       0.064770   0.006450   0.000208   0.000141   0.000845   0.001260
     27       0.000500   0.038909   0.005280   0.001682   0.000203   0.000034
     28       0.040007   0.674081   0.054032   0.004150  -0.000375   0.000166
     29      -0.003320  -0.069565  -0.006863  -0.001058  -0.000031   0.000205
     30      -0.045831   0.198474   0.014833   0.000433  -0.000999  -0.000473
     31      -0.043070   0.196350   0.016725  -0.001051   0.000540   0.000084
     32      -0.105549   0.474479   0.042519  -0.002772   0.000315   0.000110
     33       0.001018   0.000019  -0.000047  -0.000043  -0.022732  -0.071895
     34       0.000225   0.000302   0.000032  -0.000004   0.026466  -0.004067
     35      -0.001675   0.000176   0.000125  -0.000031  -0.046694   0.036280
     36       0.540645   0.059449   0.002406   0.000815  -0.003991   0.007017
     37       0.242713   0.027285   0.001173   0.000492  -0.003376   0.002592
     38      -0.759147  -0.080601  -0.002968  -0.001276   0.004497  -0.009213
     39      -0.001375  -0.000950  -0.000738  -0.000566   0.000442   0.000936
     40       0.156773   0.064027   0.005255   0.002244  -0.006153   0.001484
     41       0.001274  -0.001556  -0.000048  -0.000098   0.004171  -0.000309
     42      -0.002733   0.000057  -0.000255   0.000030   0.643044   0.725887
     43       0.003729   0.001460   0.000114   0.000059  -0.141326  -0.188131
     44       0.002633   0.000980   0.000527  -0.000278   0.011918   0.034803
     45      -0.008184   0.000425   0.000892  -0.000152  -0.339085   0.275040
     46      -0.007571  -0.001212  -0.000052  -0.000011  -0.252876   0.241560
     47       0.009505  -0.000616  -0.001135  -0.000031   0.619612  -0.543897


-----------
IR SPECTRUM
-----------

 Mode   freq       eps      Int      T**2         TX        TY        TZ
       cm**-1   L/(mol*cm) km/mol    a.u.
----------------------------------------------------------------------------
  6:     92.37   0.000071    0.36  0.000238  ( 0.010948  0.002732  0.010542)
  7:    138.36   0.001868    9.44  0.004212  ( 0.059566  0.007811 -0.024563)
  8:    224.14   0.005851   29.57  0.008146  ( 0.082626  0.008694 -0.035256)
  9:    248.27   0.001407    7.11  0.001769  ( 0.040373  0.005719 -0.010291)
 10:    281.48   0.002364   11.94  0.002620  (-0.050689 -0.004937  0.005165)
 11:    360.10   0.001342    6.78  0.001163  (-0.032391 -0.010626 -0.000816)
 12:    510.34   0.001129    5.71  0.000691  ( 0.019107  0.014284  0.011020)
 13:    750.39   0.000093    0.47  0.000039  ( 0.000484  0.005171  0.003423)
 14:    832.76   0.011860   59.94  0.004445  ( 0.011966  0.058570  0.029510)
 15:    844.78   0.013122   66.31  0.004847  (-0.019150 -0.061596 -0.026199)
 16:    874.25   0.000676    3.42  0.000241  (-0.003125 -0.015217 -0.000165)
 17:    960.67   0.000763    3.85  0.000248  ( 0.004096 -0.010157 -0.011305)
 18:    990.82   0.001267    6.40  0.000399  (-0.010472 -0.015123 -0.007792)
 19:   1081.77   0.000190    0.96  0.000055  (-0.007082 -0.000509 -0.002104)
 20:   1089.27   0.000382    1.93  0.000110  (-0.002712 -0.004865  0.008863)
 21:   1155.24   0.001805    9.12  0.000488  ( 0.014208  0.003141  0.016613)
 22:   1164.91   0.002300   11.62  0.000616  ( 0.000717  0.024274  0.005143)
 23:   1213.22   0.000146    0.74  0.000038  ( 0.000312 -0.003988 -0.004651)
 24:   1262.27   0.000291    1.47  0.000072  (-0.005232  0.006530 -0.001403)
 25:   1321.14   0.000171    0.87  0.000041  (-0.006064 -0.001334 -0.001399)
 26:   1324.96   0.000024    0.12  0.000006  ( 0.000632  0.000207 -0.002303)
 27:   1353.41   0.000957    4.84  0.000221  ( 0.005786  0.002155  0.013513)
 28:   1401.69   0.000401    2.03  0.000089  (-0.008426  0.001194 -0.004097)
 29:   1422.01   0.000422    2.13  0.000093  (-0.003000 -0.006178 -0.006740)
 30:   1447.39   0.002373   11.99  0.000512  ( 0.018857  0.002333  0.012275)
 31:   1461.20   0.001014    5.12  0.000216  ( 0.008995 -0.006977  0.009322)
 32:   1474.28   0.000289    1.46  0.000061  ( 0.006515  0.004272  0.000615)
 33:   1476.63   0.001649    8.33  0.000348  (-0.002169 -0.015623 -0.009983)
 34:   1485.94   0.001073    5.42  0.000225  (-0.002357 -0.007288  0.012909)
 35:   1496.27   0.000619    3.13  0.000129  ( 0.010580 -0.001732  0.003749)
 36:   1646.80   0.007007   35.41  0.001328  ( 0.020061 -0.012087  0.027915)
 37:   2974.56   0.016450   83.13  0.001726  ( 0.002399 -0.039509 -0.012610)
 38:   3050.19   0.005494   27.76  0.000562  (-0.009001  0.016918 -0.013958)
 39:   3058.38   0.003065   15.49  0.000313  (-0.005692 -0.005678  0.015753)
 40:   3059.47   0.007989   40.37  0.000815  ( 0.022109 -0.009567  0.015315)
 41:   3102.17   0.000427    2.16  0.000043  (-0.004560 -0.003647 -0.002983)
 42:   3108.18   0.007676   38.79  0.000771  (-0.012850 -0.006679  0.023685)
 43:   3122.64   0.007796   39.40  0.000779  (-0.007845 -0.024681 -0.010410)
 44:   3152.76   0.007323   37.01  0.000725  (-0.005321 -0.022385 -0.013981)
 45:   3161.24   0.005048   25.51  0.000498  (-0.008866 -0.009131  0.018340)
 46:   3568.96   0.000127    0.64  0.000011  ( 0.001146 -0.002883  0.001209)
 47:   3648.40   0.000471    2.38  0.000040  ( 0.005724  0.000256 -0.002728)

* The epsilon (eps) is given for a Dirac delta lineshape.
** The dipole moment derivative (T) already includes vibrational overlap.

The first frequency considered to be a vibration is 6
The total number of vibrations considered is 42


--------------------------
THERMOCHEMISTRY AT 298.15K
--------------------------

Temperature         ... 298.15 K
Pressure            ... 1.00 atm
Total Mass          ... 73.14 AMU

Throughout the following assumptions are being made:
  (1) The electronic state is orbitally nondegenerate
  (2) There are no thermally accessible electronically excited states
  (3) Hindered rotations indicated by low frequency modes are not
      treated as such but are treated as vibrations and this may
      cause some error
  (4) All equations used are the standard statistical mechanics
      equations for an ideal gas
  (5) All vibrations are strictly harmonic

freq.      92.37  E(vib)   ...       0.47 
freq.     138.36  E(vib)   ...       0.42 
freq.     224.14  E(vib)   ...       0.33 
freq.     248.27  E(vib)   ...       0.31 
freq.     281.48  E(vib)   ...       0.28 
freq.     360.10  E(vib)   ...       0.22 
freq.     510.34  E(vib)   ...       0.14 
freq.     750.39  E(vib)   ...       0.06 
freq.     832.76  E(vib)   ...       0.04 
freq.     844.78  E(vib)   ...       0.04 
freq.     874.25  E(vib)   ...       0.04 
freq.     960.67  E(vib)   ...       0.03 
freq.     990.82  E(vib)   ...       0.02 
freq.    1081.77  E(vib)   ...       0.02 
freq.    1089.27  E(vib)   ...       0.02 
freq.    1155.24  E(vib)   ...       0.01 
freq.    1164.91  E(vib)   ...       0.01 
freq.    1213.22  E(vib)   ...       0.01 
freq.    1262.27  E(vib)   ...       0.01 
freq.    1321.14  E(vib)   ...       0.01 
freq.    1324.96  E(vib)   ...       0.01 
freq.    1353.41  E(vib)   ...       0.01 
freq.    1401.69  E(vib)   ...       0.00 
freq.    1422.01  E(vib)   ...       0.00 
freq.    1447.39  E(vib)   ...       0.00 
freq.    1461.20  E(vib)   ...       0.00 
freq.    1474.28  E(vib)   ...       0.00 
freq.    1476.63  E(vib)   ...       0.00 
freq.    1485.94  E(vib)   ...       0.00 
freq.    1496.27  E(vib)   ...       0.00 
freq.    1646.80  E(vib)   ...       0.00 
freq.    2974.56  E(vib)   ...       0.00 
freq.    3050.19  E(vib)   ...       0.00 
freq.    3058.38  E(vib)   ...       0.00 
freq.    3059.47  E(vib)   ...       0.00 
freq.    3102.17  E(vib)   ...       0.00 
freq.    3108.18  E(vib)   ...       0.00 
freq.    3122.64  E(vib)   ...       0.00 
freq.    3152.76  E(vib)   ...       0.00 
freq.    3161.24  E(vib)   ...       0.00 
freq.    3568.96  E(vib)   ...       0.00 
freq.    3648.40  E(vib)   ...       0.00 

------------
INNER ENERGY
------------

The inner energy is: U= E(el) + E(ZPE) + E(vib) + E(rot) + E(trans)
    E(el)   - is the total energy from the electronic structure calculation
              = E(kin-el) + E(nuc-el) + E(el-el) + E(nuc-nuc)
    E(ZPE)  - the the zero temperature vibrational energy from the frequency calculation
    E(vib)  - the the finite temperature correction to E(ZPE) due to population
              of excited vibrational states
    E(rot)  - is the rotational thermal energy
    E(trans)- is the translational thermal energy

Summary of contributions to the inner energy U:
Electronic energy                ...   -213.59021735 Eh
Zero point energy                ...      0.15125687 Eh      94.91 kcal/mol
Thermal vibrational correction   ...      0.00400743 Eh       2.51 kcal/mol
Thermal rotational correction    ...      0.00141627 Eh       0.89 kcal/mol
Thermal translational correction ...      0.00141627 Eh       0.89 kcal/mol
-----------------------------------------------------------------------
Total thermal energy                   -213.43212050 Eh


Summary of corrections to the electronic energy:
(perhaps to be used in another calculation)
Total thermal correction                  0.00683997 Eh       4.29 kcal/mol
Non-thermal (ZPE) correction              0.15125687 Eh      94.91 kcal/mol
-----------------------------------------------------------------------
Total correction                          0.15809685 Eh      99.21 kcal/mol


--------
ENTHALPY
--------

The enthalpy is H = U + kB*T
                kB is Boltzmann's constant
Total free energy                 ...   -213.43212050 Eh 
Thermal Enthalpy correction       ...      0.00094421 Eh       0.59 kcal/mol
-----------------------------------------------------------------------
Total Enthalpy                    ...   -213.43117629 Eh


Note: Only C1 symmetry has been detected, increase convergence thresholds 
      if your molecule has a higher symmetry. Symmetry factor of 1.0 is   
      used for the rotational entropy correction. 
 

Note: Rotational entropy computed according to Herzberg 
Infrared and Raman Spectra, Chapter V,1, Van Nostrand Reinhold, 1945 
Point Group:  C1, Symmetry Number:   1  
Rotational constants in cm-1:     0.408891     0.078392     0.071780 

Vibrational entropy computed according to the QRRHO of S. Grimme
Chem.Eur.J. 2012 18 9955


-------
ENTROPY
-------

The entropy contributions are T*S = T*(S(el)+S(vib)+S(rot)+S(trans))
     S(el)   - electronic entropy
     S(vib)  - vibrational entropy
     S(rot)  - rotational entropy
     S(trans)- translational entropy
The entropies will be listed as multiplied by the temperature to get
units of energy

Electronic entropy                ...      0.00000000 Eh      0.00 kcal/mol
Vibrational entropy               ...      0.00684674 Eh      4.30 kcal/mol
Rotational entropy                ...      0.01237852 Eh      7.77 kcal/mol
Translational entropy             ...      0.01842822 Eh     11.56 kcal/mol
-----------------------------------------------------------------------
Final entropy term                ...      0.03765348 Eh     23.63 kcal/mol

In case the symmetry of your molecule has not been determined correctly
or in case you have a reason to use a different symmetry number we print 
out the resulting rotational entropy values for sn=1,12 :
 --------------------------------------------------------
|  sn= 1 | S(rot)=       0.01237852 Eh      7.77 kcal/mol|
|  sn= 2 | S(rot)=       0.01172407 Eh      7.36 kcal/mol|
|  sn= 3 | S(rot)=       0.01134124 Eh      7.12 kcal/mol|
|  sn= 4 | S(rot)=       0.01106961 Eh      6.95 kcal/mol|
|  sn= 5 | S(rot)=       0.01085892 Eh      6.81 kcal/mol|
|  sn= 6 | S(rot)=       0.01068678 Eh      6.71 kcal/mol|
|  sn= 7 | S(rot)=       0.01054123 Eh      6.61 kcal/mol|
|  sn= 8 | S(rot)=       0.01041516 Eh      6.54 kcal/mol|
|  sn= 9 | S(rot)=       0.01030395 Eh      6.47 kcal/mol|
|  sn=10 | S(rot)=       0.01020447 Eh      6.40 kcal/mol|
|  sn=11 | S(rot)=       0.01011448 Eh      6.35 kcal/mol|
|  sn=12 | S(rot)=       0.01003232 Eh      6.30 kcal/mol|
 --------------------------------------------------------


-------------------
GIBBS FREE ENERGY
-------------------

The Gibbs free energy is G = H - T*S

Total enthalpy                    ...   -213.43117629 Eh 
Total entropy correction          ...     -0.03765348 Eh    -23.63 kcal/mol
-----------------------------------------------------------------------
Final Gibbs free energy         ...   -213.46882978 Eh

For completeness - the Gibbs free energy minus the electronic energy
G-E(el)                           ...      0.12138757 Eh     76.17 kcal/mol


Timings for individual modules:

Sum of individual times         ...      283.565 sec (=   4.726 min)
GTO integral calculation        ...        6.121 sec (=   0.102 min)   2.2 %
SCF iterations                  ...      164.331 sec (=   2.739 min)  58.0 %
SCF Gradient evaluation         ...       48.067 sec (=   0.801 min)  17.0 %
Geometry relaxation             ...        0.593 sec (=   0.010 min)   0.2 %
Analytical frequency calculation...       64.453 sec (=   1.074 min)  22.7 %
                             ****ORCA TERMINATED NORMALLY****
TOTAL RUN TIME: 0 days 0 hours 4 minutes 47 seconds 86 msec
