
                                 *****************
                                 * O   R   C   A *
                                 *****************

                                            #,                                       
                                            ###                                      
                                            ####                                     
                                            #####                                    
                                            ######                                   
                                           ########,                                 
                                     ,,################,,,,,                         
                               ,,#################################,,                 
                          ,,##########################################,,             
                       ,#########################################, ''#####,          
                    ,#############################################,,   '####,        
                  ,##################################################,,,,####,       
                ,###########''''           ''''###############################       
              ,#####''   ,,,,##########,,,,          '''####'''          '####       
            ,##' ,,,,###########################,,,                        '##       
           ' ,,###''''                  '''############,,,                           
         ,,##''                                '''############,,,,        ,,,,,,###''
      ,#''                                            '''#######################'''  
     '                                                          ''''####''''         
             ,#######,   #######,   ,#######,      ##                                
            ,#'     '#,  ##    ##  ,#'     '#,    #''#        ######   ,####,        
            ##       ##  ##   ,#'  ##            #'  '#       #        #'  '#        
            ##       ##  #######   ##           ,######,      #####,   #    #        
            '#,     ,#'  ##    ##  '#,     ,#' ,#      #,         ##   #,  ,#        
             '#######'   ##     ##  '#######'  #'      '#     #####' # '####'        



                  #######################################################
                  #                        -***-                        #
                  #          Department of theory and spectroscopy      #
                  #    Directorship and core code : Frank Neese         #
                  #        Max Planck Institute fuer Kohlenforschung    #
                  #                Kaiser Wilhelm Platz 1               #
                  #                 D-45470 Muelheim/Ruhr               #
                  #                      Germany                        #
                  #                                                     #
                  #                  All rights reserved                #
                  #                        -***-                        #
                  #######################################################


                         Program Version 5.0.4 -  RELEASE  -


 With contributions from (in alphabetic order):
   Daniel Aravena         : Magnetic Suceptibility
   Michael Atanasov       : Ab Initio Ligand Field Theory (pilot matlab implementation)
   Alexander A. Auer      : GIAO ZORA, VPT2 properties, NMR spectrum
   Ute Becker             : Parallelization
   Giovanni Bistoni       : ED, misc. LED, open-shell LED, HFLD
   Martin Brehm           : Molecular dynamics
   Dmytro Bykov           : SCF Hessian
   Vijay G. Chilkuri      : MRCI spin determinant printing, contributions to CSF-ICE
   Dipayan Datta          : RHF DLPNO-CCSD density
   Achintya Kumar Dutta   : EOM-CC, STEOM-CC
   Dmitry Ganyushin       : Spin-Orbit,Spin-Spin,Magnetic field MRCI
   Miquel Garcia          : C-PCM and meta-GGA Hessian, CC/C-PCM, Gaussian charge scheme
   Yang Guo               : DLPNO-NEVPT2, F12-NEVPT2, CIM, IAO-localization
   Andreas Hansen         : Spin unrestricted coupled pair/coupled cluster methods
   Benjamin Helmich-Paris : MC-RPA, TRAH-SCF, COSX integrals
   Lee Huntington         : MR-EOM, pCC
   Robert Izsak           : Overlap fitted RIJCOSX, COSX-SCS-MP3, EOM
   Marcus Kettner         : VPT2
   Christian Kollmar      : KDIIS, OOCD, Brueckner-CCSD(T), CCSD density, CASPT2, CASPT2-K
   Simone Kossmann        : Meta GGA functionals, TD-DFT gradient, OOMP2, MP2 Hessian
   Martin Krupicka        : Initial AUTO-CI
   Lucas Lang             : DCDCAS
   Marvin Lechner         : AUTO-CI (C++ implementation), FIC-MRCC
   Dagmar Lenk            : GEPOL surface, SMD
   Dimitrios Liakos       : Extrapolation schemes; Compound Job, initial MDCI parallelization
   Dimitrios Manganas     : Further ROCIS development; embedding schemes
   Dimitrios Pantazis     : SARC Basis sets
   Anastasios Papadopoulos: AUTO-CI, single reference methods and gradients
   Taras Petrenko         : DFT Hessian,TD-DFT gradient, ASA, ECA, R-Raman, ABS, FL, XAS/XES, NRVS
   Peter Pinski           : DLPNO-MP2, DLPNO-MP2 Gradient
   Christoph Reimann      : Effective Core Potentials
   Marius Retegan         : Local ZFS, SOC
   Christoph Riplinger    : Optimizer, TS searches, QM/MM, DLPNO-CCSD(T), (RO)-DLPNO pert. Triples
   Tobias Risthaus        : Range-separated hybrids, TD-DFT gradient, RPA, STAB
   Michael Roemelt        : Original ROCIS implementation
   Masaaki Saitow         : Open-shell DLPNO-CCSD energy and density
   Barbara Sandhoefer     : DKH picture change effects
   Avijit Sen             : IP-ROCIS
   Kantharuban Sivalingam : CASSCF convergence, NEVPT2, FIC-MRCI
   Bernardo de Souza      : ESD, SOC TD-DFT
   Georgi Stoychev        : AutoAux, RI-MP2 NMR, DLPNO-MP2 response
   Willem Van den Heuvel  : Paramagnetic NMR
   Boris Wezisla          : Elementary symmetry handling
   Frank Wennmohs         : Technical directorship


 We gratefully acknowledge several colleagues who have allowed us to
 interface, adapt or use parts of their codes:
   Stefan Grimme, W. Hujo, H. Kruse, P. Pracht,  : VdW corrections, initial TS optimization,
                  C. Bannwarth, S. Ehlert          DFT functionals, gCP, sTDA/sTD-DF
   Ed Valeev, F. Pavosevic, A. Kumar             : LibInt (2-el integral package), F12 methods
   Garnet Chan, S. Sharma, J. Yang, R. Olivares  : DMRG
   Ulf Ekstrom                                   : XCFun DFT Library
   Mihaly Kallay                                 : mrcc  (arbitrary order and MRCC methods)
   Jiri Pittner, Ondrej Demel                    : Mk-CCSD
   Frank Weinhold                                : gennbo (NPA and NBO analysis)
   Christopher J. Cramer and Donald G. Truhlar   : smd solvation model
   Lars Goerigk                                  : TD-DFT with DH, B97 family of functionals
   V. Asgeirsson, H. Jonsson                     : NEB implementation
   FAccTs GmbH                                   : IRC, NEB, NEB-TS, DLPNO-Multilevel, CI-OPT
                                                   MM, QMMM, 2- and 3-layer-ONIOM, Crystal-QMMM,
                                                   LR-CPCM, SF, NACMEs, symmetry and pop. for TD-DFT,
                                                   nearIR, NL-DFT gradient (VV10), updates on ESD,
                                                   ML-optimized integration grids
   S Lehtola, MJT Oliveira, MAL Marques          : LibXC Library
   Liviu Ungur et al                             : ANISO software


 Your calculation uses the libint2 library for the computation of 2-el integrals
 For citations please refer to: http://libint.valeyev.net

 Your ORCA version has been built with support for libXC version: 5.1.0
 For citations please refer to: https://tddft.org/programs/libxc/

 This ORCA versions uses:
   CBLAS   interface :  Fast vector & matrix operations
   LAPACKE interface :  Fast linear algebra routines
   SCALAPACK package :  Parallel linear algebra routines
   Shared memory     :  Shared parallel matrices
   BLAS/LAPACK       :  OpenBLAS 0.3.15  USE64BITINT DYNAMIC_ARCH NO_AFFINITY SkylakeX SINGLE_THREADED
        Core in use  :  SkylakeX
   Copyright (c) 2011-2014, The OpenBLAS Project




***************************************
The coordinates will be read from file: butylamine_deprot_aq_5.xyz
***************************************


Your calculation utilizes the atom-pairwise dispersion correction
based on tight binding partial charges (D4)
Cite in your paper:
E.Caldeweyher, C.Bannwarth, S.Grimme, J.Chem.Phys., (2017), 147, 034112.
E.Caldeweyher, S.Ehlert, A.Hansen, H.Neugebauer, S.Grimme, J.Chem.Phys., (2018), in progress.
   

XCFun DFT library Copyright 2009-2010 Ulf Ekstrom and contributors.
See http://admol.org/xcfun for more information.
This is free software; see the source code for copying conditions.
There is ABSOLUTELY NO WARRANTY; not even for MERCHANTABILITY or FITNESS FOR A PARTICULAR PURPOSE.
For details see the documentation.
Scientific users of this library should cite U. Ekstrom, L. Visscher, R. Bast, A. J. Thorvaldsen and K. Ruud;
J.Chem.Theor.Comp. 2010, DOI: 10.1021/ct100117s
XCFun Version 0.99 

================================================================================

----- Orbital basis set information -----
Your calculation utilizes the basis: def2-SVP
   F. Weigend and R. Ahlrichs, Phys. Chem. Chem. Phys. 7, 3297 (2005).

----- AuxJ basis set information -----
Your calculation utilizes the auxiliary basis: def2/J
   F. Weigend, Phys. Chem. Chem. Phys. 8, 1057 (2006).

================================================================================
                                        WARNINGS
                       Please study these warnings very carefully!
================================================================================


WARNING: Geometry Optimization
  ===> : Switching off AutoStart
         For restart on a previous wavefunction, please use MOREAD

INFO   : the flag for use of the SHARK integral package has been found!

================================================================================
                                       INPUT FILE
================================================================================
NAME = butylamine_deprot_aq_5.inp
|  1> # ORCA 5.0.4 - /users/bwb16179/postgrad/2024_06/pKa_Reviewer_Comments/CREST_Confs/butylamine/butylamine_deprot_aq_5.inp # write input file
|  2> # Basic Mode
|  3> #
|  4> ! Opt Freq wB97X Def2-SVP D4 SlowConv TightSCF Defgrid2 Def2/J RIJCOSX 
|  5> 
|  6> %PAL NPROCS 4 END
|  7> 
|  8> %maxcore 4500
|  9> 
| 10> %geom
| 11> Maxiter 150
| 12> END
| 13> 
| 14> * xyzfile 0 1 butylamine_deprot_aq_5.xyz
| 15> 
| 16>                          ****END OF INPUT****
================================================================================

                       *****************************
                       * Geometry Optimization Run *
                       *****************************

Geometry optimization settings:
Update method            Update   .... BFGS
Choice of coordinates    CoordSys .... Z-matrix Internals
Initial Hessian          InHess   .... Almoef's Model

Convergence Tolerances:
Energy Change            TolE     ....  5.0000e-06 Eh
Max. Gradient            TolMAXG  ....  3.0000e-04 Eh/bohr
RMS Gradient             TolRMSG  ....  1.0000e-04 Eh/bohr
Max. Displacement        TolMAXD  ....  4.0000e-03 bohr
RMS Displacement         TolRMSD  ....  2.0000e-03 bohr
Strict Convergence                ....  False
------------------------------------------------------------------------------
                        ORCA OPTIMIZATION COORDINATE SETUP
------------------------------------------------------------------------------

The optimization will be done in new redundant internal coordinates
Making redundant internal coordinates   ...  (new redundants) done
Evaluating the initial hessian          ...  (Almloef) done
Evaluating the coordinates              ...  done
Calculating the B-matrix                .... done
Calculating the G-matrix                .... done
Diagonalizing the G-matrix              .... done
Small eigenvalue found = 2.671e-02
The first mode is                       ....   33
The number of degrees of freedom        ....   42

    -----------------------------------------------------------------
                    Redundant Internal Coordinates


    -----------------------------------------------------------------
         Definition                    Initial Value    Approx d2E/dq
    -----------------------------------------------------------------
      1. B(C   1,C   0)                  1.5241         0.381780   
      2. B(H   2,C   0)                  1.0878         0.363067   
      3. B(H   3,C   0)                  1.0873         0.363630   
      4. B(H   4,C   0)                  1.0875         0.363390   
      5. B(C   5,C   1)                  1.5262         0.378813   
      6. B(H   6,C   1)                  1.0922         0.357153   
      7. B(H   7,C   1)                  1.0929         0.356338   
      8. B(C   8,C   5)                  1.5269         0.377889   
      9. B(H   9,C   5)                  1.0930         0.356163   
     10. B(H  10,C   5)                  1.0910         0.358812   
     11. B(N  11,C   8)                  1.4573         0.436953   
     12. B(H  12,C   8)                  1.0944         0.354386   
     13. B(H  13,C   8)                  1.1048         0.340982   
     14. B(H  14,N  11)                  1.0136         0.427062   
     15. B(H  15,N  11)                  1.0146         0.425461   
     16. A(H   3,C   0,H   4)          108.4776         0.291702   
     17. A(C   1,C   0,H   4)          110.4354         0.325966   
     18. A(C   1,C   0,H   2)          110.5274         0.325919   
     19. A(H   2,C   0,H   3)          108.4331         0.291662   
     20. A(H   2,C   0,H   4)          108.3225         0.291631   
     21. A(C   1,C   0,H   3)          110.5719         0.326002   
     22. A(C   0,C   1,C   5)          111.7591         0.365574   
     23. A(H   6,C   1,H   7)          107.5900         0.289986   
     24. A(C   5,C   1,H   7)          109.2956         0.324501   
     25. A(C   0,C   1,H   7)          109.4359         0.324917   
     26. A(C   5,C   1,H   6)          109.2175         0.324623   
     27. A(C   0,C   1,H   6)          109.4489         0.325039   
     28. A(C   8,C   5,H   9)          109.0822         0.324345   
     29. A(C   1,C   5,H   9)          109.4438         0.324475   
     30. A(C   1,C   5,C   8)          112.1289         0.364934   
     31. A(H   9,C   5,H  10)          107.6922         0.290175   
     32. A(C   8,C   5,H  10)          108.4935         0.324740   
     33. A(C   1,C   5,H  10)          109.8920         0.324870   
     34. A(H  12,C   8,H  13)          107.5579         0.287642   
     35. A(N  11,C   8,H  13)          113.0125         0.327842   
     36. A(C   5,C   8,H  13)          109.0394         0.322036   
     37. A(N  11,C   8,H  12)          107.4148         0.329935   
     38. A(C   5,C   8,H  12)          109.4541         0.324079   
     39. A(C   5,C   8,N  11)          110.2708         0.371652   
     40. A(H  14,N  11,H  15)          107.5488         0.301806   
     41. A(C   8,N  11,H  15)          109.5958         0.337186   
     42. A(C   8,N  11,H  14)          109.9824         0.337397   
     43. D(H   6,C   1,C   0,H   4)    -61.3107         0.011611   
     44. D(C   5,C   1,C   0,H   3)    179.8797         0.011611   
     45. D(H   7,C   1,C   0,H   3)    -58.9131         0.011611   
     46. D(H   6,C   1,C   0,H   2)    178.8389         0.011611   
     47. D(C   5,C   1,C   0,H   4)     59.8070         0.011611   
     48. D(H   6,C   1,C   0,H   3)     58.7620         0.011611   
     49. D(H   7,C   1,C   0,H   4)   -178.9858         0.011611   
     50. D(C   5,C   1,C   0,H   2)    -60.0435         0.011611   
     51. D(H   7,C   1,C   0,H   2)     61.1637         0.011611   
     52. D(H   9,C   5,C   1,H   6)    179.7979         0.011441   
     53. D(C   8,C   5,C   1,H   7)     58.4436         0.011441   
     54. D(C   8,C   5,C   1,H   6)    -59.0162         0.011441   
     55. D(C   8,C   5,C   1,C   0)    179.7321         0.011441   
     56. D(H   9,C   5,C   1,H   7)    -62.7423         0.011441   
     57. D(H  10,C   5,C   1,H   7)    179.1931         0.011441   
     58. D(H  10,C   5,C   1,H   6)     61.7334         0.011441   
     59. D(H  10,C   5,C   1,C   0)    -59.5184         0.011441   
     60. D(H   9,C   5,C   1,C   0)     58.5461         0.011441   
     61. D(H  13,C   8,C   5,H   9)     62.1637         0.011388   
     62. D(H  13,C   8,C   5,C   1)    -59.2301         0.011388   
     63. D(H  12,C   8,C   5,H  10)    -63.3757         0.011388   
     64. D(H  12,C   8,C   5,H   9)    179.5731         0.011388   
     65. D(H  12,C   8,C   5,C   1)     58.1792         0.011388   
     66. D(N  11,C   8,C   5,H  10)     54.5821         0.011388   
     67. D(N  11,C   8,C   5,H   9)    -62.4692         0.011388   
     68. D(H  13,C   8,C   5,H  10)    179.2149         0.011388   
     69. D(N  11,C   8,C   5,C   1)    176.1370         0.011388   
     70. D(H  15,N  11,C   8,C   5)     61.4911         0.016279   
     71. D(H  14,N  11,C   8,H  13)     57.2029         0.016279   
     72. D(H  14,N  11,C   8,H  12)    -61.2685         0.016279   
     73. D(H  14,N  11,C   8,C   5)    179.5259         0.016279   
     74. D(H  15,N  11,C   8,H  13)    -60.8319         0.016279   
     75. D(H  15,N  11,C   8,H  12)   -179.3033         0.016279   
    -----------------------------------------------------------------

Number of atoms                         .... 16
Number of degrees of freedom            .... 75

         *************************************************************
         *                GEOMETRY OPTIMIZATION CYCLE   1            *
         *************************************************************
---------------------------------
CARTESIAN COORDINATES (ANGSTROEM)
---------------------------------
  C     -2.539070    0.360228   -0.015708
  C     -1.286356   -0.507740   -0.029001
  H     -2.574826    0.964547    0.888037
  H     -3.432746   -0.258149   -0.051389
  H     -2.547481    1.027978   -0.874049
  C     -0.014204    0.334157    0.017411
  H     -1.278630   -1.121341   -0.932559
  H     -1.303378   -1.183996    0.829327
  C      1.246291   -0.527504    0.011061
  H     -0.019804    0.952507    0.918657
  H      0.019703    1.003314   -0.843580
  N      2.434033    0.315645   -0.036001
  H      1.254333   -1.154989   -0.885492
  H      1.228018   -1.199371    0.887960
  H      3.268045   -0.260326   -0.032171
  H      2.465669    0.905286    0.789063

----------------------------
CARTESIAN COORDINATES (A.U.)
----------------------------
  NO LB      ZA    FRAG     MASS         X           Y           Z
   0 C     6.0000    0    12.011   -4.798147    0.680732   -0.029684
   1 C     6.0000    0    12.011   -2.430861   -0.959489   -0.054805
   2 H     1.0000    0     1.008   -4.865715    1.822729    1.678146
   3 H     1.0000    0     1.008   -6.486949   -0.487831   -0.097112
   4 H     1.0000    0     1.008   -4.814042    1.942596   -1.651713
   5 C     6.0000    0    12.011   -0.026841    0.631466    0.032903
   6 H     1.0000    0     1.008   -2.416260   -2.119027   -1.762281
   7 H     1.0000    0     1.008   -2.463027   -2.237428    1.567200
   8 C     6.0000    0    12.011    2.355148   -0.996838    0.020902
   9 H     1.0000    0     1.008   -0.037424    1.799977    1.736011
  10 H     1.0000    0     1.008    0.037232    1.895989   -1.594136
  11 N     7.0000    0    14.007    4.599655    0.596483   -0.068032
  12 H     1.0000    0     1.008    2.370346   -2.182613   -1.673338
  13 H     1.0000    0     1.008    2.320617   -2.266483    1.678002
  14 H     1.0000    0     1.008    6.175709   -0.491946   -0.060795
  15 H     1.0000    0     1.008    4.659439    1.710743    1.491114

--------------------------------
INTERNAL COORDINATES (ANGSTROEM)
--------------------------------
 C      0   0   0     0.000000000000     0.00000000     0.00000000
 C      1   0   0     1.524085560143     0.00000000     0.00000000
 H      1   2   0     1.087766134932   110.52742383     0.00000000
 H      1   2   3     1.087344891955   110.57194046   239.92313424
 H      1   2   3     1.087524174605   110.43542173   119.85043339
 C      2   1   3     1.526209810481   111.75910618   299.95654298
 H      2   1   3     1.092237232311   109.44888575   178.83889980
 H      2   1   3     1.092858543116   109.43590770    61.16373400
 C      6   2   1     1.526874697363   112.12891163   179.73207953
 H      6   2   1     1.092992218848   109.44376352    58.54614540
 H      6   2   1     1.090975456506   109.89203481   300.48160034
 N      9   6   2     1.457342316822   110.27084789   176.13698512
 H      9   6   2     1.094353769906   109.45413938    58.17922613
 H      9   6   2     1.104849366662   109.03942364   300.76986843
 H     12   9   6     1.013574882831   109.98240578   179.52590032
 H     12   9   6     1.014597652663   109.59578236    61.49113475

---------------------------
INTERNAL COORDINATES (A.U.)
---------------------------
 C      0   0   0     0.000000000000     0.00000000     0.00000000
 C      1   0   0     2.880104313334     0.00000000     0.00000000
 H      1   2   0     2.055580092776   110.52742383     0.00000000
 H      1   2   3     2.054784058914   110.57194046   239.92313424
 H      1   2   3     2.055122854023   110.43542173   119.85043339
 C      2   1   3     2.884118564712   111.75910618   299.95654298
 H      2   1   3     2.064029242339   109.44888575   178.83889980
 H      2   1   3     2.065203349606   109.43590770    61.16373400
 C      6   2   1     2.885375018830   112.12891163   179.73207953
 H      6   2   1     2.065455960129   109.44376352    58.54614540
 H      6   2   1     2.061644831627   109.89203481   300.48160034
 N      9   6   2     2.753977862167   110.27084789   176.13698512
 H      9   6   2     2.068028918746   109.45413938    58.17922613
 H      9   6   2     2.087862722228   109.03942364   300.76986843
 H     12   9   6     1.915378944771   109.98240578   179.52590032
 H     12   9   6     1.917311699652   109.59578236    61.49113475

---------------------
BASIS SET INFORMATION
---------------------
There are 3 groups of distinct atoms

 Group   1 Type C   : 7s4p1d contracted to 3s2p1d pattern {511/31/1}
 Group   2 Type H   : 4s1p contracted to 2s1p pattern {31/1}
 Group   3 Type N   : 7s4p1d contracted to 3s2p1d pattern {511/31/1}

Atom   0C    basis set group =>   1
Atom   1C    basis set group =>   1
Atom   2H    basis set group =>   2
Atom   3H    basis set group =>   2
Atom   4H    basis set group =>   2
Atom   5C    basis set group =>   1
Atom   6H    basis set group =>   2
Atom   7H    basis set group =>   2
Atom   8C    basis set group =>   1
Atom   9H    basis set group =>   2
Atom  10H    basis set group =>   2
Atom  11N    basis set group =>   3
Atom  12H    basis set group =>   2
Atom  13H    basis set group =>   2
Atom  14H    basis set group =>   2
Atom  15H    basis set group =>   2
---------------------------------
AUXILIARY/J BASIS SET INFORMATION
---------------------------------
There are 3 groups of distinct atoms

 Group   1 Type C   : 12s5p4d2f1g contracted to 6s4p3d1f1g pattern {711111/2111/211/2/1}
 Group   2 Type H   : 5s2p1d contracted to 3s1p1d pattern {311/2/1}
 Group   3 Type N   : 12s5p4d2f1g contracted to 6s4p3d1f1g pattern {711111/2111/211/2/1}

Atom   0C    basis set group =>   1
Atom   1C    basis set group =>   1
Atom   2H    basis set group =>   2
Atom   3H    basis set group =>   2
Atom   4H    basis set group =>   2
Atom   5C    basis set group =>   1
Atom   6H    basis set group =>   2
Atom   7H    basis set group =>   2
Atom   8C    basis set group =>   1
Atom   9H    basis set group =>   2
Atom  10H    basis set group =>   2
Atom  11N    basis set group =>   3
Atom  12H    basis set group =>   2
Atom  13H    basis set group =>   2
Atom  14H    basis set group =>   2
Atom  15H    basis set group =>   2


           ************************************************************
           *        Program running with 4 parallel MPI-processes     *
           *              working on a common directory               *
           ************************************************************
------------------------------------------------------------------------------
                           ORCA GTO INTEGRAL CALCULATION
                           -- RI-GTO INTEGRALS CHOSEN --
------------------------------------------------------------------------------
------------------------------------------------------------------------------
                   ___                                                        
                  /   \      - P O W E R E D   B Y -                         
                 /     \                                                     
                 |  |  |   _    _      __       _____    __    __             
                 |  |  |  | |  | |    /  \     |  _  \  |  |  /  |          
                  \  \/   | |  | |   /    \    | | | |  |  | /  /          
                 / \  \   | |__| |  /  /\  \   | |_| |  |  |/  /          
                |  |  |   |  __  | /  /__\  \  |    /   |      \           
                |  |  |   | |  | | |   __   |  |    \   |  |\   \          
                \     /   | |  | | |  |  |  |  | |\  \  |  | \   \       
                 \___/    |_|  |_| |__|  |__|  |_| \__\ |__|  \__/        
                                                                              
                      - O R C A' S   B I G   F R I E N D -                    
                                      &                                       
                       - I N T E G R A L  F E E D E R -                       
                                                                              
 v1 FN, 2020, v2 2021                                                         
------------------------------------------------------------------------------


Reading SHARK input file butylamine_deprot_aq_5.SHARKINP.tmp ... ok
----------------------
SHARK INTEGRAL PACKAGE
----------------------

Number of atoms                             ...     16
Number of basis functions                   ...    125
Number of shells                            ...     63
Maximum angular momentum                    ...      2
Integral batch strategy                     ... SHARK/LIBINT Hybrid
RI-J (if used) integral strategy            ... SPLIT-RIJ (Revised 2003 algorithm where possible)
Printlevel                                  ...      1
Contraction scheme used                     ... SEGMENTED contraction
Coulomb Range Separation                    ... NOT USED
Exchange Range Separation                   ... Long Range
   Mu parameter                             ...  0.300000
   Scaling (regular/separated)              ...  0.157706  0.842294
Finite Nucleus Model                        ... NOT USED
Auxiliary Coulomb fitting basis             ... AVAILABLE
   # of basis functions in Aux-J            ...    366
   # of shells in Aux-J                     ...    130
   Maximum angular momentum in Aux-J        ...      4
Auxiliary J/K fitting basis                 ... NOT available
Auxiliary Correlation fitting basis         ... NOT available
Auxiliary 'external' fitting basis          ... NOT available
Integral threshold                          ...     2.500000e-11
Primitive cut-off                           ...     2.500000e-12
Primitive pair pre-selection threshold      ...     2.500000e-12

Calculating pre-screening integrals         ... done (  0.0 sec) Dimension = 63
Organizing shell pair data                  ... done (  0.0 sec)
Shell pair information
Total number of shell pairs                 ...      2016
Shell pairs after pre-screening             ...      1929
Total number of primitive shell pairs       ...      6768
Primitive shell pairs kept                  ...      5119
          la=0 lb=0:    682 shell pairs
          la=1 lb=0:    743 shell pairs
          la=1 lb=1:    215 shell pairs
          la=2 lb=0:    176 shell pairs
          la=2 lb=1:     99 shell pairs
          la=2 lb=2:     14 shell pairs

Calculating one electron integrals          ... done (  0.0 sec)
Calculating RI/J V-Matrix + Cholesky decomp.... done (  0.0 sec)
Calculating Nuclear repulsion               ... done (  0.0 sec) ENN=    186.454638917444 Eh

SHARK setup successfully completed in   0.7 seconds

Maximum memory used throughout the entire GTOINT-calculation: 10.6 MB


           ************************************************************
           *        Program running with 4 parallel MPI-processes     *
           *              working on a common directory               *
           ************************************************************
-------------------------------------------------------------------------------
                                 ORCA SCF
-------------------------------------------------------------------------------

------------
SCF SETTINGS
------------
Hamiltonian:
 Density Functional     Method          .... DFT(GTOs)
 Exchange Functional    Exchange        .... WB97X
 Correlation Functional Correlation     .... WB97X
 Gradients option       PostSCFGGA      .... off
 Hybrid DFT is turned on
   Fraction HF Exchange ScalHFX         ....  0.157706
   Scaling of DF-GGA-X  ScalDFX         ....  0.000000
   Scaling of DF-GGA-C  ScalDFC         ....  1.000000
   Scaling of DF-LDA-C  ScalLDAC        ....  1.000000
   Perturbative correction              ....  0.000000
   Density functional embedding theory  .... OFF
 Long-range corrected/Screened/Range-Separated Hybrid DFT is turned on
   Amount of maximum screened exact exchange              ....  0.842294
   Range separation parameter mu (erf(mu*r12)/r12)        ....  0.300000
 RI-approximation to the Coulomb term is turned on
   Number of AuxJ basis functions       .... 366
   RIJ-COSX (HFX calculated with COS-X)).... on


General Settings:
 Integral files         IntName         .... butylamine_deprot_aq_5
 Hartree-Fock type      HFTyp           .... RHF
 Total Charge           Charge          ....    0
 Multiplicity           Mult            ....    1
 Number of Electrons    NEL             ....   42
 Basis Dimension        Dim             ....  125
 Nuclear Repulsion      ENuc            ....    186.4546389174 Eh

Convergence Acceleration:
 DIIS                   CNVDIIS         .... on
   Start iteration      DIISMaxIt       ....     0
   Startup error        DIISStart       ....  0.200000
   # of expansion vecs  DIISMaxEq       ....     5
   Bias factor          DIISBfac        ....   1.050
   Max. coefficient     DIISMaxC        ....  10.000
 Trust-Rad. Augm. Hess. CNVTRAH         .... auto
   Auto Start mean grad. ratio tolernc. ....  1.125000
   Auto Start start iteration           ....    20
   Auto Start num. interpolation iter.  ....    10
   Max. Number of Micro iterations      ....    16
   Max. Number of Macro iterations      .... Maxiter - #DIIS iter
   Number of Davidson start vectors     ....     2
   Converg. threshold I  (grad. norm)   ....   1.000e-05
   Converg. threshold II (energy diff.) ....   1.000e-08
   Grad. Scal. Fac. for Micro threshold ....   0.100
   Minimum threshold for Micro iter.    ....   0.010
   NR start threshold (gradient norm)   ....   0.001
   Initial trust radius                 ....   0.400
   Minimum AH scaling param. (alpha)    ....   1.000
   Maximum AH scaling param. (alpha)    .... 1000.000
   Orbital update algorithm             .... Taylor
   White noise on init. David. guess    .... on
   Maximum white noise                  ....   0.010
   Quad. conv. algorithm                .... NR
 SOSCF                  CNVSOSCF        .... on
   Start iteration      SOSCFMaxIt      ....   150
   Startup grad/error   SOSCFStart      ....  0.001000
 Level Shifting         CNVShift        .... on
   Level shift para.    LevelShift      ....    0.2500
   Turn off err/grad.   ShiftErr        ....    0.0000
 Zerner damping         CNVZerner       .... off
 Static damping         CNVDamp         .... on
   Fraction old density DampFac         ....    0.8500
   Max. Damping (<1)    DampMax         ....    0.9800
   Min. Damping (>=0)   DampMin         ....    0.0000
   Turn off err/grad.   DampErr         ....    0.0300
 Fernandez-Rico         CNVRico         .... off

SCF Procedure:
 Maximum # iterations   MaxIter         ....   125
 SCF integral mode      SCFMode         .... Direct
   Integral package                     .... SHARK and LIBINT hybrid scheme
 Reset frequency        DirectResetFreq ....    20
 Integral Threshold     Thresh          ....  2.500e-11 Eh
 Primitive CutOff       TCut            ....  2.500e-12 Eh

Convergence Tolerance:
 Convergence Check Mode ConvCheckMode   .... Total+1el-Energy
 Convergence forced     ConvForced      .... 0
 Energy Change          TolE            ....  1.000e-08 Eh
 1-El. energy change                    ....  1.000e-05 Eh
 Orbital Gradient       TolG            ....  1.000e-05
 Orbital Rotation angle TolX            ....  1.000e-05
 DIIS Error             TolErr          ....  5.000e-07


Diagonalization of the overlap matrix:
Smallest eigenvalue                        ... 1.468e-03
Time for diagonalization                   ...    0.003 sec
Threshold for overlap eigenvalues          ... 1.000e-08
Number of eigenvalues below threshold      ... 0
Time for construction of square roots      ...    0.293 sec
Total time needed                          ...    0.297 sec

Time for model grid setup =    0.661 sec

------------------------------
INITIAL GUESS: MODEL POTENTIAL
------------------------------
Loading Hartree-Fock densities                     ... done
Calculating cut-offs                               ... done
Initializing the effective Hamiltonian             ... done
Setting up the integral package (SHARK)            ... done
Starting the Coulomb interaction                   ... done (   0.0 sec)
Reading the grid                                   ... done
Mapping shells                                     ... done
Starting the XC term evaluation                    ... done (   0.0 sec)
  promolecular density results
     # of electrons  =     41.999752572
     EX              =    -30.245977370
     EC              =     -1.355128813
     EX+EC           =    -31.601106183
Transforming the Hamiltonian                       ... done (   0.0 sec)
Diagonalizing the Hamiltonian                      ... done (   0.0 sec)
Back transforming the eigenvectors                 ... done (   0.0 sec)
Now organizing SCF variables                       ... done
                      ------------------
                      INITIAL GUESS DONE (   0.8 sec)
                      ------------------
-------------------
DFT GRID GENERATION
-------------------

General Integration Accuracy     IntAcc      ... 4.388
Radial Grid Type                 RadialGrid  ... OptM3 with GC (2021)
Angular Grid (max. ang.)         AngularGrid ... 4 (Lebedev-302)
Angular grid pruning method      GridPruning ... 4 (adaptive)
Weight generation scheme         WeightScheme... Becke
Basis function cutoff            BFCut       ... 1.0000e-11
Integration weight cutoff        WCut        ... 1.0000e-14
Angular grids for H and He will be reduced by one unit
Partially contracted basis set               ... off
Rotationally invariant grid construction     ... off

Total number of grid points                  ...    65509
Total number of batches                      ...     1031
Average number of points per batch           ...       63
Average number of grid points per atom       ...     4094
Time for grid setup =    0.990 sec

--------------------
COSX GRID GENERATION
--------------------

GRIDX 1
-------
General Integration Accuracy     IntAcc      ... 3.816
Radial Grid Type                 RadialGrid  ... OptM3 with GC (2021)
Angular Grid (max. ang.)         AngularGrid ... 1 (Lebedev-50)
Angular grid pruning method      GridPruning ... 4 (adaptive)
Weight generation scheme         WeightScheme... Becke
Basis function cutoff            BFCut       ... 1.0000e-11
Integration weight cutoff        WCut        ... 1.0000e-14
Angular grids for H and He will be reduced by one unit
Partially contracted basis set               ... on
Rotationally invariant grid construction     ... off

Total number of grid points                  ...     8429
Total number of batches                      ...      144
Average number of points per batch           ...       58
Average number of grid points per atom       ...      527
UseSFitting                                  ... on

GRIDX 2
-------
General Integration Accuracy     IntAcc      ... 4.020
Radial Grid Type                 RadialGrid  ... OptM3 with GC (2021)
Angular Grid (max. ang.)         AngularGrid ... 2 (Lebedev-110)
Angular grid pruning method      GridPruning ... 4 (adaptive)
Weight generation scheme         WeightScheme... Becke
Basis function cutoff            BFCut       ... 1.0000e-11
Integration weight cutoff        WCut        ... 1.0000e-14
Angular grids for H and He will be reduced by one unit
Partially contracted basis set               ... on
Rotationally invariant grid construction     ... off

Total number of grid points                  ...    17422
Total number of batches                      ...      282
Average number of points per batch           ...       61
Average number of grid points per atom       ...     1089
UseSFitting                                  ... on

GRIDX 3
-------
General Integration Accuracy     IntAcc      ... 4.338
Radial Grid Type                 RadialGrid  ... OptM3 with GC (2021)
Angular Grid (max. ang.)         AngularGrid ... 3 (Lebedev-194)
Angular grid pruning method      GridPruning ... 4 (adaptive)
Weight generation scheme         WeightScheme... Becke
Basis function cutoff            BFCut       ... 1.0000e-11
Integration weight cutoff        WCut        ... 1.0000e-14
Angular grids for H and He will be reduced by one unit
Partially contracted basis set               ... on
Rotationally invariant grid construction     ... off

Total number of grid points                  ...    38106
Total number of batches                      ...      604
Average number of points per batch           ...       63
Average number of grid points per atom       ...     2382
UseSFitting                                  ... on

Time for X-Grid setup             =    0.711 sec

--------------
SCF ITERATIONS
--------------
ITER       Energy         Delta-E        Max-DP      RMS-DP      [F,P]     Damp
               ***  Starting incremental Fock matrix formation  ***
  0   -213.3811586448   0.000000000000 0.03899284  0.00116469  0.2387998 0.8500
  1   -213.4265563108  -0.045397666040 0.03349906  0.00110885  0.1848031 0.8500
                               ***Turning on DIIS***
  2   -213.4599338436  -0.033377532814 0.02492668  0.00088740  0.1350501 0.8500
  3   -213.4839977493  -0.024063905666 0.01436738  0.00057349  0.0970958 0.8500
  4   -213.5022173504  -0.018219601092 0.00955719  0.00040683  0.0759233 0.8500
  5   -213.5163945820  -0.014177231605 0.00712750  0.00032034  0.0626458 0.8500
  6   -213.5278566332  -0.011462051220 0.00566939  0.00026550  0.0527196 0.8500
  7   -213.5373151782  -0.009458544966 0.00474126  0.00022865  0.0446495 0.8500
  8   -213.5452154429  -0.007900264732 0.00402654  0.00019708  0.0375981 0.8500
  9   -213.5518295426  -0.006614099733 0.00341233  0.00016859  0.0315766 0.8500
 10   -213.5573742434  -0.005544700755 0.01915987  0.00095678  0.0265382 0.0000
 11   -213.5875222577  -0.030148014310 0.00111570  0.00003932  0.0015553 0.0000
                      *** Initiating the SOSCF procedure ***
                           *** Shutting down DIIS ***
                      *** Re-Reading the Fockian *** 
                      *** Removing any level shift *** 
ITER      Energy       Delta-E        Grad      Rot      Max-DP    RMS-DP
 12   -213.58753207  -0.0000098146  0.000114  0.000114  0.000332  0.000014
               *** Restarting incremental Fock matrix formation ***
 13   -213.58766120  -0.0001291263  0.000036  0.000046  0.000253  0.000010
 14   -213.58766131  -0.0000001109  0.000011  0.000027  0.000073  0.000004
 15   -213.58766132  -0.0000000079  0.000011  0.000005  0.000029  0.000001
                  ***Gradient check signals convergence***
              ***Rediagonalizing the Fockian in SOSCF/NRSCF***

               *****************************************************
               *                     SUCCESS                       *
               *           SCF CONVERGED AFTER  16 CYCLES          *
               *****************************************************

Old exchange energy                            =    -10.443886708 Eh
New exchange energy                            =    -10.443878405 Eh
Exchange energy change after final integration =      0.000008303 Eh
Total energy after final integration           =   -213.587653020 Eh
Final COS-X integration done in                =     3.131 sec

----------------
TOTAL SCF ENERGY
----------------

Total Energy       :         -213.58765302 Eh           -5812.01552 eV

Components:
Nuclear Repulsion  :          186.45463892 Eh            5073.68867 eV
Electronic Energy  :         -400.04229194 Eh          -10885.70418 eV
One Electron Energy:         -655.65938619 Eh          -17841.39894 eV
Two Electron Energy:          255.61709425 Eh            6955.69476 eV
Max COSX asymmetry :            0.00000143 Eh               0.00004 eV

Virial components:
Potential Energy   :         -424.62026749 Eh          -11554.50490 eV
Kinetic Energy     :          211.03261447 Eh            5742.48938 eV
Virial Ratio       :            2.01210732


DFT components:
N(Alpha)           :       21.000071592075 electrons
N(Beta)            :       21.000071592075 electrons
N(Total)           :       42.000143184150 electrons
E(XC)              :      -22.249621833257 Eh       
DFET-embed. en.    :        0.000000000000 Eh       

---------------
SCF CONVERGENCE
---------------

  Last Energy change         ...   -5.2311e-09  Tolerance :   1.0000e-08
  Last MAX-Density change    ...    4.8850e-15  Tolerance :   1.0000e-07
  Last RMS-Density change    ...    5.7679e-17  Tolerance :   5.0000e-09
  Last Orbital Gradient      ...    1.5525e-06  Tolerance :   1.0000e-05
  Last Orbital Rotation      ...    8.7968e-07  Tolerance :   1.0000e-05

             **** THE GBW FILE WAS UPDATED (butylamine_deprot_aq_5.gbw) ****
             **** DENSITY butylamine_deprot_aq_5.scfp WAS UPDATED ****
             **** ENERGY FILE WAS UPDATED (butylamine_deprot_aq_5.en.tmp) ****
             **** THE GBW FILE WAS UPDATED (butylamine_deprot_aq_5.gbw) ****
             **** DENSITY butylamine_deprot_aq_5.scfp WAS UPDATED ****
----------------
ORBITAL ENERGIES
----------------

  NO   OCC          E(Eh)            E(eV) 
   0   2.0000     -14.373658      -391.1271 
   1   2.0000     -10.282448      -279.7996 
   2   2.0000     -10.260098      -279.1915 
   3   2.0000     -10.255479      -279.0658 
   4   2.0000     -10.254216      -279.0314 
   5   2.0000      -0.996239       -27.1090 
   6   2.0000      -0.910550       -24.7773 
   7   2.0000      -0.824500       -22.4358 
   8   2.0000      -0.728478       -19.8229 
   9   2.0000      -0.694293       -18.8927 
  10   2.0000      -0.599868       -16.3232 
  11   2.0000      -0.580996       -15.8097 
  12   2.0000      -0.550021       -14.9668 
  13   2.0000      -0.526293       -14.3212 
  14   2.0000      -0.515887       -14.0380 
  15   2.0000      -0.478727       -13.0268 
  16   2.0000      -0.456542       -12.4231 
  17   2.0000      -0.433488       -11.7958 
  18   2.0000      -0.426175       -11.5968 
  19   2.0000      -0.424543       -11.5524 
  20   2.0000      -0.331646        -9.0246 
  21   0.0000       0.146693         3.9917 
  22   0.0000       0.159237         4.3331 
  23   0.0000       0.179232         4.8771 
  24   0.0000       0.189202         5.1484 
  25   0.0000       0.203512         5.5379 
  26   0.0000       0.229530         6.2458 
  27   0.0000       0.245402         6.6777 
  28   0.0000       0.255836         6.9616 
  29   0.0000       0.258612         7.0372 
  30   0.0000       0.264926         7.2090 
  31   0.0000       0.276751         7.5308 
  32   0.0000       0.309152         8.4124 
  33   0.0000       0.329645         8.9701 
  34   0.0000       0.346280         9.4228 
  35   0.0000       0.386526        10.5179 
  36   0.0000       0.518007        14.0957 
  37   0.0000       0.528649        14.3853 
  38   0.0000       0.547713        14.9040 
  39   0.0000       0.552207        15.0263 
  40   0.0000       0.559021        15.2117 
  41   0.0000       0.610047        16.6002 
  42   0.0000       0.642812        17.4918 
  43   0.0000       0.699833        19.0434 
  44   0.0000       0.715524        19.4704 
  45   0.0000       0.747647        20.3445 
  46   0.0000       0.756836        20.5945 
  47   0.0000       0.760710        20.7000 
  48   0.0000       0.773860        21.0578 
  49   0.0000       0.779105        21.2005 
  50   0.0000       0.787204        21.4209 
  51   0.0000       0.800609        21.7857 
  52   0.0000       0.807473        21.9725 
  53   0.0000       0.817925        22.2569 
  54   0.0000       0.821243        22.3472 
  55   0.0000       0.825280        22.4570 
  56   0.0000       0.835168        22.7261 
  57   0.0000       0.857735        23.3402 
  58   0.0000       0.862925        23.4814 
  59   0.0000       0.916606        24.9421 
  60   0.0000       0.953257        25.9394 
  61   0.0000       1.059605        28.8333 
  62   0.0000       1.070367        29.1262 
  63   0.0000       1.105811        30.0906 
  64   0.0000       1.126823        30.6624 
  65   0.0000       1.163539        31.6615 
  66   0.0000       1.237238        33.6669 
  67   0.0000       1.275720        34.7141 
  68   0.0000       1.370892        37.3039 
  69   0.0000       1.376142        37.4467 
  70   0.0000       1.460713        39.7480 
  71   0.0000       1.480155        40.2771 
  72   0.0000       1.497412        40.7466 
  73   0.0000       1.558867        42.4189 
  74   0.0000       1.618776        44.0491 
  75   0.0000       1.661421        45.2096 
  76   0.0000       1.723586        46.9012 
  77   0.0000       1.807098        49.1736 
  78   0.0000       1.849128        50.3173 
  79   0.0000       1.869543        50.8729 
  80   0.0000       1.873210        50.9726 
  81   0.0000       1.883666        51.2572 
  82   0.0000       1.901452        51.7411 
  83   0.0000       1.911574        52.0166 
  84   0.0000       1.926884        52.4332 
  85   0.0000       1.930155        52.5222 
  86   0.0000       1.968373        53.5622 
  87   0.0000       1.971197        53.6390 
  88   0.0000       1.983564        53.9755 
  89   0.0000       1.991564        54.1932 
  90   0.0000       2.010397        54.7057 
  91   0.0000       2.039960        55.5101 
  92   0.0000       2.050197        55.7887 
  93   0.0000       2.065611        56.2081 
  94   0.0000       2.103507        57.2393 
  95   0.0000       2.110923        57.4411 
  96   0.0000       2.169576        59.0372 
  97   0.0000       2.226522        60.5868 
  98   0.0000       2.248756        61.1918 
  99   0.0000       2.337810        63.6150 
 100   0.0000       2.396208        65.2041 
 101   0.0000       2.433426        66.2169 
 102   0.0000       2.453407        66.7606 
 103   0.0000       2.524680        68.7000 
 104   0.0000       2.530924        68.8699 
 105   0.0000       2.568905        69.9035 
 106   0.0000       2.590790        70.4990 
 107   0.0000       2.612832        71.0988 
 108   0.0000       2.712782        73.8186 
 109   0.0000       2.732675        74.3599 
 110   0.0000       2.742288        74.6215 
 111   0.0000       2.785078        75.7858 
 112   0.0000       2.899426        78.8974 
 113   0.0000       2.914111        79.2970 
 114   0.0000       2.978537        81.0501 
 115   0.0000       2.997949        81.5783 
 116   0.0000       3.014282        82.0228 
 117   0.0000       3.070672        83.5572 
 118   0.0000       3.105298        84.4995 
 119   0.0000       3.113786        84.7304 
 120   0.0000       3.172665        86.3326 
 121   0.0000       3.209493        87.3348 
 122   0.0000       3.236354        88.0657 
 123   0.0000       3.347238        91.0830 
 124   0.0000       3.528624        96.0188 

                    ********************************
                    * MULLIKEN POPULATION ANALYSIS *
                    ********************************

-----------------------
MULLIKEN ATOMIC CHARGES
-----------------------
   0 C :   -0.004927
   1 C :   -0.066893
   2 H :    0.017594
   3 H :    0.023499
   4 H :    0.019979
   5 C :   -0.064973
   6 H :    0.014865
   7 H :    0.011938
   8 C :    0.088389
   9 H :    0.001648
  10 H :    0.020038
  11 N :   -0.246465
  12 H :    0.007195
  13 H :   -0.008005
  14 H :    0.094403
  15 H :    0.091715
Sum of atomic charges:   -0.0000000

--------------------------------
MULLIKEN REDUCED ORBITAL CHARGES
--------------------------------
  0 C s       :     2.980667  s :     2.980667
      pz      :     1.017039  p :     2.995698
      px      :     0.982190
      py      :     0.996468
      dz2     :     0.005301  d :     0.028562
      dxz     :     0.001734
      dyz     :     0.009301
      dx2y2   :     0.004437
      dxy     :     0.007790
  1 C s       :     3.037387  s :     3.037387
      pz      :     1.010718  p :     2.992598
      px      :     0.967168
      py      :     1.014713
      dz2     :     0.005637  d :     0.036907
      dxz     :     0.003794
      dyz     :     0.011135
      dx2y2   :     0.007046
      dxy     :     0.009295
  2 H s       :     0.958264  s :     0.958264
      pz      :     0.011957  p :     0.024142
      px      :     0.004362
      py      :     0.007823
  3 H s       :     0.952545  s :     0.952545
      pz      :     0.004986  p :     0.023956
      px      :     0.011138
      py      :     0.007832
  4 H s       :     0.955867  s :     0.955867
      pz      :     0.011313  p :     0.024154
      px      :     0.004328
      py      :     0.008513
  5 C s       :     3.042021  s :     3.042021
      pz      :     1.013107  p :     2.987559
      px      :     0.951849
      py      :     1.022603
      dz2     :     0.005528  d :     0.035393
      dxz     :     0.003708
      dyz     :     0.011096
      dx2y2   :     0.005827
      dxy     :     0.009234
  6 H s       :     0.962473  s :     0.962473
      pz      :     0.011743  p :     0.022662
      px      :     0.003615
      py      :     0.007303
  7 H s       :     0.965408  s :     0.965408
      pz      :     0.011014  p :     0.022654
      px      :     0.003666
      py      :     0.007975
  8 C s       :     2.980905  s :     2.980905
      pz      :     1.014028  p :     2.878412
      px      :     0.890122
      py      :     0.974262
      dz2     :     0.007192  d :     0.052293
      dxz     :     0.006746
      dyz     :     0.014235
      dx2y2   :     0.010103
      dxy     :     0.014016
  9 H s       :     0.975464  s :     0.975464
      pz      :     0.011690  p :     0.022887
      px      :     0.003733
      py      :     0.007464
 10 H s       :     0.957408  s :     0.957408
      pz      :     0.011225  p :     0.022554
      px      :     0.003421
      py      :     0.007909
 11 N s       :     3.412876  s :     3.412876
      pz      :     1.498250  p :     3.813773
      px      :     1.056586
      py      :     1.258938
      dz2     :     0.005212  d :     0.019815
      dxz     :     0.001612
      dyz     :     0.003915
      dx2y2   :     0.001919
      dxy     :     0.007158
 12 H s       :     0.971286  s :     0.971286
      pz      :     0.011798  p :     0.021519
      px      :     0.002700
      py      :     0.007021
 13 H s       :     0.987006  s :     0.987006
      pz      :     0.010983  p :     0.021000
      px      :     0.002662
      py      :     0.007354
 14 H s       :     0.860030  s :     0.860030
      pz      :     0.013137  p :     0.045567
      px      :     0.018669
      py      :     0.013761
 15 H s       :     0.862429  s :     0.862429
      pz      :     0.019877  p :     0.045856
      px      :     0.008352
      py      :     0.017627


                     *******************************
                     * LOEWDIN POPULATION ANALYSIS *
                     *******************************

----------------------
LOEWDIN ATOMIC CHARGES
----------------------
   0 C :   -0.057781
   1 C :   -0.041345
   2 H :    0.021163
   3 H :    0.023107
   4 H :    0.022251
   5 C :   -0.044338
   6 H :    0.019583
   7 H :    0.017835
   8 C :    0.015582
   9 H :    0.014704
  10 H :    0.022622
  11 N :   -0.126671
  12 H :    0.015680
  13 H :   -0.003351
  14 H :    0.051969
  15 H :    0.048987

-------------------------------
LOEWDIN REDUCED ORBITAL CHARGES
-------------------------------
  0 C s       :     2.826169  s :     2.826169
      pz      :     1.067850  p :     3.158141
      px      :     1.035741
      py      :     1.054550
      dz2     :     0.014745  d :     0.073471
      dxz     :     0.003075
      dyz     :     0.023522
      dx2y2   :     0.010729
      dxy     :     0.021400
  1 C s       :     2.828320  s :     2.828320
      pz      :     1.062022  p :     3.122683
      px      :     1.015752
      py      :     1.044908
      dz2     :     0.015581  d :     0.090342
      dxz     :     0.006804
      dyz     :     0.027517
      dx2y2   :     0.015924
      dxy     :     0.024516
  2 H s       :     0.912562  s :     0.912562
      pz      :     0.031487  p :     0.066275
      px      :     0.013189
      py      :     0.021598
  3 H s       :     0.910429  s :     0.910429
      pz      :     0.013011  p :     0.066464
      px      :     0.031658
      py      :     0.021796
  4 H s       :     0.911365  s :     0.911365
      pz      :     0.029752  p :     0.066383
      px      :     0.013149
      py      :     0.023482
  5 C s       :     2.835731  s :     2.835731
      pz      :     1.064006  p :     3.119937
      px      :     1.012105
      py      :     1.043825
      dz2     :     0.015547  d :     0.088671
      dxz     :     0.006584
      dyz     :     0.027441
      dx2y2   :     0.014377
      dxy     :     0.024722
  6 H s       :     0.914300  s :     0.914300
      pz      :     0.031142  p :     0.066117
      px      :     0.013301
      py      :     0.021674
  7 H s       :     0.915999  s :     0.915999
      pz      :     0.029201  p :     0.066166
      px      :     0.013473
      py      :     0.023492
  8 C s       :     2.831131  s :     2.831131
      pz      :     1.065966  p :     3.033052
      px      :     0.953137
      py      :     1.013949
      dz2     :     0.018001  d :     0.120234
      dxz     :     0.012375
      dyz     :     0.035294
      dx2y2   :     0.020662
      dxy     :     0.033903
  9 H s       :     0.918972  s :     0.918972
      pz      :     0.030653  p :     0.066323
      px      :     0.013407
      py      :     0.022264
 10 H s       :     0.910027  s :     0.910027
      pz      :     0.030010  p :     0.067351
      px      :     0.013069
      py      :     0.024272
 11 N s       :     3.123899  s :     3.123899
      pz      :     1.517827  p :     3.958703
      px      :     1.126398
      py      :     1.314478
      dz2     :     0.010086  d :     0.044068
      dxz     :     0.002358
      dyz     :     0.008584
      dx2y2   :     0.005704
      dxy     :     0.017337
 12 H s       :     0.920569  s :     0.920569
      pz      :     0.031834  p :     0.063752
      px      :     0.011359
      py      :     0.020559
 13 H s       :     0.939108  s :     0.939108
      pz      :     0.029450  p :     0.064242
      px      :     0.011653
      py      :     0.023140
 14 H s       :     0.825938  s :     0.825938
      pz      :     0.034445  p :     0.122092
      px      :     0.048956
      py      :     0.038691
 15 H s       :     0.829270  s :     0.829270
      pz      :     0.060148  p :     0.121742
      px      :     0.018720
      py      :     0.042874


                      *****************************
                      * MAYER POPULATION ANALYSIS *
                      *****************************

  NA   - Mulliken gross atomic population
  ZA   - Total nuclear charge
  QA   - Mulliken gross atomic charge
  VA   - Mayer's total valence
  BVA  - Mayer's bonded valence
  FA   - Mayer's free valence

  ATOM       NA         ZA         QA         VA         BVA        FA
  0 C      6.0049     6.0000    -0.0049     4.0059     4.0059     0.0000
  1 C      6.0669     6.0000    -0.0669     4.0812     4.0812    -0.0000
  2 H      0.9824     1.0000     0.0176     0.9914     0.9914     0.0000
  3 H      0.9765     1.0000     0.0235     0.9869     0.9869    -0.0000
  4 H      0.9800     1.0000     0.0200     0.9916     0.9916    -0.0000
  5 C      6.0650     6.0000    -0.0650     4.0423     4.0423    -0.0000
  6 H      0.9851     1.0000     0.0149     0.9792     0.9792    -0.0000
  7 H      0.9881     1.0000     0.0119     0.9791     0.9791    -0.0000
  8 C      5.9116     6.0000     0.0884     4.0604     4.0604     0.0000
  9 H      0.9984     1.0000     0.0016     0.9852     0.9852     0.0000
 10 H      0.9800     1.0000     0.0200     0.9939     0.9939     0.0000
 11 N      7.2465     7.0000    -0.2465     3.0352     3.0352    -0.0000
 12 H      0.9928     1.0000     0.0072     0.9837     0.9837    -0.0000
 13 H      1.0080     1.0000    -0.0080     0.9728     0.9728     0.0000
 14 H      0.9056     1.0000     0.0944     0.9969     0.9969    -0.0000
 15 H      0.9083     1.0000     0.0917     0.9999     0.9999    -0.0000

  Mayer bond orders larger than 0.100000
B(  0-C ,  1-C ) :   1.0899 B(  0-C ,  2-H ) :   0.9751 B(  0-C ,  3-H ) :   0.9732 
B(  0-C ,  4-H ) :   0.9751 B(  1-C ,  5-C ) :   1.0618 B(  1-C ,  6-H ) :   0.9558 
B(  1-C ,  7-H ) :   0.9541 B(  5-C ,  8-C ) :   1.0707 B(  5-C ,  9-H ) :   0.9532 
B(  5-C , 10-H ) :   0.9513 B(  8-C , 11-N ) :   1.0678 B(  8-C , 12-H ) :   0.9508 
B(  8-C , 13-H ) :   0.9506 B( 11-N , 14-H ) :   0.9721 B( 11-N , 15-H ) :   0.9753 


-------
TIMINGS
-------

Total SCF time: 0 days 0 hours 0 min 27 sec 

Total time                  ....      27.284 sec
Sum of individual times     ....      26.457 sec  ( 97.0%)

Fock matrix formation       ....      23.824 sec  ( 87.3%)
  Split-RI-J                ....       1.082 sec  (  4.5% of F)
  Chain of spheres X        ....      17.682 sec  ( 74.2% of F)
  XC integration            ....       4.221 sec  ( 17.7% of F)
    Basis function eval.    ....       1.269 sec  ( 30.1% of XC)
    Density eval.           ....       0.627 sec  ( 14.8% of XC)
    XC-Functional eval.     ....       0.604 sec  ( 14.3% of XC)
    XC-Potential eval.      ....       0.718 sec  ( 17.0% of XC)
Diagonalization             ....       0.077 sec  (  0.3%)
Density matrix formation    ....       0.003 sec  (  0.0%)
Population analysis         ....       0.008 sec  (  0.0%)
Initial guess               ....       0.121 sec  (  0.4%)
Orbital Transformation      ....       0.000 sec  (  0.0%)
Orbital Orthonormalization  ....       0.000 sec  (  0.0%)
DIIS solution               ....       0.047 sec  (  0.2%)
SOSCF solution              ....       0.015 sec  (  0.1%)
Grid generation             ....       2.362 sec  (  8.7%)

Maximum memory used throughout the entire SCF-calculation: 49.7 MB


-------------------------------------------------------------------------------
                          DFT DISPERSION CORRECTION                            
                                                                               
                                 DFTD4 V2.5                                    
-------------------------------------------------------------------------------
The WB97X functional is recognized
Active option DFTDOPT                   ...         5   

Starting D4
-------------------------   ----------------
Dispersion correction           -0.001348093
-------------------------   ----------------


-------------------------   --------------------
FINAL SINGLE POINT ENERGY      -213.589001112543
-------------------------   --------------------



           ************************************************************
           *        Program running with 4 parallel MPI-processes     *
           *              working on a common directory               *
           ************************************************************
------------------------------------------------------------------------------
                         ORCA SCF GRADIENT CALCULATION
------------------------------------------------------------------------------

 ... reading COSX grid (gridx3)
Gradient of the Kohn-Sham DFT energy:
Kohn-Sham wavefunction type      ... RKS
Hartree-Fock exchange scaling    ...    0.158
Number of operators              ...    1
Number of atoms                  ...   16
Basis set dimensions             ...  125
Integral neglect threshold       ... 2.5e-11
Integral primitive cutoff        ... 2.5e-12
SHARK Integral package           ... ON

Nuc. rep. gradient       (SHARK) ... done (  0.0 sec)
HCore & Overlap gradient (SHARK) ... done (  0.0 sec)
RI-J gradient            (SHARK) ... done (  0.2 sec)
COSX-gradient                    ... done (  3.5 sec)
Exchange-correlation gradient    ... done
Dispersion correction            ... Starting D4
Starting D4
Starting D4
Starting D4


------------------- 
Dispersion Gradient 
------------------- 
   1  :   -0.000032171    0.000008017   -0.000000143
   2  :   -0.000013323   -0.000011048   -0.000000502
   3  :   -0.000007525   -0.000000689   -0.000001886
   4  :   -0.000005749    0.000001159   -0.000000080
   5  :   -0.000007445   -0.000000837    0.000001497
   6  :   -0.000000241    0.000006776    0.000001004
   7  :   -0.000005462    0.000002860    0.000002266
   8  :   -0.000005574    0.000002894   -0.000002439
   9  :    0.000009269   -0.000014867    0.000002071
  10  :    0.000001277   -0.000003494   -0.000003479
  11  :    0.000002157   -0.000003883    0.000002563
  12  :    0.000033317    0.000007130   -0.000003615
  13  :    0.000007668    0.000004083    0.000002050
  14  :    0.000007481    0.000003161   -0.000002414
  15  :    0.000009548   -0.000002182    0.000001077
  16  :    0.000006772    0.000000920    0.000002030

  |G| =    0.000058246

done

------------------
CARTESIAN GRADIENT
------------------

   1   C   :   -0.007729595    0.009657584    0.000251782
   2   C   :    0.000303908   -0.015115929   -0.001836996
   3   H   :    0.001490712   -0.005870252   -0.007381478
   4   H   :    0.008972311    0.003189630    0.000222017
   5   H   :    0.001350448   -0.006420418    0.007037911
   6   C   :   -0.001823053    0.019097937    0.002254523
   7   H   :   -0.000467613    0.005806949    0.005333662
   8   H   :   -0.000043095    0.006190292   -0.004643043
   9   C   :   -0.003267412   -0.013492351   -0.002100636
  10   H   :    0.000059855   -0.005910272   -0.006120997
  11   H   :   -0.000982161   -0.006137962    0.005361942
  12   N   :    0.004497698    0.001569471    0.003612065
  13   H   :    0.001827832    0.004894240    0.004069552
  14   H   :    0.001848998    0.003994855   -0.002003430
  15   H   :   -0.003649124   -0.000159354   -0.001200048
  16   H   :   -0.002293045   -0.001276149   -0.002905653

Difference to translation invariance:
           :    0.0000966627    0.0000182731   -0.0000488252

Difference to rotation invariance:
           :    0.0003900916   -0.0000321913   -0.0004516155

Norm of the cartesian gradient     ...    0.0403104697
RMS gradient                       ...    0.0058183151
MAX gradient                       ...    0.0190979375

-------
TIMINGS
-------

Total SCF gradient time            ...        5.181 sec

One electron gradient       ....       0.038 sec  (  0.7%)
RI-J Coulomb gradient       ....       0.214 sec  (  4.1%)
COSX gradient               ....       3.471 sec  ( 67.0%)
XC gradient                 ....       1.028 sec  ( 19.8%)

Maximum memory used throughout the entire SCFGRAD-calculation: 38.3 MB
------------------------------------------------------------------------------
                         ORCA GEOMETRY RELAXATION STEP
------------------------------------------------------------------------------

Reading the OPT-File                    .... done
Getting information on internals        .... done
Copying old internal coords+grads       .... done
Making the new internal coordinates     .... (new redundants).... done
Validating the new internal coordinates .... (new redundants).... done
Calculating the B-matrix                .... done
Calculating the G,G- and P matrices     .... done
Transforming gradient to internals      .... done
Projecting the internal gradient        .... done
Number of atoms                         ....  16
Number of internal coordinates          ....  75
Current Energy                          ....  -213.589001113 Eh
Current gradient norm                   ....     0.040310470 Eh/bohr
Maximum allowed component of the step   ....  0.300
Current trust radius                    ....  0.300
Evaluating the initial hessian          ....  (Almloef) done
Projecting the Hessian                  .... done
Forming the augmented Hessian           .... done
Diagonalizing the augmented Hessian     .... done
Last element of RFO vector              ....  0.995487096
Lowest eigenvalues of augmented Hessian:
 -0.002206313  0.011395218  0.011440685  0.011611243  0.016285419
Length of the computed step             ....  0.095327207
The final length of the internal step   ....  0.095327207
Converting the step to cartesian space:
 Initial RMS(Int)=    0.0110074377
Transforming coordinates:
 Iter   0:  RMS(Cart)=    0.0176369709 RMS(Int)=    0.0109946949
 Iter   1:  RMS(Cart)=    0.0000960124 RMS(Int)=    0.0000716220
 Iter   2:  RMS(Cart)=    0.0000009906 RMS(Int)=    0.0000007631
 Iter   3:  RMS(Cart)=    0.0000000137 RMS(Int)=    0.0000000103
done
Storing new coordinates                 .... done

                                .--------------------.
          ----------------------|Geometry convergence|-------------------------
          Item                value                   Tolerance       Converged
          ---------------------------------------------------------------------
          RMS gradient        0.0030860057            0.0001000000      NO
          MAX gradient        0.0095128544            0.0003000000      NO
          RMS step            0.0110074377            0.0020000000      NO
          MAX step            0.0260200948            0.0040000000      NO
          ........................................................
          Max(Bonds)      0.0138      Max(Angles)    0.90
          Max(Dihed)        1.42      Max(Improp)    0.00
          ---------------------------------------------------------------------

The optimization has not yet converged - more geometry cycles are needed


    ---------------------------------------------------------------------------
                         Redundant Internal Coordinates
                            (Angstroem and degrees)

        Definition                    Value    dE/dq     Step     New-Value
    ----------------------------------------------------------------------------
     1. B(C   1,C   0)                1.5241 -0.003034  0.0042    1.5283   
     2. B(H   2,C   0)                1.0878 -0.009447  0.0137    1.1015   
     3. B(H   3,C   0)                1.0873 -0.009185  0.0133    1.1006   
     4. B(H   4,C   0)                1.0875 -0.009513  0.0138    1.1013   
     5. B(C   5,C   1)                1.5262 -0.001725  0.0024    1.5286   
     6. B(H   6,C   1)                1.0922 -0.007683  0.0113    1.1036   
     7. B(H   7,C   1)                1.0929 -0.007466  0.0110    1.1039   
     8. B(C   8,C   5)                1.5269  0.001624 -0.0023    1.5246   
     9. B(H   9,C   5)                1.0930 -0.008393  0.0124    1.1054   
    10. B(H  10,C   5)                1.0910 -0.008027  0.0118    1.1027   
    11. B(N  11,C   8)                1.4573 -0.001084  0.0013    1.4586   
    12. B(H  12,C   8)                1.0944 -0.006135  0.0091    1.1035   
    13. B(H  13,C   8)                1.1048 -0.004045  0.0062    1.1111   
    14. B(H  14,N  11)                1.0136 -0.002926  0.0036    1.0172   
    15. B(H  15,N  11)                1.0146 -0.003175  0.0039    1.0185   
    16. A(H   3,C   0,H   4)          108.48  0.002036   -0.33    108.14   
    17. A(C   1,C   0,H   4)          110.44 -0.001215    0.21    110.65   
    18. A(C   1,C   0,H   2)          110.53 -0.001076    0.19    110.71   
    19. A(H   2,C   0,H   3)          108.43  0.001997   -0.33    108.10   
    20. A(H   2,C   0,H   4)          108.32  0.001482   -0.35    107.97   
    21. A(C   1,C   0,H   3)          110.57 -0.003022    0.58    111.15   
    22. A(C   0,C   1,C   5)          111.76 -0.003743    0.86    112.62   
    23. A(H   6,C   1,H   7)          107.59  0.000445   -0.70    106.89   
    24. A(C   5,C   1,H   7)          109.30  0.000882   -0.06    109.24   
    25. A(C   0,C   1,H   7)          109.44  0.000768    0.01    109.44   
    26. A(C   5,C   1,H   6)          109.22  0.001209   -0.17    109.05   
    27. A(C   0,C   1,H   6)          109.45  0.000595    0.01    109.46   
    28. A(C   8,C   5,H   9)          109.08  0.000966   -0.14    108.94   
    29. A(C   1,C   5,H   9)          109.44  0.001330   -0.20    109.25   
    30. A(C   1,C   5,C   8)          112.13 -0.004155    0.90    113.03   
    31. A(H   9,C   5,H  10)          107.69  0.000168   -0.59    107.10   
    32. A(C   8,C   5,H  10)          108.49  0.001575   -0.18    108.32   
    33. A(C   1,C   5,H  10)          109.89  0.000280    0.15    110.04   
    34. A(H  12,C   8,H  13)          107.56  0.000722   -0.62    106.93   
    35. A(N  11,C   8,H  13)          113.01 -0.000680    0.40    113.41   
    36. A(C   5,C   8,H  13)          109.04  0.001161   -0.25    108.79   
    37. A(N  11,C   8,H  12)          107.41 -0.000875    0.37    107.79   
    38. A(C   5,C   8,H  12)          109.45  0.001583   -0.43    109.03   
    39. A(C   5,C   8,N  11)          110.27 -0.001792    0.49    110.76   
    40. A(H  14,N  11,H  15)          107.55  0.002560   -0.58    106.96   
    41. A(C   8,N  11,H  15)          109.60 -0.001681    0.24    109.83   
    42. A(C   8,N  11,H  14)          109.98 -0.002880    0.44    110.42   
    43. D(H   6,C   1,C   0,H   4)    -61.31  0.000799   -0.45    -61.76   
    44. D(C   5,C   1,C   0,H   3)    179.88  0.000077   -0.00    179.88   
    45. D(H   7,C   1,C   0,H   3)    -58.91 -0.000738    0.49    -58.42   
    46. D(H   6,C   1,C   0,H   2)    178.84  0.000429   -0.27    178.57   
    47. D(C   5,C   1,C   0,H   4)     59.81  0.000280   -0.10     59.71   
    48. D(H   6,C   1,C   0,H   3)     58.76  0.000596   -0.35     58.41   
    49. D(H   7,C   1,C   0,H   4)   -178.99 -0.000535    0.39   -178.59   
    50. D(C   5,C   1,C   0,H   2)    -60.04 -0.000090    0.08    -59.96   
    51. D(H   7,C   1,C   0,H   2)     61.16 -0.000905    0.57     61.74   
    52. D(H   9,C   5,C   1,H   6)    179.80 -0.000271    0.10    179.90   
    53. D(C   8,C   5,C   1,H   7)     58.44  0.000870   -0.61     57.84   
    54. D(C   8,C   5,C   1,H   6)    -59.02 -0.000870    0.37    -58.64   
    55. D(C   8,C   5,C   1,C   0)    179.73 -0.000005   -0.08    179.65   
    56. D(H   9,C   5,C   1,H   7)    -62.74  0.001469   -0.88    -63.62   
    57. D(H  10,C   5,C   1,H   7)    179.19  0.000303   -0.13    179.06   
    58. D(H  10,C   5,C   1,H   6)     61.73 -0.001437    0.85     62.58   
    59. D(H  10,C   5,C   1,C   0)    -59.52 -0.000572    0.40    -59.12   
    60. D(H   9,C   5,C   1,C   0)     58.55  0.000594   -0.35     58.19   
    61. D(H  13,C   8,C   5,H   9)     62.16 -0.002006    1.42     63.58   
    62. D(H  13,C   8,C   5,C   1)    -59.23 -0.001633    1.18    -58.05   
    63. D(H  12,C   8,C   5,H  10)    -63.38  0.002054   -0.60    -63.98   
    64. D(H  12,C   8,C   5,H   9)    179.57  0.000439    0.28    179.85   
    65. D(H  12,C   8,C   5,C   1)     58.18  0.000812    0.04     58.22   
    66. D(N  11,C   8,C   5,H  10)     54.58  0.000876   -0.12     54.46   
    67. D(N  11,C   8,C   5,H   9)    -62.47 -0.000738    0.76    -61.70   
    68. D(H  13,C   8,C   5,H  10)    179.21 -0.000392    0.54    179.75   
    69. D(N  11,C   8,C   5,C   1)    176.14 -0.000366    0.52    176.66   
    70. D(H  15,N  11,C   8,C   5)     61.49 -0.000557    0.69     62.18   
    71. D(H  14,N  11,C   8,H  13)     57.20  0.000131    0.07     57.27   
    72. D(H  14,N  11,C   8,H  12)    -61.27  0.000210    0.37    -60.90   
    73. D(H  14,N  11,C   8,C   5)    179.53 -0.000164    0.38    179.91   
    74. D(H  15,N  11,C   8,H  13)    -60.83 -0.000262    0.38    -60.45   
    75. D(H  15,N  11,C   8,H  12)   -179.30 -0.000183    0.67   -178.63   
    ----------------------------------------------------------------------------

         *************************************************************
         *                GEOMETRY OPTIMIZATION CYCLE   2            *
         *************************************************************
---------------------------------
CARTESIAN COORDINATES (ANGSTROEM)
---------------------------------
  C     -2.551596    0.358797   -0.015248
  C     -1.290211   -0.503965   -0.027530
  H     -2.592214    0.976485    0.895800
  H     -3.458800   -0.263583   -0.047064
  H     -2.568518    1.034329   -0.884855
  C     -0.008541    0.328097    0.012872
  H     -1.283331   -1.132051   -0.934880
  H     -1.305887   -1.189958    0.837175
  C      1.255835   -0.523835    0.009454
  H     -0.012840    0.960102    0.919749
  H      0.028753    1.006997   -0.855312
  N      2.446343    0.318027   -0.030718
  H      1.260287   -1.157294   -0.894055
  H      1.228431   -1.208211    0.884321
  H      3.286601   -0.255231   -0.031328
  H      2.485285    0.901541    0.803183

----------------------------
CARTESIAN COORDINATES (A.U.)
----------------------------
  NO LB      ZA    FRAG     MASS         X           Y           Z
   0 C     6.0000    0    12.011   -4.821818    0.678028   -0.028815
   1 C     6.0000    0    12.011   -2.438146   -0.952356   -0.052023
   2 H     1.0000    0     1.008   -4.898574    1.845289    1.692817
   3 H     1.0000    0     1.008   -6.536185   -0.498100   -0.088937
   4 H     1.0000    0     1.008   -4.853795    1.954599   -1.672134
   5 C     6.0000    0    12.011   -0.016141    0.620014    0.024324
   6 H     1.0000    0     1.008   -2.425145   -2.139266   -1.766667
   7 H     1.0000    0     1.008   -2.467768   -2.248695    1.582031
   8 C     6.0000    0    12.011    2.373185   -0.989904    0.017866
   9 H     1.0000    0     1.008   -0.024265    1.814330    1.738074
  10 H     1.0000    0     1.008    0.054335    1.902948   -1.616305
  11 N     7.0000    0    14.007    4.622919    0.600984   -0.058049
  12 H     1.0000    0     1.008    2.381598   -2.186968   -1.689519
  13 H     1.0000    0     1.008    2.321398   -2.283189    1.671124
  14 H     1.0000    0     1.008    6.210776   -0.482316   -0.059201
  15 H     1.0000    0     1.008    4.696507    1.703666    1.517796

--------------------------------
INTERNAL COORDINATES (ANGSTROEM)
--------------------------------
 C      0   0   0     0.000000000000     0.00000000     0.00000000
 C      1   0   0     1.528267374750     0.00000000     0.00000000
 H      1   2   0     1.101452455770   110.71206879     0.00000000
 H      1   2   3     1.100630489148   111.15265622   239.84209614
 H      1   2   3     1.101293415662   110.64776313   119.67070121
 C      2   1   3     1.528606200217   112.61466672   300.03605575
 H      2   1   3     1.103550436108   109.45452876   178.56748498
 H      2   1   3     1.103877662850   109.43937172    61.73819212
 C      6   2   1     1.524613922230   113.02410447   179.65332460
 H      6   2   1     1.105384787036   109.24708476    58.19342477
 H      6   2   1     1.102741095151   110.03911277   300.87863957
 N      9   6   2     1.458648362985   110.75770986   176.66070489
 H      9   6   2     1.103457652840   109.02385665    58.22032209
 H      9   6   2     1.111087098284   108.78183331   301.94876702
 H     12   9   6     1.017181422914   110.42367889   179.90976023
 H     12   9   6     1.018526291376   109.83464070    62.17994691

---------------------------
INTERNAL COORDINATES (A.U.)
---------------------------
 C      0   0   0     0.000000000000     0.00000000     0.00000000
 C      1   0   0     2.888006797683     0.00000000     0.00000000
 H      1   2   0     2.081443490941   110.71206879     0.00000000
 H      1   2   3     2.079890199134   111.15265622   239.84209614
 H      1   2   3     2.081142948693   110.64776313   119.67070121
 C      2   1   3     2.888647085025   112.61466672   300.03605575
 H      2   1   3     2.085408099213   109.45452876   178.56748498
 H      2   1   3     2.086026468139   109.43937172    61.73819212
 C      6   2   1     2.881102772979   113.02410447   179.65332460
 H      6   2   1     2.088874520101   109.24708476    58.19342477
 H      6   2   1     2.083878666455   110.03911277   300.87863957
 N      9   6   2     2.756445931735   110.75770986   176.66070489
 H      9   6   2     2.085232764247   109.02385665    58.22032209
 H      9   6   2     2.099650326691   108.78183331   301.94876702
 H     12   9   6     1.922194317820   110.42367889   179.90976023
 H     12   9   6     1.924735750900   109.83464070    62.17994691



           ************************************************************
           *        Program running with 4 parallel MPI-processes     *
           *              working on a common directory               *
           ************************************************************
------------------------------------------------------------------------------
                   ___                                                        
                  /   \      - P O W E R E D   B Y -                         
                 /     \                                                     
                 |  |  |   _    _      __       _____    __    __             
                 |  |  |  | |  | |    /  \     |  _  \  |  |  /  |          
                  \  \/   | |  | |   /    \    | | | |  |  | /  /          
                 / \  \   | |__| |  /  /\  \   | |_| |  |  |/  /          
                |  |  |   |  __  | /  /__\  \  |    /   |      \           
                |  |  |   | |  | | |   __   |  |    \   |  |\   \          
                \     /   | |  | | |  |  |  |  | |\  \  |  | \   \       
                 \___/    |_|  |_| |__|  |__|  |_| \__\ |__|  \__/        
                                                                              
[...]
     37       0.019029   0.002898  -0.124271  -0.036074  -0.174319   0.512776
     38      -0.058098  -0.000188   0.098612   0.025208   0.135366  -0.392495
     39      -0.483918   0.048706   0.028610  -0.001080   0.043386   0.086734
     40       0.079071  -0.001735  -0.124668  -0.026834  -0.168404   0.482906
     41       0.060343   0.000665  -0.106336  -0.025721  -0.144667   0.424986
     42      -0.151763   0.015212   0.011380   0.000493   0.005110   0.039639
     43      -0.158415   0.015162   0.010333  -0.000283   0.004604   0.042203
     44       0.029219  -0.001883  -0.005174  -0.002829  -0.011193   0.015783
     45       0.139873  -0.009262  -0.016957  -0.004758  -0.020447   0.030566
     46       0.051477   0.000215   0.001902   0.001321   0.002241  -0.005371
     47      -0.019618  -0.001091  -0.000878  -0.000577   0.000502  -0.002391
                 36         37         38         39         40         41    
      0      -0.000367   0.000317   0.003557  -0.012880  -0.037123   0.000305
      1       0.000660   0.000273  -0.002566   0.005005   0.034479   0.000602
      2      -0.000051  -0.000054  -0.000189   0.000351   0.001465  -0.000167
      3       0.002777   0.000004  -0.001688   0.000805   0.001849   0.000234
      4      -0.001974   0.001823  -0.011156   0.066046  -0.021191  -0.002517
      5      -0.001311  -0.001145  -0.004163  -0.000561  -0.000649  -0.000474
      6       0.000128  -0.000487   0.001343   0.003124   0.015725  -0.000499
      7       0.000603  -0.000220   0.029426  -0.088959  -0.333693  -0.000096
      8       0.000148  -0.000173   0.043761  -0.127865  -0.486544  -0.000597
      9       0.001592  -0.000771  -0.039207   0.154545   0.396164  -0.003495
     10      -0.002401  -0.001273  -0.031198   0.113345   0.278948  -0.002559
     11       0.000816   0.000147  -0.001399   0.003352   0.008638  -0.000559
     12       0.001313  -0.001017   0.000763   0.000935   0.008334  -0.000564
     13       0.000868   0.000643   0.030942  -0.090557  -0.343469  -0.002727
     14      -0.000178  -0.000432  -0.041599   0.119834   0.460416   0.003722
     15      -0.002879  -0.001189   0.000934  -0.001049   0.000630  -0.001198
     16       0.004301   0.000294   0.064899   0.010486   0.002929  -0.011823
     17      -0.001082  -0.003158   0.029619   0.006725   0.001063   0.020472
     18      -0.010087   0.000634   0.000035   0.001001  -0.002559   0.002089
     19      -0.003690  -0.006640   0.081053  -0.366156   0.116820   0.018624
     20       0.000206  -0.010010   0.115492  -0.533482   0.167440   0.025285
     21      -0.003213   0.003134   0.002275  -0.008269   0.000328   0.000330
     22       0.000066  -0.015835   0.045631  -0.410231   0.122179   0.012080
     23       0.000221   0.021906  -0.062185   0.541631  -0.159586  -0.016598
     24      -0.002182   0.000734   0.001964   0.000227   0.000111   0.000820
     25      -0.018939  -0.058705  -0.004247  -0.000231  -0.000515  -0.035915
     26       0.020073   0.048945  -0.005200  -0.004608   0.001085  -0.076162
     27       0.019711   0.001395   0.002771   0.000949  -0.001639  -0.002209
     28       0.004330   0.019416  -0.499152  -0.091479  -0.020028  -0.025484
     29       0.006091   0.025332  -0.713478  -0.129908  -0.028007  -0.030650
     30      -0.012413  -0.002364  -0.013017  -0.001195  -0.002163   0.010927
     31       0.006246  -0.018347  -0.259955  -0.034677  -0.011673   0.169208
     32       0.000129   0.021844   0.357924   0.048832   0.015156  -0.218120
     33       0.072014  -0.001473  -0.000180   0.000145  -0.000175   0.000131
     34       0.031583  -0.000674  -0.000006  -0.000198   0.000067   0.001143
     35       0.020516  -0.000035   0.000119   0.000056   0.000019   0.001294
     36       0.037667   0.002221  -0.001012   0.001596  -0.000072  -0.009924
     37       0.050323   0.102559   0.046264   0.022114  -0.003361   0.528564
     38      -0.028505   0.180967   0.067743   0.032502  -0.004821   0.777521
     39      -0.036836   0.021963  -0.002218   0.001164  -0.000160  -0.001132
     40      -0.015626   0.601356   0.000854  -0.019624   0.006616  -0.113744
     41       0.029663  -0.765424  -0.003189   0.022828  -0.008006   0.125682
     42      -0.273126   0.002040  -0.001672  -0.000685  -0.000093  -0.001149
     43      -0.425218  -0.007298  -0.002550   0.000458  -0.000536  -0.003416
     44      -0.478205  -0.005876  -0.001090   0.000202  -0.000383   0.000719
     45      -0.693840  -0.004682  -0.004356  -0.001509   0.000046   0.001888
     46       0.135697   0.006041  -0.000435  -0.000300   0.000172  -0.004683
     47      -0.025531   0.000909  -0.002745  -0.001423   0.000101  -0.013159
                 42         43         44         45         46         47    
      0      -0.000416  -0.000020   0.005158   0.056124   0.000026   0.000016
      1       0.000247   0.000194   0.004813   0.074421   0.000028   0.000026
      2      -0.012973  -0.015078   0.091146  -0.006878  -0.000016   0.000004
      3      -0.000972   0.000002  -0.000164   0.000024   0.000008  -0.000019
      4      -0.000776  -0.000745   0.000173   0.004639  -0.000159  -0.000090
      5       0.079992   0.044949   0.019299  -0.001429  -0.000038   0.000057
      6      -0.001771  -0.000939   0.024321   0.017350   0.000003  -0.000014
      7       0.055605   0.064324  -0.411898  -0.160889  -0.000010  -0.000071
      8       0.078200   0.091556  -0.580588  -0.248908   0.000025  -0.000105
      9       0.006477   0.000922  -0.071733  -0.698324   0.000013   0.000037
     10       0.004124   0.001338  -0.049293  -0.477816  -0.000103  -0.000096
     11      -0.002876  -0.004394   0.011757  -0.015629  -0.000017  -0.000001
     12       0.001295  -0.001193  -0.013290   0.016598  -0.000007  -0.000014
     13      -0.063090  -0.067775   0.403360  -0.251390  -0.000020  -0.000043
     14       0.081303   0.088674  -0.518572   0.346517   0.000109   0.000002
     15       0.000992  -0.001762  -0.000168  -0.000237  -0.000031  -0.000138
     16       0.013940  -0.017866  -0.000946   0.000180   0.000101   0.000347
     17      -0.041036   0.075522   0.006122  -0.000551  -0.000168   0.000134
     18       0.002492  -0.003029   0.002401   0.000654  -0.000348   0.000342
     19      -0.359030  -0.196485  -0.084751  -0.016530   0.000200   0.000174
     20      -0.495988  -0.271886  -0.118328  -0.021941   0.000309   0.000183
     21       0.005556   0.007710  -0.000352   0.000420   0.000033   0.000053
     22       0.366738   0.208788   0.083894  -0.031418   0.000346   0.000349
     23      -0.460698  -0.262943  -0.106802   0.038833  -0.000470  -0.000381
     24       0.000512  -0.000649  -0.000037  -0.000074  -0.001442   0.000056
     25      -0.004721   0.005958   0.000246   0.000244  -0.001855  -0.001348
     26      -0.012425   0.020481   0.001170   0.000001   0.002761  -0.000798
     27      -0.003005   0.001190  -0.002578  -0.001287   0.001296  -0.001611
     28       0.110073  -0.238688  -0.023496  -0.000031   0.000226  -0.000126
     29       0.145765  -0.324376  -0.031457  -0.000132   0.001498  -0.000702
     30      -0.011376   0.022729   0.003997  -0.001920  -0.000178  -0.000351
     31      -0.272376   0.445840   0.033993  -0.005317   0.000314  -0.000233
     32       0.349149  -0.572690  -0.042809   0.006703  -0.000167  -0.000056
     33       0.000005   0.000016   0.000008   0.000021   0.039597   0.044905
     34       0.000129  -0.000160   0.000004  -0.000034   0.009096  -0.054529
     35       0.000188  -0.000593  -0.000068  -0.000001   0.041957  -0.038660
     36      -0.001197   0.006088   0.001285   0.000386   0.001774  -0.000107
     37       0.076708  -0.119114  -0.007208  -0.001450  -0.003181   0.005643
     38       0.114228  -0.175324  -0.010156  -0.002052  -0.008219   0.007985
     39      -0.000805  -0.001980  -0.000852   0.000516  -0.002901  -0.000817
     40      -0.022647   0.051394   0.004420  -0.001863   0.002539   0.000710
     41       0.027776  -0.062049  -0.005077   0.002108  -0.006972   0.000149
     42      -0.000136   0.000537   0.000061   0.000113  -0.509799  -0.655307
     43      -0.000898   0.000740  -0.000026  -0.000025   0.342246   0.435972
     44       0.000986  -0.001349  -0.000033   0.000083   0.046646   0.023022
     45       0.001027  -0.003317  -0.000447  -0.000125  -0.022969   0.034791
     46      -0.000541   0.000322  -0.000117   0.000086  -0.446483   0.328125
     47      -0.002013   0.003152   0.000088  -0.000035  -0.646025   0.514303


-----------
IR SPECTRUM
-----------

 Mode   freq       eps      Int      T**2         TX        TY        TZ
       cm**-1   L/(mol*cm) km/mol    a.u.
----------------------------------------------------------------------------
  6:    127.57   0.000596    3.01  0.001459  (-0.020264  0.025058  0.020506)
  7:    133.62   0.000447    2.26  0.001044  (-0.008063 -0.027204 -0.015463)
  8:    186.58   0.000304    1.54  0.000509  (-0.004996  0.019298  0.010542)
  9:    262.07   0.008128   41.07  0.009678  (-0.067609  0.051654  0.049385)
 10:    279.98   0.000115    0.58  0.000129  (-0.008906  0.004591  0.005323)
 11:    406.94   0.000006    0.03  0.000005  ( 0.000358  0.002087 -0.000518)
 12:    447.64   0.002037   10.30  0.001420  (-0.033750  0.001502  0.016705)
 13:    754.13   0.000630    3.18  0.000261  (-0.001889  0.003161 -0.015721)
 14:    810.87   0.006736   34.04  0.002592  ( 0.021604  0.040178 -0.022610)
 15:    848.56   0.020847  105.35  0.007667  (-0.040217 -0.059457  0.050142)
 16:    921.97   0.000329    1.66  0.000111  (-0.009603  0.000585 -0.004342)
 17:    960.19   0.000925    4.68  0.000301  ( 0.005142  0.012177 -0.011227)
 18:   1013.87   0.000860    4.34  0.000265  ( 0.009768  0.012584 -0.003283)
 19:   1083.72   0.000117    0.59  0.000034  ( 0.000366 -0.003875  0.004319)
 20:   1108.08   0.000271    1.37  0.000076  ( 0.004845  0.002041 -0.006981)
 21:   1145.36   0.002821   14.26  0.000769  (-0.025189 -0.011136  0.003199)
 22:   1169.66   0.001599    8.08  0.000427  (-0.001777 -0.014588  0.014513)
 23:   1227.50   0.000132    0.67  0.000034  (-0.004403 -0.003447 -0.001508)
 24:   1265.51   0.000393    1.99  0.000097  ( 0.008282 -0.000013  0.005318)
 25:   1311.65   0.000058    0.29  0.000014  ( 0.003126 -0.000875 -0.001773)
 26:   1323.76   0.000164    0.83  0.000039  ( 0.005966  0.000708  0.001585)
 27:   1339.89   0.000345    1.74  0.000080  ( 0.008077  0.003492 -0.001715)
 28:   1394.76   0.000153    0.78  0.000034  ( 0.005121 -0.002591  0.001183)
 29:   1422.77   0.000393    1.98  0.000086  (-0.001889  0.009043  0.000882)
 30:   1460.03   0.003549   17.94  0.000759  ( 0.025677  0.009744  0.002084)
 31:   1473.67   0.000010    0.05  0.000002  ( 0.000738  0.001222 -0.000226)
 32:   1479.94   0.000202    1.02  0.000043  (-0.005181  0.001054  0.003833)
 33:   1480.89   0.001565    7.91  0.000330  (-0.000946  0.000875 -0.018116)
 34:   1490.92   0.000770    3.89  0.000161  ( 0.002947  0.012338  0.000566)
 35:   1507.01   0.000459    2.32  0.000095  (-0.008989  0.003563  0.001283)
 36:   1644.20   0.005517   27.88  0.001047  (-0.024316 -0.005767 -0.020559)
 37:   2976.01   0.016320   82.48  0.001711  (-0.006769 -0.034763  0.021378)
 38:   3046.84   0.003356   16.96  0.000344  ( 0.003069  0.016524  0.007827)
 39:   3056.58   0.010136   51.22  0.001035  (-0.005661  0.031662  0.000544)
 40:   3061.26   0.003525   17.81  0.000359  (-0.017945  0.005979  0.001245)
 41:   3088.54   0.005660   28.60  0.000572  ( 0.000455 -0.015371 -0.018313)
 42:   3101.76   0.000219    1.11  0.000022  (-0.000428  0.001672  0.004369)
 43:   3121.09   0.010210   51.60  0.001021  ( 0.000322 -0.002325  0.031865)
 44:   3154.97   0.007524   38.02  0.000744  ( 0.001520  0.001175  0.027212)
 45:   3163.10   0.005110   25.82  0.000504  ( 0.014209  0.017289 -0.001830)
 46:   3560.83   0.000103    0.52  0.000009  (-0.000434  0.002037 -0.002162)
 47:   3644.79   0.000327    1.65  0.000028  (-0.002726  0.003972  0.002184)

* The epsilon (eps) is given for a Dirac delta lineshape.
** The dipole moment derivative (T) already includes vibrational overlap.

The first frequency considered to be a vibration is 6
The total number of vibrations considered is 42


--------------------------
THERMOCHEMISTRY AT 298.15K
--------------------------

Temperature         ... 298.15 K
Pressure            ... 1.00 atm
Total Mass          ... 73.14 AMU

Throughout the following assumptions are being made:
  (1) The electronic state is orbitally nondegenerate
  (2) There are no thermally accessible electronically excited states
  (3) Hindered rotations indicated by low frequency modes are not
      treated as such but are treated as vibrations and this may
      cause some error
  (4) All equations used are the standard statistical mechanics
      equations for an ideal gas
  (5) All vibrations are strictly harmonic

freq.     127.57  E(vib)   ...       0.43 
freq.     133.62  E(vib)   ...       0.42 
freq.     186.58  E(vib)   ...       0.37 
freq.     262.07  E(vib)   ...       0.29 
freq.     279.98  E(vib)   ...       0.28 
freq.     406.94  E(vib)   ...       0.19 
freq.     447.64  E(vib)   ...       0.17 
freq.     754.13  E(vib)   ...       0.06 
freq.     810.87  E(vib)   ...       0.05 
freq.     848.56  E(vib)   ...       0.04 
freq.     921.97  E(vib)   ...       0.03 
freq.     960.19  E(vib)   ...       0.03 
freq.    1013.87  E(vib)   ...       0.02 
freq.    1083.72  E(vib)   ...       0.02 
freq.    1108.08  E(vib)   ...       0.02 
freq.    1145.36  E(vib)   ...       0.01 
freq.    1169.66  E(vib)   ...       0.01 
freq.    1227.50  E(vib)   ...       0.01 
freq.    1265.51  E(vib)   ...       0.01 
freq.    1311.65  E(vib)   ...       0.01 
freq.    1323.76  E(vib)   ...       0.01 
freq.    1339.89  E(vib)   ...       0.01 
freq.    1394.76  E(vib)   ...       0.00 
freq.    1422.77  E(vib)   ...       0.00 
freq.    1460.03  E(vib)   ...       0.00 
freq.    1473.67  E(vib)   ...       0.00 
freq.    1479.94  E(vib)   ...       0.00 
freq.    1480.89  E(vib)   ...       0.00 
freq.    1490.92  E(vib)   ...       0.00 
freq.    1507.01  E(vib)   ...       0.00 
freq.    1644.20  E(vib)   ...       0.00 
freq.    2976.01  E(vib)   ...       0.00 
freq.    3046.84  E(vib)   ...       0.00 
freq.    3056.58  E(vib)   ...       0.00 
freq.    3061.26  E(vib)   ...       0.00 
freq.    3088.54  E(vib)   ...       0.00 
freq.    3101.76  E(vib)   ...       0.00 
freq.    3121.09  E(vib)   ...       0.00 
freq.    3154.97  E(vib)   ...       0.00 
freq.    3163.10  E(vib)   ...       0.00 
freq.    3560.83  E(vib)   ...       0.00 
freq.    3644.79  E(vib)   ...       0.00 

------------
INNER ENERGY
------------

The inner energy is: U= E(el) + E(ZPE) + E(vib) + E(rot) + E(trans)
    E(el)   - is the total energy from the electronic structure calculation
              = E(kin-el) + E(nuc-el) + E(el-el) + E(nuc-nuc)
    E(ZPE)  - the the zero temperature vibrational energy from the frequency calculation
    E(vib)  - the the finite temperature correction to E(ZPE) due to population
              of excited vibrational states
    E(rot)  - is the rotational thermal energy
    E(trans)- is the translational thermal energy

Summary of contributions to the inner energy U:
Electronic energy                ...   -213.59042722 Eh
Zero point energy                ...      0.15140492 Eh      95.01 kcal/mol
Thermal vibrational correction   ...      0.00398048 Eh       2.50 kcal/mol
Thermal rotational correction    ...      0.00141627 Eh       0.89 kcal/mol
Thermal translational correction ...      0.00141627 Eh       0.89 kcal/mol
-----------------------------------------------------------------------
Total thermal energy                   -213.43220928 Eh


Summary of corrections to the electronic energy:
(perhaps to be used in another calculation)
Total thermal correction                  0.00681302 Eh       4.28 kcal/mol
Non-thermal (ZPE) correction              0.15140492 Eh      95.01 kcal/mol
-----------------------------------------------------------------------
Total correction                          0.15821794 Eh      99.28 kcal/mol


--------
ENTHALPY
--------

The enthalpy is H = U + kB*T
                kB is Boltzmann's constant
Total free energy                 ...   -213.43220928 Eh 
Thermal Enthalpy correction       ...      0.00094421 Eh       0.59 kcal/mol
-----------------------------------------------------------------------
Total Enthalpy                    ...   -213.43126507 Eh


Note: Only C1 symmetry has been detected, increase convergence thresholds 
      if your molecule has a higher symmetry. Symmetry factor of 1.0 is   
      used for the rotational entropy correction. 
 

Note: Rotational entropy computed according to Herzberg 
Infrared and Raman Spectra, Chapter V,1, Van Nostrand Reinhold, 1945 
Point Group:  C1, Symmetry Number:   1  
Rotational constants in cm-1:     0.603208     0.065566     0.062173 

Vibrational entropy computed according to the QRRHO of S. Grimme
Chem.Eur.J. 2012 18 9955


-------
ENTROPY
-------

The entropy contributions are T*S = T*(S(el)+S(vib)+S(rot)+S(trans))
     S(el)   - electronic entropy
     S(vib)  - vibrational entropy
     S(rot)  - rotational entropy
     S(trans)- translational entropy
The entropies will be listed as multiplied by the temperature to get
units of energy

Electronic entropy                ...      0.00000000 Eh      0.00 kcal/mol
Vibrational entropy               ...      0.00680493 Eh      4.27 kcal/mol
Rotational entropy                ...      0.01234715 Eh      7.75 kcal/mol
Translational entropy             ...      0.01842822 Eh     11.56 kcal/mol
-----------------------------------------------------------------------
Final entropy term                ...      0.03758030 Eh     23.58 kcal/mol

In case the symmetry of your molecule has not been determined correctly
or in case you have a reason to use a different symmetry number we print 
out the resulting rotational entropy values for sn=1,12 :
 --------------------------------------------------------
|  sn= 1 | S(rot)=       0.01234715 Eh      7.75 kcal/mol|
|  sn= 2 | S(rot)=       0.01169269 Eh      7.34 kcal/mol|
|  sn= 3 | S(rot)=       0.01130986 Eh      7.10 kcal/mol|
|  sn= 4 | S(rot)=       0.01103823 Eh      6.93 kcal/mol|
|  sn= 5 | S(rot)=       0.01082754 Eh      6.79 kcal/mol|
|  sn= 6 | S(rot)=       0.01065540 Eh      6.69 kcal/mol|
|  sn= 7 | S(rot)=       0.01050985 Eh      6.60 kcal/mol|
|  sn= 8 | S(rot)=       0.01038378 Eh      6.52 kcal/mol|
|  sn= 9 | S(rot)=       0.01027257 Eh      6.45 kcal/mol|
|  sn=10 | S(rot)=       0.01017309 Eh      6.38 kcal/mol|
|  sn=11 | S(rot)=       0.01008310 Eh      6.33 kcal/mol|
|  sn=12 | S(rot)=       0.01000094 Eh      6.28 kcal/mol|
 --------------------------------------------------------


-------------------
GIBBS FREE ENERGY
-------------------

The Gibbs free energy is G = H - T*S

Total enthalpy                    ...   -213.43126507 Eh 
Total entropy correction          ...     -0.03758030 Eh    -23.58 kcal/mol
-----------------------------------------------------------------------
Final Gibbs free energy         ...   -213.46884537 Eh

For completeness - the Gibbs free energy minus the electronic energy
G-E(el)                           ...      0.12158185 Eh     76.29 kcal/mol


Timings for individual modules:

Sum of individual times         ...      208.558 sec (=   3.476 min)
GTO integral calculation        ...        5.152 sec (=   0.086 min)   2.5 %
SCF iterations                  ...      106.096 sec (=   1.768 min)  50.9 %
SCF Gradient evaluation         ...       26.611 sec (=   0.444 min)  12.8 %
Geometry relaxation             ...        0.441 sec (=   0.007 min)   0.2 %
Analytical frequency calculation...       70.258 sec (=   1.171 min)  33.7 %
                             ****ORCA TERMINATED NORMALLY****
TOTAL RUN TIME: 0 days 0 hours 3 minutes 31 seconds 745 msec
