
                                 *****************
                                 * O   R   C   A *
                                 *****************

                                            #,                                       
                                            ###                                      
                                            ####                                     
                                            #####                                    
                                            ######                                   
                                           ########,                                 
                                     ,,################,,,,,                         
                               ,,#################################,,                 
                          ,,##########################################,,             
                       ,#########################################, ''#####,          
                    ,#############################################,,   '####,        
                  ,##################################################,,,,####,       
                ,###########''''           ''''###############################       
              ,#####''   ,,,,##########,,,,          '''####'''          '####       
            ,##' ,,,,###########################,,,                        '##       
           ' ,,###''''                  '''############,,,                           
         ,,##''                                '''############,,,,        ,,,,,,###''
      ,#''                                            '''#######################'''  
     '                                                          ''''####''''         
             ,#######,   #######,   ,#######,      ##                                
            ,#'     '#,  ##    ##  ,#'     '#,    #''#        ######   ,####,        
            ##       ##  ##   ,#'  ##            #'  '#       #        #'  '#        
            ##       ##  #######   ##           ,######,      #####,   #    #        
            '#,     ,#'  ##    ##  '#,     ,#' ,#      #,         ##   #,  ,#        
             '#######'   ##     ##  '#######'  #'      '#     #####' # '####'        



                  #######################################################
                  #                        -***-                        #
                  #          Department of theory and spectroscopy      #
                  #    Directorship and core code : Frank Neese         #
                  #        Max Planck Institute fuer Kohlenforschung    #
                  #                Kaiser Wilhelm Platz 1               #
                  #                 D-45470 Muelheim/Ruhr               #
                  #                      Germany                        #
                  #                                                     #
                  #                  All rights reserved                #
                  #                        -***-                        #
                  #######################################################


                         Program Version 5.0.4 -  RELEASE  -


 With contributions from (in alphabetic order):
   Daniel Aravena         : Magnetic Suceptibility
   Michael Atanasov       : Ab Initio Ligand Field Theory (pilot matlab implementation)
   Alexander A. Auer      : GIAO ZORA, VPT2 properties, NMR spectrum
   Ute Becker             : Parallelization
   Giovanni Bistoni       : ED, misc. LED, open-shell LED, HFLD
   Martin Brehm           : Molecular dynamics
   Dmytro Bykov           : SCF Hessian
   Vijay G. Chilkuri      : MRCI spin determinant printing, contributions to CSF-ICE
   Dipayan Datta          : RHF DLPNO-CCSD density
   Achintya Kumar Dutta   : EOM-CC, STEOM-CC
   Dmitry Ganyushin       : Spin-Orbit,Spin-Spin,Magnetic field MRCI
   Miquel Garcia          : C-PCM and meta-GGA Hessian, CC/C-PCM, Gaussian charge scheme
   Yang Guo               : DLPNO-NEVPT2, F12-NEVPT2, CIM, IAO-localization
   Andreas Hansen         : Spin unrestricted coupled pair/coupled cluster methods
   Benjamin Helmich-Paris : MC-RPA, TRAH-SCF, COSX integrals
   Lee Huntington         : MR-EOM, pCC
   Robert Izsak           : Overlap fitted RIJCOSX, COSX-SCS-MP3, EOM
   Marcus Kettner         : VPT2
   Christian Kollmar      : KDIIS, OOCD, Brueckner-CCSD(T), CCSD density, CASPT2, CASPT2-K
   Simone Kossmann        : Meta GGA functionals, TD-DFT gradient, OOMP2, MP2 Hessian
   Martin Krupicka        : Initial AUTO-CI
   Lucas Lang             : DCDCAS
   Marvin Lechner         : AUTO-CI (C++ implementation), FIC-MRCC
   Dagmar Lenk            : GEPOL surface, SMD
   Dimitrios Liakos       : Extrapolation schemes; Compound Job, initial MDCI parallelization
   Dimitrios Manganas     : Further ROCIS development; embedding schemes
   Dimitrios Pantazis     : SARC Basis sets
   Anastasios Papadopoulos: AUTO-CI, single reference methods and gradients
   Taras Petrenko         : DFT Hessian,TD-DFT gradient, ASA, ECA, R-Raman, ABS, FL, XAS/XES, NRVS
   Peter Pinski           : DLPNO-MP2, DLPNO-MP2 Gradient
   Christoph Reimann      : Effective Core Potentials
   Marius Retegan         : Local ZFS, SOC
   Christoph Riplinger    : Optimizer, TS searches, QM/MM, DLPNO-CCSD(T), (RO)-DLPNO pert. Triples
   Tobias Risthaus        : Range-separated hybrids, TD-DFT gradient, RPA, STAB
   Michael Roemelt        : Original ROCIS implementation
   Masaaki Saitow         : Open-shell DLPNO-CCSD energy and density
   Barbara Sandhoefer     : DKH picture change effects
   Avijit Sen             : IP-ROCIS
   Kantharuban Sivalingam : CASSCF convergence, NEVPT2, FIC-MRCI
   Bernardo de Souza      : ESD, SOC TD-DFT
   Georgi Stoychev        : AutoAux, RI-MP2 NMR, DLPNO-MP2 response
   Willem Van den Heuvel  : Paramagnetic NMR
   Boris Wezisla          : Elementary symmetry handling
   Frank Wennmohs         : Technical directorship


 We gratefully acknowledge several colleagues who have allowed us to
 interface, adapt or use parts of their codes:
   Stefan Grimme, W. Hujo, H. Kruse, P. Pracht,  : VdW corrections, initial TS optimization,
                  C. Bannwarth, S. Ehlert          DFT functionals, gCP, sTDA/sTD-DF
   Ed Valeev, F. Pavosevic, A. Kumar             : LibInt (2-el integral package), F12 methods
   Garnet Chan, S. Sharma, J. Yang, R. Olivares  : DMRG
   Ulf Ekstrom                                   : XCFun DFT Library
   Mihaly Kallay                                 : mrcc  (arbitrary order and MRCC methods)
   Jiri Pittner, Ondrej Demel                    : Mk-CCSD
   Frank Weinhold                                : gennbo (NPA and NBO analysis)
   Christopher J. Cramer and Donald G. Truhlar   : smd solvation model
   Lars Goerigk                                  : TD-DFT with DH, B97 family of functionals
   V. Asgeirsson, H. Jonsson                     : NEB implementation
   FAccTs GmbH                                   : IRC, NEB, NEB-TS, DLPNO-Multilevel, CI-OPT
                                                   MM, QMMM, 2- and 3-layer-ONIOM, Crystal-QMMM,
                                                   LR-CPCM, SF, NACMEs, symmetry and pop. for TD-DFT,
                                                   nearIR, NL-DFT gradient (VV10), updates on ESD,
                                                   ML-optimized integration grids
   S Lehtola, MJT Oliveira, MAL Marques          : LibXC Library
   Liviu Ungur et al                             : ANISO software


 Your calculation uses the libint2 library for the computation of 2-el integrals
 For citations please refer to: http://libint.valeyev.net

 Your ORCA version has been built with support for libXC version: 5.1.0
 For citations please refer to: https://tddft.org/programs/libxc/

 This ORCA versions uses:
   CBLAS   interface :  Fast vector & matrix operations
   LAPACKE interface :  Fast linear algebra routines
   SCALAPACK package :  Parallel linear algebra routines
   Shared memory     :  Shared parallel matrices
   BLAS/LAPACK       :  OpenBLAS 0.3.15  USE64BITINT DYNAMIC_ARCH NO_AFFINITY SkylakeX SINGLE_THREADED
        Core in use  :  SkylakeX
   Copyright (c) 2011-2014, The OpenBLAS Project




***************************************
The coordinates will be read from file: butylamine_deprot_aq_21.xyz
***************************************


Your calculation utilizes the atom-pairwise dispersion correction
based on tight binding partial charges (D4)
Cite in your paper:
E.Caldeweyher, C.Bannwarth, S.Grimme, J.Chem.Phys., (2017), 147, 034112.
E.Caldeweyher, S.Ehlert, A.Hansen, H.Neugebauer, S.Grimme, J.Chem.Phys., (2018), in progress.
   

XCFun DFT library Copyright 2009-2010 Ulf Ekstrom and contributors.
See http://admol.org/xcfun for more information.
This is free software; see the source code for copying conditions.
There is ABSOLUTELY NO WARRANTY; not even for MERCHANTABILITY or FITNESS FOR A PARTICULAR PURPOSE.
For details see the documentation.
Scientific users of this library should cite U. Ekstrom, L. Visscher, R. Bast, A. J. Thorvaldsen and K. Ruud;
J.Chem.Theor.Comp. 2010, DOI: 10.1021/ct100117s
XCFun Version 0.99 

================================================================================

----- Orbital basis set information -----
Your calculation utilizes the basis: def2-SVP
   F. Weigend and R. Ahlrichs, Phys. Chem. Chem. Phys. 7, 3297 (2005).

----- AuxJ basis set information -----
Your calculation utilizes the auxiliary basis: def2/J
   F. Weigend, Phys. Chem. Chem. Phys. 8, 1057 (2006).

================================================================================
                                        WARNINGS
                       Please study these warnings very carefully!
================================================================================


WARNING: Geometry Optimization
  ===> : Switching off AutoStart
         For restart on a previous wavefunction, please use MOREAD

INFO   : the flag for use of the SHARK integral package has been found!

================================================================================
                                       INPUT FILE
================================================================================
NAME = butylamine_deprot_aq_21.inp
|  1> # ORCA 5.0.4 - /users/bwb16179/postgrad/2024_06/pKa_Reviewer_Comments/CREST_Confs/butylamine/butylamine_deprot_aq_21.inp # write input file
|  2> # Basic Mode
|  3> #
|  4> ! Opt Freq wB97X Def2-SVP D4 SlowConv TightSCF Defgrid2 Def2/J RIJCOSX 
|  5> 
|  6> %PAL NPROCS 4 END
|  7> 
|  8> %maxcore 4500
|  9> 
| 10> %geom
| 11> Maxiter 150
| 12> END
| 13> 
| 14> * xyzfile 0 1 butylamine_deprot_aq_21.xyz
| 15> 
| 16>                          ****END OF INPUT****
================================================================================

                       *****************************
                       * Geometry Optimization Run *
                       *****************************

Geometry optimization settings:
Update method            Update   .... BFGS
Choice of coordinates    CoordSys .... Z-matrix Internals
Initial Hessian          InHess   .... Almoef's Model

Convergence Tolerances:
Energy Change            TolE     ....  5.0000e-06 Eh
Max. Gradient            TolMAXG  ....  3.0000e-04 Eh/bohr
RMS Gradient             TolRMSG  ....  1.0000e-04 Eh/bohr
Max. Displacement        TolMAXD  ....  4.0000e-03 bohr
RMS Displacement         TolRMSD  ....  2.0000e-03 bohr
Strict Convergence                ....  False
------------------------------------------------------------------------------
                        ORCA OPTIMIZATION COORDINATE SETUP
------------------------------------------------------------------------------

The optimization will be done in new redundant internal coordinates
Making redundant internal coordinates   ...  (new redundants) done
Evaluating the initial hessian          ...  (Almloef) done
Evaluating the coordinates              ...  done
Calculating the B-matrix                .... done
Calculating the G-matrix                .... done
Diagonalizing the G-matrix              .... done
Small eigenvalue found = 2.465e-02
The first mode is                       ....   33
The number of degrees of freedom        ....   42

    -----------------------------------------------------------------
                    Redundant Internal Coordinates


    -----------------------------------------------------------------
         Definition                    Initial Value    Approx d2E/dq
    -----------------------------------------------------------------
      1. B(C   1,C   0)                  1.5251         0.380338   
      2. B(H   2,C   0)                  1.0861         0.365241   
      3. B(H   3,C   0)                  1.0874         0.363519   
      4. B(H   4,C   0)                  1.0883         0.362389   
      5. B(C   5,C   1)                  1.5333         0.369079   
      6. B(H   6,C   1)                  1.0931         0.356066   
      7. B(H   7,C   1)                  1.0927         0.356499   
      8. B(C   8,C   5)                  1.5318         0.371130   
      9. B(H   9,C   5)                  1.0920         0.357430   
     10. B(H  10,C   5)                  1.0903         0.359669   
     11. B(N  11,C   8)                  1.4569         0.437730   
     12. B(H  12,C   8)                  1.1047         0.341140   
     13. B(H  13,C   8)                  1.0947         0.353897   
     14. B(H  14,N  11)                  1.0135         0.427106   
     15. B(H  15,N  11)                  1.0136         0.427022   
     16. A(H   3,C   0,H   4)          108.4176         0.291562   
     17. A(C   1,C   0,H   4)          110.0672         0.325616   
     18. A(C   1,C   0,H   2)          111.8059         0.326036   
     19. A(H   2,C   0,H   3)          108.0706         0.291922   
     20. A(H   2,C   0,H   4)          108.1095         0.291779   
     21. A(C   1,C   0,H   3)          110.2705         0.325782   
     22. A(C   0,C   1,C   5)          114.2703         0.363714   
     23. A(H   6,C   1,H   7)          107.1826         0.289868   
     24. A(C   5,C   1,H   7)          108.2078         0.323142   
     25. A(C   0,C   1,H   7)          107.8761         0.324740   
     26. A(C   5,C   1,H   6)          109.3908         0.323077   
     27. A(C   0,C   1,H   6)          109.6589         0.324675   
     28. A(C   8,C   5,H   9)          107.0158         0.323574   
     29. A(C   1,C   5,H   9)          108.2758         0.323280   
     30. A(C   1,C   5,C   8)          115.2456         0.362194   
     31. A(H   9,C   5,H  10)          107.9430         0.290445   
     32. A(C   8,C   5,H  10)          108.3785         0.323906   
     33. A(C   1,C   5,H  10)          109.7307         0.323611   
     34. A(H  12,C   8,H  13)          107.4213         0.287601   
     35. A(N  11,C   8,H  13)          106.6458         0.329957   
     36. A(C   5,C   8,H  13)          108.3278         0.323047   
     37. A(N  11,C   8,H  12)          113.0253         0.327963   
     38. A(C   5,C   8,H  12)          108.9303         0.321110   
     39. A(C   5,C   8,N  11)          112.2564         0.370613   
     40. A(H  14,N  11,H  15)          107.2953         0.301988   
     41. A(C   8,N  11,H  15)          109.7080         0.337491   
     42. A(C   8,N  11,H  14)          109.9768         0.337502   
     43. D(H   6,C   1,C   0,H   4)     61.1981         0.011528   
     44. D(C   5,C   1,C   0,H   3)    -56.0146         0.011528   
     45. D(H   7,C   1,C   0,H   3)     64.3548         0.011528   
     46. D(H   6,C   1,C   0,H   2)    -58.9728         0.011528   
     47. D(C   5,C   1,C   0,H   4)   -175.5843         0.011528   
     48. D(H   6,C   1,C   0,H   3)   -179.2322         0.011528   
     49. D(H   7,C   1,C   0,H   4)    -55.2149         0.011528   
     50. D(C   5,C   1,C   0,H   2)     64.2448         0.011528   
     51. D(H   7,C   1,C   0,H   2)   -175.3858         0.011528   
     52. D(H   9,C   5,C   1,H   6)    -82.7799         0.010893   
     53. D(C   8,C   5,C   1,H   7)    153.4387         0.010893   
     54. D(C   8,C   5,C   1,H   6)     36.9855         0.010893   
     55. D(C   8,C   5,C   1,C   0)    -86.3769         0.010893   
     56. D(H   9,C   5,C   1,H   7)     33.6734         0.010893   
     57. D(H  10,C   5,C   1,H   7)    -83.9151         0.010893   
     58. D(H  10,C   5,C   1,H   6)    159.6316         0.010893   
     59. D(H  10,C   5,C   1,C   0)     36.2692         0.010893   
     60. D(H   9,C   5,C   1,C   0)    153.8577         0.010893   
     61. D(H  13,C   8,C   5,H   9)    -42.1171         0.011007   
     62. D(H  13,C   8,C   5,C   1)   -162.5736         0.011007   
     63. D(H  12,C   8,C   5,H  10)   -169.3850         0.011007   
     64. D(H  12,C   8,C   5,H   9)     74.4367         0.011007   
     65. D(H  12,C   8,C   5,C   1)    -46.0199         0.011007   
     66. D(N  11,C   8,C   5,H  10)    -43.4303         0.011007   
     67. D(N  11,C   8,C   5,H   9)   -159.6086         0.011007   
     68. D(H  13,C   8,C   5,H  10)     74.0612         0.011007   
     69. D(N  11,C   8,C   5,C   1)     79.9349         0.011007   
     70. D(H  15,N  11,C   8,C   5)    173.8519         0.016337   
     71. D(H  14,N  11,C   8,H  13)    173.1528         0.016337   
     72. D(H  14,N  11,C   8,H  12)     55.3385         0.016337   
     73. D(H  14,N  11,C   8,C   5)    -68.3586         0.016337   
     74. D(H  15,N  11,C   8,H  13)     55.3633         0.016337   
     75. D(H  15,N  11,C   8,H  12)    -62.4510         0.016337   
    -----------------------------------------------------------------

Number of atoms                         .... 16
Number of degrees of freedom            .... 75

         *************************************************************
         *                GEOMETRY OPTIMIZATION CYCLE   1            *
         *************************************************************
---------------------------------
CARTESIAN COORDINATES (ANGSTROEM)
---------------------------------
  C     -1.765254    0.810371   -0.411703
  C     -1.285413   -0.567816    0.031390
  H     -1.054273    1.290154   -1.078050
  H     -1.906578    1.455760    0.452009
  H     -2.715154    0.724379   -0.935762
  C     -0.004733   -0.548370    0.874287
  H     -1.133630   -1.203576   -0.844718
  H     -2.079611   -1.023868    0.627492
  C      1.302768   -0.558524    0.076347
  H      0.001181   -1.437157    1.508750
  H     -0.004544    0.327695    1.523380
  N      1.646657    0.761123   -0.436208
  H      1.233124   -1.325157   -0.716014
  H      2.114150   -0.854970    0.748815
  H      0.984671    1.037855   -1.152079
  H      2.563069    0.731835   -0.868316

----------------------------
CARTESIAN COORDINATES (A.U.)
----------------------------
  NO LB      ZA    FRAG     MASS         X           Y           Z
   0 C     6.0000    0    12.011   -3.335846    1.531379   -0.778006
   1 C     6.0000    0    12.011   -2.429079   -1.073017    0.059318
   2 H     1.0000    0     1.008   -1.992287    2.438037   -2.037219
   3 H     1.0000    0     1.008   -3.602910    2.750987    0.854174
   4 H     1.0000    0     1.008   -5.130897    1.368879   -1.768334
   5 C     6.0000    0    12.011   -0.008944   -1.036269    1.652163
   6 H     1.0000    0     1.008   -2.142251   -2.274430   -1.596287
   7 H     1.0000    0     1.008   -3.929896   -1.934829    1.185788
   8 C     6.0000    0    12.011    2.461876   -1.055457    0.144275
   9 H     1.0000    0     1.008    0.002233   -2.715834    2.851125
  10 H     1.0000    0     1.008   -0.008586    0.619254    2.878770
  11 N     7.0000    0    14.007    3.111731    1.438314   -0.824313
  12 H     1.0000    0     1.008    2.330266   -2.504184   -1.353070
  13 H     1.0000    0     1.008    3.995164   -1.615659    1.415055
  14 H     1.0000    0     1.008    1.860759    1.961262   -2.177114
  15 H     1.0000    0     1.008    4.843498    1.382968   -1.640880

--------------------------------
INTERNAL COORDINATES (ANGSTROEM)
--------------------------------
 C      0   0   0     0.000000000000     0.00000000     0.00000000
 C      1   0   0     1.525115722793     0.00000000     0.00000000
 H      1   2   0     1.086141293350   111.80593422     0.00000000
 H      1   2   3     1.087427611741   110.27046149   239.74061459
 H      1   2   3     1.088274841782   110.06719840   120.17091850
 C      2   1   3     1.533295731418   114.27033369    64.24479073
 H      2   1   3     1.093066694777   109.65892112   301.02716213
 H      2   1   3     1.092735641188   107.87614435   184.61418842
 C      6   2   1     1.531786879534   115.24563403   273.62309421
 H      6   2   1     1.092026158213   108.27583226   153.85772238
 H      6   2   1     1.090326319463   109.73070667    36.26920698
 N      9   6   2     1.456859200030   112.25644282    79.93486320
 H      9   6   2     1.104723435113   108.93030262   313.98014902
 H      9   6   2     1.094729636937   108.32778165   197.42636999
 H     12   9   6     1.013547167820   109.97677818   291.64137647
 H     12   9   6     1.013600825718   109.70799399   173.85185658

---------------------------
INTERNAL COORDINATES (A.U.)
---------------------------
 C      0   0   0     0.000000000000     0.00000000     0.00000000
 C      1   0   0     2.882051038615     0.00000000     0.00000000
 H      1   2   0     2.052509587175   111.80593422     0.00000000
 H      1   2   3     2.054940376655   110.27046149   239.74061459
 H      1   2   3     2.056541409404   110.06719840   120.17091850
 C      2   1   3     2.897509014691   114.27033369    64.24479073
 H      2   1   3     2.065596699239   109.65892112   301.02716213
 H      2   1   3     2.064971098620   107.87614435   184.61418842
 C      6   2   1     2.894657697852   115.24563403   273.62309421
 H      6   2   1     2.063630370101   108.27583226   153.85772238
 H      6   2   1     2.060418140391   109.73070667    36.26920698
 N      9   6   2     2.753064903740   112.25644282    79.93486320
 H      9   6   2     2.087624746089   108.93030262   313.98014902
 H      9   6   2     2.068739204499   108.32778165   197.42636999
 H     12   9   6     1.915326570992   109.97677818   291.64137647
 H     12   9   6     1.915427969724   109.70799399   173.85185658

---------------------
BASIS SET INFORMATION
---------------------
There are 3 groups of distinct atoms

 Group   1 Type C   : 7s4p1d contracted to 3s2p1d pattern {511/31/1}
 Group   2 Type H   : 4s1p contracted to 2s1p pattern {31/1}
 Group   3 Type N   : 7s4p1d contracted to 3s2p1d pattern {511/31/1}

Atom   0C    basis set group =>   1
Atom   1C    basis set group =>   1
Atom   2H    basis set group =>   2
Atom   3H    basis set group =>   2
Atom   4H    basis set group =>   2
Atom   5C    basis set group =>   1
Atom   6H    basis set group =>   2
Atom   7H    basis set group =>   2
Atom   8C    basis set group =>   1
Atom   9H    basis set group =>   2
Atom  10H    basis set group =>   2
Atom  11N    basis set group =>   3
Atom  12H    basis set group =>   2
Atom  13H    basis set group =>   2
Atom  14H    basis set group =>   2
Atom  15H    basis set group =>   2
---------------------------------
AUXILIARY/J BASIS SET INFORMATION
---------------------------------
There are 3 groups of distinct atoms

 Group   1 Type C   : 12s5p4d2f1g contracted to 6s4p3d1f1g pattern {711111/2111/211/2/1}
 Group   2 Type H   : 5s2p1d contracted to 3s1p1d pattern {311/2/1}
 Group   3 Type N   : 12s5p4d2f1g contracted to 6s4p3d1f1g pattern {711111/2111/211/2/1}

Atom   0C    basis set group =>   1
Atom   1C    basis set group =>   1
Atom   2H    basis set group =>   2
Atom   3H    basis set group =>   2
Atom   4H    basis set group =>   2
Atom   5C    basis set group =>   1
Atom   6H    basis set group =>   2
Atom   7H    basis set group =>   2
Atom   8C    basis set group =>   1
Atom   9H    basis set group =>   2
Atom  10H    basis set group =>   2
Atom  11N    basis set group =>   3
Atom  12H    basis set group =>   2
Atom  13H    basis set group =>   2
Atom  14H    basis set group =>   2
Atom  15H    basis set group =>   2


           ************************************************************
           *        Program running with 4 parallel MPI-processes     *
           *              working on a common directory               *
           ************************************************************
------------------------------------------------------------------------------
                           ORCA GTO INTEGRAL CALCULATION
                           -- RI-GTO INTEGRALS CHOSEN --
------------------------------------------------------------------------------
------------------------------------------------------------------------------
                   ___                                                        
                  /   \      - P O W E R E D   B Y -                         
                 /     \                                                     
                 |  |  |   _    _      __       _____    __    __             
                 |  |  |  | |  | |    /  \     |  _  \  |  |  /  |          
                  \  \/   | |  | |   /    \    | | | |  |  | /  /          
                 / \  \   | |__| |  /  /\  \   | |_| |  |  |/  /          
                |  |  |   |  __  | /  /__\  \  |    /   |      \           
                |  |  |   | |  | | |   __   |  |    \   |  |\   \          
                \     /   | |  | | |  |  |  |  | |\  \  |  | \   \       
                 \___/    |_|  |_| |__|  |__|  |_| \__\ |__|  \__/        
                                                                              
                      - O R C A' S   B I G   F R I E N D -                    
                                      &                                       
                       - I N T E G R A L  F E E D E R -                       
                                                                              
 v1 FN, 2020, v2 2021                                                         
------------------------------------------------------------------------------


Reading SHARK input file butylamine_deprot_aq_21.SHARKINP.tmp ... ok
----------------------
SHARK INTEGRAL PACKAGE
----------------------

Number of atoms                             ...     16
Number of basis functions                   ...    125
Number of shells                            ...     63
Maximum angular momentum                    ...      2
Integral batch strategy                     ... SHARK/LIBINT Hybrid
RI-J (if used) integral strategy            ... SPLIT-RIJ (Revised 2003 algorithm where possible)
Printlevel                                  ...      1
Contraction scheme used                     ... SEGMENTED contraction
Coulomb Range Separation                    ... NOT USED
Exchange Range Separation                   ... Long Range
   Mu parameter                             ...  0.300000
   Scaling (regular/separated)              ...  0.157706  0.842294
Finite Nucleus Model                        ... NOT USED
Auxiliary Coulomb fitting basis             ... AVAILABLE
   # of basis functions in Aux-J            ...    366
   # of shells in Aux-J                     ...    130
   Maximum angular momentum in Aux-J        ...      4
Auxiliary J/K fitting basis                 ... NOT available
Auxiliary Correlation fitting basis         ... NOT available
Auxiliary 'external' fitting basis          ... NOT available
Integral threshold                          ...     2.500000e-11
Primitive cut-off                           ...     2.500000e-12
Primitive pair pre-selection threshold      ...     2.500000e-12

Calculating pre-screening integrals         ... done (  0.0 sec) Dimension = 63
Organizing shell pair data                  ... done (  0.0 sec)
Shell pair information
Total number of shell pairs                 ...      2016
Shell pairs after pre-screening             ...      1980
Total number of primitive shell pairs       ...      6768
Primitive shell pairs kept                  ...      5277
          la=0 lb=0:    692 shell pairs
          la=1 lb=0:    759 shell pairs
          la=1 lb=1:    226 shell pairs
          la=2 lb=0:    183 shell pairs
          la=2 lb=1:    105 shell pairs
          la=2 lb=2:     15 shell pairs

Calculating one electron integrals          ... done (  0.0 sec)
Calculating RI/J V-Matrix + Cholesky decomp.... done (  0.0 sec)
Calculating Nuclear repulsion               ... done (  0.0 sec) ENN=    191.710958317211 Eh

SHARK setup successfully completed in   0.2 seconds

Maximum memory used throughout the entire GTOINT-calculation: 10.7 MB


           ************************************************************
           *        Program running with 4 parallel MPI-processes     *
           *              working on a common directory               *
           ************************************************************
-------------------------------------------------------------------------------
                                 ORCA SCF
-------------------------------------------------------------------------------

------------
SCF SETTINGS
------------
Hamiltonian:
 Density Functional     Method          .... DFT(GTOs)
 Exchange Functional    Exchange        .... WB97X
 Correlation Functional Correlation     .... WB97X
 Gradients option       PostSCFGGA      .... off
 Hybrid DFT is turned on
   Fraction HF Exchange ScalHFX         ....  0.157706
   Scaling of DF-GGA-X  ScalDFX         ....  0.000000
   Scaling of DF-GGA-C  ScalDFC         ....  1.000000
   Scaling of DF-LDA-C  ScalLDAC        ....  1.000000
   Perturbative correction              ....  0.000000
   Density functional embedding theory  .... OFF
 Long-range corrected/Screened/Range-Separated Hybrid DFT is turned on
   Amount of maximum screened exact exchange              ....  0.842294
   Range separation parameter mu (erf(mu*r12)/r12)        ....  0.300000
 RI-approximation to the Coulomb term is turned on
   Number of AuxJ basis functions       .... 366
   RIJ-COSX (HFX calculated with COS-X)).... on


General Settings:
 Integral files         IntName         .... butylamine_deprot_aq_21
 Hartree-Fock type      HFTyp           .... RHF
 Total Charge           Charge          ....    0
 Multiplicity           Mult            ....    1
 Number of Electrons    NEL             ....   42
 Basis Dimension        Dim             ....  125
 Nuclear Repulsion      ENuc            ....    191.7109583172 Eh

Convergence Acceleration:
 DIIS                   CNVDIIS         .... on
   Start iteration      DIISMaxIt       ....     0
   Startup error        DIISStart       ....  0.200000
   # of expansion vecs  DIISMaxEq       ....     5
   Bias factor          DIISBfac        ....   1.050
   Max. coefficient     DIISMaxC        ....  10.000
 Trust-Rad. Augm. Hess. CNVTRAH         .... auto
   Auto Start mean grad. ratio tolernc. ....  1.125000
   Auto Start start iteration           ....    20
   Auto Start num. interpolation iter.  ....    10
   Max. Number of Micro iterations      ....    16
   Max. Number of Macro iterations      .... Maxiter - #DIIS iter
   Number of Davidson start vectors     ....     2
   Converg. threshold I  (grad. norm)   ....   1.000e-05
   Converg. threshold II (energy diff.) ....   1.000e-08
   Grad. Scal. Fac. for Micro threshold ....   0.100
   Minimum threshold for Micro iter.    ....   0.010
   NR start threshold (gradient norm)   ....   0.001
   Initial trust radius                 ....   0.400
   Minimum AH scaling param. (alpha)    ....   1.000
   Maximum AH scaling param. (alpha)    .... 1000.000
   Orbital update algorithm             .... Taylor
   White noise on init. David. guess    .... on
   Maximum white noise                  ....   0.010
   Quad. conv. algorithm                .... NR
 SOSCF                  CNVSOSCF        .... on
   Start iteration      SOSCFMaxIt      ....   150
   Startup grad/error   SOSCFStart      ....  0.001000
 Level Shifting         CNVShift        .... on
   Level shift para.    LevelShift      ....    0.2500
   Turn off err/grad.   ShiftErr        ....    0.0000
 Zerner damping         CNVZerner       .... off
 Static damping         CNVDamp         .... on
   Fraction old density DampFac         ....    0.8500
   Max. Damping (<1)    DampMax         ....    0.9800
   Min. Damping (>=0)   DampMin         ....    0.0000
   Turn off err/grad.   DampErr         ....    0.0300
 Fernandez-Rico         CNVRico         .... off

SCF Procedure:
 Maximum # iterations   MaxIter         ....   125
 SCF integral mode      SCFMode         .... Direct
   Integral package                     .... SHARK and LIBINT hybrid scheme
 Reset frequency        DirectResetFreq ....    20
 Integral Threshold     Thresh          ....  2.500e-11 Eh
 Primitive CutOff       TCut            ....  2.500e-12 Eh

Convergence Tolerance:
 Convergence Check Mode ConvCheckMode   .... Total+1el-Energy
 Convergence forced     ConvForced      .... 0
 Energy Change          TolE            ....  1.000e-08 Eh
 1-El. energy change                    ....  1.000e-05 Eh
 Orbital Gradient       TolG            ....  1.000e-05
 Orbital Rotation angle TolX            ....  1.000e-05
 DIIS Error             TolErr          ....  5.000e-07


Diagonalization of the overlap matrix:
Smallest eigenvalue                        ... 2.377e-03
Time for diagonalization                   ...    0.003 sec
Threshold for overlap eigenvalues          ... 1.000e-08
Number of eigenvalues below threshold      ... 0
Time for construction of square roots      ...    0.005 sec
Total time needed                          ...    0.008 sec

Time for model grid setup =    0.067 sec

------------------------------
INITIAL GUESS: MODEL POTENTIAL
------------------------------
Loading Hartree-Fock densities                     ... done
Calculating cut-offs                               ... done
Initializing the effective Hamiltonian             ... done
Setting up the integral package (SHARK)            ... done
Starting the Coulomb interaction                   ... done (   0.0 sec)
Reading the grid                                   ... done
Mapping shells                                     ... done
Starting the XC term evaluation                    ... done (   0.0 sec)
  promolecular density results
     # of electrons  =     41.997418463
     EX              =    -30.244585178
     EC              =     -1.356707298
     EX+EC           =    -31.601292475
Transforming the Hamiltonian                       ... done (   0.0 sec)
Diagonalizing the Hamiltonian                      ... done (   0.0 sec)
Back transforming the eigenvectors                 ... done (   0.0 sec)
Now organizing SCF variables                       ... done
                      ------------------
                      INITIAL GUESS DONE (   0.2 sec)
                      ------------------
-------------------
DFT GRID GENERATION
-------------------

General Integration Accuracy     IntAcc      ... 4.388
Radial Grid Type                 RadialGrid  ... OptM3 with GC (2021)
Angular Grid (max. ang.)         AngularGrid ... 4 (Lebedev-302)
Angular grid pruning method      GridPruning ... 4 (adaptive)
Weight generation scheme         WeightScheme... Becke
Basis function cutoff            BFCut       ... 1.0000e-11
Integration weight cutoff        WCut        ... 1.0000e-14
Angular grids for H and He will be reduced by one unit
Partially contracted basis set               ... off
Rotationally invariant grid construction     ... off

Total number of grid points                  ...    65459
Total number of batches                      ...     1031
Average number of points per batch           ...       63
Average number of grid points per atom       ...     4091
Time for grid setup =    0.377 sec

--------------------
COSX GRID GENERATION
--------------------

GRIDX 1
-------
General Integration Accuracy     IntAcc      ... 3.816
Radial Grid Type                 RadialGrid  ... OptM3 with GC (2021)
Angular Grid (max. ang.)         AngularGrid ... 1 (Lebedev-50)
Angular grid pruning method      GridPruning ... 4 (adaptive)
Weight generation scheme         WeightScheme... Becke
Basis function cutoff            BFCut       ... 1.0000e-11
Integration weight cutoff        WCut        ... 1.0000e-14
Angular grids for H and He will be reduced by one unit
Partially contracted basis set               ... on
Rotationally invariant grid construction     ... off

Total number of grid points                  ...     8425
Total number of batches                      ...      142
Average number of points per batch           ...       59
Average number of grid points per atom       ...      527
UseSFitting                                  ... on

GRIDX 2
-------
General Integration Accuracy     IntAcc      ... 4.020
Radial Grid Type                 RadialGrid  ... OptM3 with GC (2021)
Angular Grid (max. ang.)         AngularGrid ... 2 (Lebedev-110)
Angular grid pruning method      GridPruning ... 4 (adaptive)
Weight generation scheme         WeightScheme... Becke
Basis function cutoff            BFCut       ... 1.0000e-11
Integration weight cutoff        WCut        ... 1.0000e-14
Angular grids for H and He will be reduced by one unit
Partially contracted basis set               ... on
Rotationally invariant grid construction     ... off

Total number of grid points                  ...    17370
Total number of batches                      ...      281
Average number of points per batch           ...       61
Average number of grid points per atom       ...     1086
UseSFitting                                  ... on

GRIDX 3
-------
General Integration Accuracy     IntAcc      ... 4.338
Radial Grid Type                 RadialGrid  ... OptM3 with GC (2021)
Angular Grid (max. ang.)         AngularGrid ... 3 (Lebedev-194)
Angular grid pruning method      GridPruning ... 4 (adaptive)
Weight generation scheme         WeightScheme... Becke
Basis function cutoff            BFCut       ... 1.0000e-11
Integration weight cutoff        WCut        ... 1.0000e-14
Angular grids for H and He will be reduced by one unit
Partially contracted basis set               ... on
Rotationally invariant grid construction     ... off

Total number of grid points                  ...    37903
Total number of batches                      ...      601
Average number of points per batch           ...       63
Average number of grid points per atom       ...     2369
UseSFitting                                  ... on

Time for X-Grid setup             =    0.383 sec

--------------
SCF ITERATIONS
--------------
ITER       Energy         Delta-E        Max-DP      RMS-DP      [F,P]     Damp
               ***  Starting incremental Fock matrix formation  ***
  0   -213.3765110614   0.000000000000 0.03924445  0.00116565  0.2321447 0.8500
  1   -213.4223794993  -0.045868437875 0.03368285  0.00110623  0.1794037 0.8500
                               ***Turning on DIIS***
  2   -213.4559267484  -0.033547249107 0.02503372  0.00088371  0.1312494 0.8500
  3   -213.4800103454  -0.024083596985 0.01422468  0.00057066  0.0947251 0.8500
  4   -213.4982182759  -0.018207930482 0.00944067  0.00040590  0.0744028 0.8500
  5   -213.5123762523  -0.014157976447 0.00702873  0.00032011  0.0616135 0.8500
  6   -213.5238253902  -0.011449137863 0.00558829  0.00026542  0.0520048 0.8500
  7   -213.5332786997  -0.009453309487 0.00468006  0.00022856  0.0441523 0.8500
  8   -213.5411805076  -0.007901807913 0.00397837  0.00019695  0.0372493 0.8500
  9   -213.5477977084  -0.006617200801 0.00336989  0.00016839  0.0313297 0.8500
 10   -213.5533447912  -0.005547082756 0.01890427  0.00095519  0.0263681 0.0000
 11   -213.5835062419  -0.030161450705 0.00112292  0.00003853  0.0014636 0.0000
                      *** Initiating the SOSCF procedure ***
                           *** Shutting down DIIS ***
                      *** Re-Reading the Fockian *** 
                      *** Removing any level shift *** 
ITER      Energy       Delta-E        Grad      Rot      Max-DP    RMS-DP
 12   -213.58351592  -0.0000096801  0.000073  0.000073  0.000277  0.000013
               *** Restarting incremental Fock matrix formation ***
 13   -213.58360024  -0.0000843189  0.000032  0.000055  0.000202  0.000010
 14   -213.58360035  -0.0000001069  0.000011  0.000031  0.000077  0.000004
 15   -213.58360036  -0.0000000124  0.000010  0.000005  0.000029  0.000001
                  ***Gradient check signals convergence***
              ***Rediagonalizing the Fockian in SOSCF/NRSCF***

               *****************************************************
               *                     SUCCESS                       *
               *           SCF CONVERGED AFTER  16 CYCLES          *
               *****************************************************

Old exchange energy                            =    -10.443359959 Eh
New exchange energy                            =    -10.443305056 Eh
Exchange energy change after final integration =      0.000054903 Eh
Total energy after final integration           =   -213.583545462 Eh
Final COS-X integration done in                =     3.149 sec

----------------
TOTAL SCF ENERGY
----------------

Total Energy       :         -213.58354546 Eh           -5811.90374 eV

Components:
Nuclear Repulsion  :          191.71095832 Eh            5216.72039 eV
Electronic Energy  :         -405.29450378 Eh          -11028.62413 eV
One Electron Energy:         -666.15929464 Eh          -18127.11597 eV
Two Electron Energy:          260.86479087 Eh            7098.49184 eV
Max COSX asymmetry :            0.00000266 Eh               0.00007 eV

Virial components:
Potential Energy   :         -424.61028673 Eh          -11554.23331 eV
Kinetic Energy     :          211.02674127 Eh            5742.32956 eV
Virial Ratio       :            2.01211602


DFT components:
N(Alpha)           :       20.999994191716 electrons
N(Beta)            :       20.999994191716 electrons
N(Total)           :       41.999988383433 electrons
E(XC)              :      -22.249789263846 Eh       
DFET-embed. en.    :        0.000000000000 Eh       

---------------
SCF CONVERGENCE
---------------

  Last Energy change         ...   -3.9776e-09  Tolerance :   1.0000e-08
  Last MAX-Density change    ...    1.3323e-15  Tolerance :   1.0000e-07
  Last RMS-Density change    ...    3.2808e-17  Tolerance :   5.0000e-09
  Last Orbital Gradient      ...    9.4560e-07  Tolerance :   1.0000e-05
  Last Orbital Rotation      ...    1.6063e-06  Tolerance :   1.0000e-05

             **** THE GBW FILE WAS UPDATED (butylamine_deprot_aq_21.gbw) ****
             **** DENSITY butylamine_deprot_aq_21.scfp WAS UPDATED ****
             **** ENERGY FILE WAS UPDATED (butylamine_deprot_aq_21.en.tmp) ****
             **** THE GBW FILE WAS UPDATED (butylamine_deprot_aq_21.gbw) ****
             **** DENSITY butylamine_deprot_aq_21.scfp WAS UPDATED ****
----------------
ORBITAL ENERGIES
----------------

  NO   OCC          E(Eh)            E(eV) 
   0   2.0000     -14.374102      -391.1392 
   1   2.0000     -10.282803      -279.8093 
   2   2.0000     -10.260624      -279.2058 
   3   2.0000     -10.255860      -279.0762 
   4   2.0000     -10.254254      -279.0324 
   5   2.0000      -0.996861       -27.1260 
   6   2.0000      -0.906460       -24.6660 
   7   2.0000      -0.827854       -22.5270 
   8   2.0000      -0.738783       -20.1033 
   9   2.0000      -0.681108       -18.5339 
  10   2.0000      -0.608011       -16.5448 
  11   2.0000      -0.575924       -15.6717 
  12   2.0000      -0.543223       -14.7819 
  13   2.0000      -0.540037       -14.6952 
  14   2.0000      -0.497802       -13.5459 
  15   2.0000      -0.488149       -13.2832 
  16   2.0000      -0.472459       -12.8563 
  17   2.0000      -0.432241       -11.7619 
  18   2.0000      -0.424298       -11.5457 
  19   2.0000      -0.413059       -11.2399 
  20   2.0000      -0.332383        -9.0446 
  21   0.0000       0.138904         3.7798 
  22   0.0000       0.172675         4.6987 
  23   0.0000       0.176717         4.8087 
  24   0.0000       0.189586         5.1589 
  25   0.0000       0.213660         5.8140 
  26   0.0000       0.228811         6.2263 
  27   0.0000       0.232410         6.3242 
  28   0.0000       0.246891         6.7182 
  29   0.0000       0.254302         6.9199 
  30   0.0000       0.262614         7.1461 
  31   0.0000       0.288728         7.8567 
  32   0.0000       0.316992         8.6258 
  33   0.0000       0.357507         9.7282 
  34   0.0000       0.370666        10.0863 
  35   0.0000       0.380482        10.3534 
  36   0.0000       0.508080        13.8256 
  37   0.0000       0.520267        14.1572 
  38   0.0000       0.540836        14.7169 
  39   0.0000       0.560088        15.2408 
  40   0.0000       0.568927        15.4813 
  41   0.0000       0.603177        16.4133 
  42   0.0000       0.662668        18.0321 
  43   0.0000       0.711673        19.3656 
  44   0.0000       0.732411        19.9299 
  45   0.0000       0.741175        20.1684 
  46   0.0000       0.755512        20.5585 
  47   0.0000       0.768059        20.9000 
  48   0.0000       0.768520        20.9125 
  49   0.0000       0.786248        21.3949 
  50   0.0000       0.791480        21.5373 
  51   0.0000       0.798214        21.7205 
  52   0.0000       0.809092        22.0165 
  53   0.0000       0.819698        22.3051 
  54   0.0000       0.825910        22.4742 
  55   0.0000       0.834866        22.7179 
  56   0.0000       0.841154        22.8890 
  57   0.0000       0.851078        23.1590 
  58   0.0000       0.883332        24.0367 
  59   0.0000       0.885998        24.1092 
  60   0.0000       0.951540        25.8927 
  61   0.0000       0.997803        27.1516 
  62   0.0000       1.043808        28.4035 
  63   0.0000       1.089332        29.6422 
  64   0.0000       1.155577        31.4448 
  65   0.0000       1.181336        32.1458 
  66   0.0000       1.231846        33.5202 
  67   0.0000       1.348853        36.7042 
  68   0.0000       1.353049        36.8183 
  69   0.0000       1.396654        38.0049 
  70   0.0000       1.427127        38.8341 
  71   0.0000       1.455501        39.6062 
  72   0.0000       1.499967        40.8162 
  73   0.0000       1.628033        44.3010 
  74   0.0000       1.653446        44.9926 
  75   0.0000       1.667405        45.3724 
  76   0.0000       1.706342        46.4319 
  77   0.0000       1.790267        48.7156 
  78   0.0000       1.830817        49.8191 
  79   0.0000       1.837386        49.9978 
  80   0.0000       1.865562        50.7645 
  81   0.0000       1.899456        51.6868 
  82   0.0000       1.908448        51.9315 
  83   0.0000       1.913813        52.0775 
  84   0.0000       1.919968        52.2450 
  85   0.0000       1.928661        52.4815 
  86   0.0000       1.943928        52.8970 
  87   0.0000       1.970823        53.6288 
  88   0.0000       1.993946        54.2580 
  89   0.0000       2.005045        54.5600 
  90   0.0000       2.014866        54.8273 
  91   0.0000       2.043292        55.6008 
  92   0.0000       2.045162        55.6517 
  93   0.0000       2.081142        56.6308 
  94   0.0000       2.087823        56.8126 
  95   0.0000       2.130732        57.9802 
  96   0.0000       2.214169        60.2506 
  97   0.0000       2.259150        61.4746 
  98   0.0000       2.264875        61.6304 
  99   0.0000       2.289560        62.3021 
 100   0.0000       2.361496        64.2596 
 101   0.0000       2.420879        65.8755 
 102   0.0000       2.446809        66.5810 
 103   0.0000       2.473059        67.2954 
 104   0.0000       2.530518        68.8589 
 105   0.0000       2.565760        69.8179 
 106   0.0000       2.576971        70.1229 
 107   0.0000       2.634034        71.6757 
 108   0.0000       2.706284        73.6417 
 109   0.0000       2.741629        74.6035 
 110   0.0000       2.756139        74.9984 
 111   0.0000       2.817727        76.6743 
 112   0.0000       2.877802        78.3090 
 113   0.0000       2.905423        79.0606 
 114   0.0000       2.966766        80.7298 
 115   0.0000       3.013888        82.0121 
 116   0.0000       3.029570        82.4388 
 117   0.0000       3.085194        83.9524 
 118   0.0000       3.107884        84.5698 
 119   0.0000       3.124841        85.0312 
 120   0.0000       3.149268        85.6959 
 121   0.0000       3.188101        86.7526 
 122   0.0000       3.237288        88.0911 
 123   0.0000       3.359464        91.4157 
 124   0.0000       3.531011        96.0837 

                    ********************************
                    * MULLIKEN POPULATION ANALYSIS *
                    ********************************

-----------------------
MULLIKEN ATOMIC CHARGES
-----------------------
   0 C :   -0.018232
   1 C :   -0.062342
   2 H :    0.007422
   3 H :    0.026299
   4 H :    0.024267
   5 C :   -0.037911
   6 H :    0.006811
   7 H :    0.018633
   8 C :    0.071641
   9 H :    0.013319
  10 H :    0.015863
  11 N :   -0.248242
  12 H :   -0.008665
  13 H :    0.012245
  14 H :    0.081261
  15 H :    0.097629
Sum of atomic charges:   -0.0000000

--------------------------------
MULLIKEN REDUCED ORBITAL CHARGES
--------------------------------
  0 C s       :     2.985335  s :     2.985335
      pz      :     1.012599  p :     3.004163
      px      :     1.008935
      py      :     0.982629
      dz2     :     0.002361  d :     0.028734
      dxz     :     0.006684
      dyz     :     0.008583
      dx2y2   :     0.006413
      dxy     :     0.004693
  1 C s       :     3.035577  s :     3.035577
      pz      :     0.993174  p :     2.990274
      px      :     0.989461
      py      :     1.007639
      dz2     :     0.004023  d :     0.036491
      dxz     :     0.008308
      dyz     :     0.009545
      dx2y2   :     0.007580
      dxy     :     0.007035
  2 H s       :     0.968159  s :     0.968159
      pz      :     0.008740  p :     0.024419
      px      :     0.009289
      py      :     0.006390
  3 H s       :     0.949666  s :     0.949666
      pz      :     0.011244  p :     0.024035
      px      :     0.004969
      py      :     0.007822
  4 H s       :     0.951831  s :     0.951831
      pz      :     0.007141  p :     0.023902
      px      :     0.012496
      py      :     0.004265
  5 C s       :     3.026808  s :     3.026808
      pz      :     1.008691  p :     2.976448
      px      :     0.966567
      py      :     1.001190
      dz2     :     0.003169  d :     0.034655
      dxz     :     0.008967
      dyz     :     0.009185
      dx2y2   :     0.010272
      dxy     :     0.003062
  6 H s       :     0.970406  s :     0.970406
      pz      :     0.011027  p :     0.022783
      px      :     0.004239
      py      :     0.007516
  7 H s       :     0.958578  s :     0.958578
      pz      :     0.007481  p :     0.022788
      px      :     0.009397
      py      :     0.005910
  8 C s       :     2.987701  s :     2.987701
      pz      :     0.989900  p :     2.888410
      px      :     1.021862
      py      :     0.876648
      dz2     :     0.005401  d :     0.052249
      dxz     :     0.009857
      dyz     :     0.015714
      dx2y2   :     0.013597
      dxy     :     0.007680
  9 H s       :     0.963738  s :     0.963738
      pz      :     0.007820  p :     0.022943
      px      :     0.003815
      py      :     0.011307
 10 H s       :     0.961341  s :     0.961341
      pz      :     0.007491  p :     0.022795
      px      :     0.003516
      py      :     0.011788
 11 N s       :     3.413659  s :     3.413659
      pz      :     1.408121  p :     3.814687
      px      :     1.053656
      py      :     1.352910
      dz2     :     0.002679  d :     0.019896
      dxz     :     0.007223
      dyz     :     0.002373
      dx2y2   :     0.005413
      dxy     :     0.002207
 12 H s       :     0.987580  s :     0.987580
      pz      :     0.009169  p :     0.021084
      px      :     0.003841
      py      :     0.008074
 13 H s       :     0.966275  s :     0.966275
      pz      :     0.008241  p :     0.021480
      px      :     0.009489
      py      :     0.003750
 14 H s       :     0.872126  s :     0.872126
      pz      :     0.017261  p :     0.046613
      px      :     0.016871
      py      :     0.012481
 15 H s       :     0.856777  s :     0.856777
      pz      :     0.013412  p :     0.045595
      px      :     0.022056
      py      :     0.010126


                     *******************************
                     * LOEWDIN POPULATION ANALYSIS *
                     *******************************

----------------------
LOEWDIN ATOMIC CHARGES
----------------------
   0 C :   -0.057774
   1 C :   -0.045022
   2 H :    0.014919
   3 H :    0.024502
   4 H :    0.023725
   5 C :   -0.046116
   6 H :    0.016816
   7 H :    0.022659
   8 C :    0.016027
   9 H :    0.023401
  10 H :    0.022627
  11 N :   -0.126625
  12 H :   -0.003507
  13 H :    0.017996
  14 H :    0.043288
  15 H :    0.053086

-------------------------------
LOEWDIN REDUCED ORBITAL CHARGES
-------------------------------
  0 C s       :     2.826342  s :     2.826342
      pz      :     1.063489  p :     3.157725
      px      :     1.058269
      py      :     1.035967
      dz2     :     0.006099  d :     0.073708
      dxz     :     0.017639
      dyz     :     0.021353
      dx2y2   :     0.016830
      dxy     :     0.011787
  1 C s       :     2.830792  s :     2.830792
      pz      :     1.049826  p :     3.124755
      px      :     1.037185
      py      :     1.037744
      dz2     :     0.009737  d :     0.089475
      dxz     :     0.021695
      dyz     :     0.022835
      dx2y2   :     0.019336
      dxy     :     0.015872
  2 H s       :     0.918045  s :     0.918045
      pz      :     0.023070  p :     0.067036
      px      :     0.024962
      py      :     0.019004
  3 H s       :     0.908989  s :     0.908989
      pz      :     0.030127  p :     0.066509
      px      :     0.013313
      py      :     0.023069
  4 H s       :     0.909995  s :     0.909995
      pz      :     0.019217  p :     0.066280
      px      :     0.033526
      py      :     0.013537
  5 C s       :     2.836179  s :     2.836179
      pz      :     1.044420  p :     3.123026
      px      :     1.017056
      py      :     1.061550
      dz2     :     0.005545  d :     0.086911
      dxz     :     0.023891
      dyz     :     0.024344
      dx2y2   :     0.027053
      dxy     :     0.006079
  6 H s       :     0.917064  s :     0.917064
      pz      :     0.030475  p :     0.066120
      px      :     0.013247
      py      :     0.022399
  7 H s       :     0.911253  s :     0.911253
      pz      :     0.020813  p :     0.066089
      px      :     0.027381
      py      :     0.017895
  8 C s       :     2.832451  s :     2.832451
      pz      :     1.037419  p :     3.031367
      px      :     1.046063
      py      :     0.947885
      dz2     :     0.011223  d :     0.120155
      dxz     :     0.024726
      dyz     :     0.035828
      dx2y2   :     0.033642
      dxy     :     0.014736
  9 H s       :     0.909866  s :     0.909866
      pz      :     0.022641  p :     0.066733
      px      :     0.013683
      py      :     0.030409
 10 H s       :     0.909512  s :     0.909512
      pz      :     0.023075  p :     0.067861
      px      :     0.013125
      py      :     0.031662
 11 N s       :     3.124010  s :     3.124010
      pz      :     1.443893  p :     3.958462
      px      :     1.136808
      py      :     1.377761
      dz2     :     0.004178  d :     0.044153
      dxz     :     0.016200
      dyz     :     0.004857
      dx2y2   :     0.013546
      dxy     :     0.005372
 12 H s       :     0.939189  s :     0.939189
      pz      :     0.025915  p :     0.064318
      px      :     0.012607
      py      :     0.025795
 13 H s       :     0.918347  s :     0.918347
      pz      :     0.023658  p :     0.063658
      px      :     0.027968
      py      :     0.012031
 14 H s       :     0.832994  s :     0.832994
      pz      :     0.051700  p :     0.123718
      px      :     0.037847
      py      :     0.034171
 15 H s       :     0.824803  s :     0.824803
      pz      :     0.038311  p :     0.122111
      px      :     0.053905
      py      :     0.029896


                      *****************************
                      * MAYER POPULATION ANALYSIS *
                      *****************************

  NA   - Mulliken gross atomic population
  ZA   - Total nuclear charge
  QA   - Mulliken gross atomic charge
  VA   - Mayer's total valence
  BVA  - Mayer's bonded valence
  FA   - Mayer's free valence

  ATOM       NA         ZA         QA         VA         BVA        FA
  0 C      6.0182     6.0000    -0.0182     4.0129     4.0129    -0.0000
  1 C      6.0623     6.0000    -0.0623     4.0837     4.0837    -0.0000
  2 H      0.9926     1.0000     0.0074     0.9930     0.9930    -0.0000
  3 H      0.9737     1.0000     0.0263     0.9909     0.9909    -0.0000
  4 H      0.9757     1.0000     0.0243     0.9869     0.9869     0.0000
  5 C      6.0379     6.0000    -0.0379     4.0452     4.0452    -0.0000
  6 H      0.9932     1.0000     0.0068     0.9835     0.9835    -0.0000
  7 H      0.9814     1.0000     0.0186     0.9761     0.9761    -0.0000
  8 C      5.9284     6.0000     0.0716     4.0824     4.0824     0.0000
  9 H      0.9867     1.0000     0.0133     0.9791     0.9791    -0.0000
 10 H      0.9841     1.0000     0.0159     1.0025     1.0025    -0.0000
 11 N      7.2482     7.0000    -0.2482     3.0441     3.0441     0.0000
 12 H      1.0087     1.0000    -0.0087     0.9733     0.9733    -0.0000
 13 H      0.9878     1.0000     0.0122     0.9796     0.9796    -0.0000
 14 H      0.9187     1.0000     0.0813     1.0067     1.0067    -0.0000
 15 H      0.9024     1.0000     0.0976     0.9962     0.9962    -0.0000

  Mayer bond orders larger than 0.100000
B(  0-C ,  1-C ) :   1.0880 B(  0-C ,  2-H ) :   0.9749 B(  0-C ,  3-H ) :   0.9737 
B(  0-C ,  4-H ) :   0.9717 B(  1-C ,  5-C ) :   1.0637 B(  1-C ,  6-H ) :   0.9558 
B(  1-C ,  7-H ) :   0.9573 B(  5-C ,  8-C ) :   1.0725 B(  5-C ,  9-H ) :   0.9521 
B(  5-C , 10-H ) :   0.9485 B(  8-C , 11-N ) :   1.0733 B(  8-C , 12-H ) :   0.9485 
B(  8-C , 13-H ) :   0.9553 B( 11-N , 14-H ) :   0.9762 B( 11-N , 15-H ) :   0.9712 


-------
TIMINGS
-------

Total SCF time: 0 days 0 hours 0 min 25 sec 

Total time                  ....      25.825 sec
Sum of individual times     ....      25.245 sec  ( 97.8%)

Fock matrix formation       ....      24.158 sec  ( 93.5%)
  Split-RI-J                ....       1.158 sec  (  4.8% of F)
  Chain of spheres X        ....      18.366 sec  ( 76.0% of F)
  XC integration            ....       4.016 sec  ( 16.6% of F)
    Basis function eval.    ....       1.323 sec  ( 32.9% of XC)
    Density eval.           ....       0.705 sec  ( 17.5% of XC)
    XC-Functional eval.     ....       0.624 sec  ( 15.5% of XC)
    XC-Potential eval.      ....       0.766 sec  ( 19.1% of XC)
Diagonalization             ....       0.096 sec  (  0.4%)
Density matrix formation    ....       0.003 sec  (  0.0%)
Population analysis         ....       0.007 sec  (  0.0%)
Initial guess               ....       0.090 sec  (  0.3%)
Orbital Transformation      ....       0.000 sec  (  0.0%)
Orbital Orthonormalization  ....       0.000 sec  (  0.0%)
DIIS solution               ....       0.048 sec  (  0.2%)
SOSCF solution              ....       0.015 sec  (  0.1%)
Grid generation             ....       0.827 sec  (  3.2%)

Maximum memory used throughout the entire SCF-calculation: 49.8 MB


-------------------------------------------------------------------------------
                          DFT DISPERSION CORRECTION                            
                                                                               
                                 DFTD4 V2.5                                    
-------------------------------------------------------------------------------
The WB97X functional is recognized
Active option DFTDOPT                   ...         5   

Starting D4
-------------------------   ----------------
Dispersion correction           -0.001444514
-------------------------   ----------------


-------------------------   --------------------
FINAL SINGLE POINT ENERGY      -213.584989975803
-------------------------   --------------------



           ************************************************************
           *        Program running with 4 parallel MPI-processes     *
           *              working on a common directory               *
           ************************************************************
------------------------------------------------------------------------------
                         ORCA SCF GRADIENT CALCULATION
------------------------------------------------------------------------------

 ... reading COSX grid (gridx3)
Gradient of the Kohn-Sham DFT energy:
Kohn-Sham wavefunction type      ... RKS
Hartree-Fock exchange scaling    ...    0.158
Number of operators              ...    1
Number of atoms                  ...   16
Basis set dimensions             ...  125
Integral neglect threshold       ... 2.5e-11
Integral primitive cutoff        ... 2.5e-12
SHARK Integral package           ... ON

Nuc. rep. gradient       (SHARK) ... done (  0.0 sec)
HCore & Overlap gradient (SHARK) ... done (  0.0 sec)
RI-J gradient            (SHARK) ... done (  0.2 sec)
COSX-gradient                    ... done (  3.6 sec)
Exchange-correlation gradient    ... done
Dispersion correction            ... Starting D4
Starting D4
Starting D4
Starting D4


------------------- 
Dispersion Gradient 
------------------- 
   1  :   -0.000023234    0.000015661   -0.000006948
   2  :   -0.000015916   -0.000011326   -0.000000407
   3  :   -0.000006739   -0.000000791    0.000002102
   4  :   -0.000006589    0.000000006   -0.000002207
   5  :   -0.000007516    0.000002099   -0.000001100
   6  :    0.000000226   -0.000008172    0.000014481
   7  :   -0.000003470    0.000003061    0.000003734
   8  :   -0.000003685    0.000001196   -0.000000299
   9  :    0.000014956   -0.000018125    0.000002134
  10  :    0.000000541   -0.000001269    0.000000708
  11  :    0.000001420   -0.000003061   -0.000004662
  12  :    0.000024433    0.000013963   -0.000002876
  13  :    0.000004937    0.000003496    0.000002636
  14  :    0.000004250    0.000002351   -0.000000936
  15  :    0.000003803   -0.000000054   -0.000001193
  16  :    0.000012583    0.000000966   -0.000005167

  |G| =    0.000055448

done

------------------
CARTESIAN GRADIENT
------------------

   1   C   :   -0.001610852    0.011760537   -0.001610202
   2   C   :   -0.004431952   -0.010580889   -0.005487187
   3   H   :   -0.005553003   -0.006015535    0.006091886
   4   H   :    0.001467442   -0.006751654   -0.006520201
   5   H   :    0.007477427   -0.001643621    0.004742963
   6   C   :   -0.002902606    0.006698978    0.012942292
   7   H   :    0.000140075    0.006152771    0.005056207
   8   H   :    0.005278320    0.004198647   -0.001975579
   9   C   :    0.004181811   -0.009994817   -0.002262628
  10   H   :    0.000344848    0.005184597   -0.005346658
  11   H   :   -0.001040432   -0.005613418   -0.006743274
  12   N   :    0.001939168    0.001500615   -0.004365177
  13   H   :   -0.000001898    0.005009837    0.001144451
  14   H   :   -0.003621918    0.003238452   -0.002682714
  15   H   :    0.000171127   -0.001776608    0.004018632
  16   H   :   -0.002048044   -0.001481628    0.002904731

Difference to translation invariance:
           :   -0.0002104874   -0.0001137368   -0.0000924589

Difference to rotation invariance:
           :   -0.0003258911   -0.0004920485    0.0000727420

Norm of the cartesian gradient     ...    0.0358738127
RMS gradient                       ...    0.0051779389
MAX gradient                       ...    0.0129422919

-------
TIMINGS
-------

Total SCF gradient time            ...        5.139 sec

One electron gradient       ....       0.041 sec  (  0.8%)
RI-J Coulomb gradient       ....       0.223 sec  (  4.3%)
COSX gradient               ....       3.569 sec  ( 69.4%)
XC gradient                 ....       0.992 sec  ( 19.3%)

Maximum memory used throughout the entire SCFGRAD-calculation: 38.4 MB
------------------------------------------------------------------------------
                         ORCA GEOMETRY RELAXATION STEP
------------------------------------------------------------------------------

Reading the OPT-File                    .... done
Getting information on internals        .... done
Copying old internal coords+grads       .... done
Making the new internal coordinates     .... (new redundants).... done
Validating the new internal coordinates .... (new redundants).... done
Calculating the B-matrix                .... done
Calculating the G,G- and P matrices     .... done
Transforming gradient to internals      .... done
Projecting the internal gradient        .... done
Number of atoms                         ....  16
Number of internal coordinates          ....  75
Current Energy                          ....  -213.584989976 Eh
Current gradient norm                   ....     0.035873813 Eh/bohr
Maximum allowed component of the step   ....  0.300
Current trust radius                    ....  0.300
Evaluating the initial hessian          ....  (Almloef) done
Projecting the Hessian                  .... done
Forming the augmented Hessian           .... done
Diagonalizing the augmented Hessian     .... done
Last element of RFO vector              ....  0.983836621
Lowest eigenvalues of augmented Hessian:
 -0.002379545  0.010920492  0.011297196  0.011535686  0.016348871
Length of the computed step             ....  0.182010334
The final length of the internal step   ....  0.182010334
Converting the step to cartesian space:
 Initial RMS(Int)=    0.0210167431
Transforming coordinates:
 Iter   0:  RMS(Cart)=    0.0336324790 RMS(Int)=    0.0209662935
 Iter   1:  RMS(Cart)=    0.0005681586 RMS(Int)=    0.0003155513
 Iter   2:  RMS(Cart)=    0.0000203712 RMS(Int)=    0.0000099076
 Iter   3:  RMS(Cart)=    0.0000006216 RMS(Int)=    0.0000003801
 Iter   4:  RMS(Cart)=    0.0000000217 RMS(Int)=    0.0000000118
done
Storing new coordinates                 .... done

                                .--------------------.
          ----------------------|Geometry convergence|-------------------------
          Item                value                   Tolerance       Converged
          ---------------------------------------------------------------------
          RMS gradient        0.0029817511            0.0001000000      NO
          MAX gradient        0.0100278417            0.0003000000      NO
          RMS step            0.0210167431            0.0020000000      NO
          MAX step            0.0569306885            0.0040000000      NO
          ........................................................
          Max(Bonds)      0.0144      Max(Angles)    0.75
          Max(Dihed)        3.26      Max(Improp)    0.00
          ---------------------------------------------------------------------

The optimization has not yet converged - more geometry cycles are needed


    ---------------------------------------------------------------------------
                         Redundant Internal Coordinates
                            (Angstroem and degrees)

        Definition                    Value    dE/dq     Step     New-Value
    ----------------------------------------------------------------------------
     1. B(C   1,C   0)                1.5251 -0.003738  0.0052    1.5303   
     2. B(H   2,C   0)                1.0861 -0.010028  0.0144    1.1006   
     3. B(H   3,C   0)                1.0874 -0.009357  0.0135    1.1010   
     4. B(H   4,C   0)                1.0883 -0.008701  0.0126    1.1009   
     5. B(C   5,C   1)                1.5333 -0.002566  0.0037    1.5370   
     6. B(H   6,C   1)                1.0931 -0.007621  0.0113    1.1043   
     7. B(H   7,C   1)                1.0927 -0.006675  0.0098    1.1026   
     8. B(C   8,C   5)                1.5318  0.001266 -0.0018    1.5300   
     9. B(H   9,C   5)                1.0920 -0.007324  0.0108    1.1028   
    10. B(H  10,C   5)                1.0903 -0.008522  0.0125    1.1028   
    11. B(N  11,C   8)                1.4569 -0.002446  0.0029    1.4598   
    12. B(H  12,C   8)                1.1047 -0.004299  0.0066    1.1113   
    13. B(H  13,C   8)                1.0947 -0.005203  0.0077    1.1025   
    14. B(H  14,N  11)                1.0135 -0.003442  0.0042    1.0178   
    15. B(H  15,N  11)                1.0136 -0.003037  0.0037    1.0173   
    16. A(H   3,C   0,H   4)          108.42  0.001838   -0.29    108.13   
    17. A(C   1,C   0,H   4)          110.07 -0.002740    0.53    110.60   
    18. A(C   1,C   0,H   2)          111.81 -0.001701    0.29    112.10   
    19. A(H   2,C   0,H   3)          108.07  0.001836   -0.42    107.65   
    20. A(H   2,C   0,H   4)          108.11  0.002235   -0.38    107.73   
    21. A(C   1,C   0,H   3)          110.27 -0.001218    0.22    110.49   
    22. A(C   0,C   1,C   5)          114.27 -0.001735    0.50    114.77   
    23. A(H   6,C   1,H   7)          107.18  0.000949   -0.75    106.43   
    24. A(C   5,C   1,H   7)          108.21 -0.000235    0.28    108.48   
    25. A(C   0,C   1,H   7)          107.88  0.000130    0.21    108.08   
    26. A(C   5,C   1,H   6)          109.39  0.000848   -0.24    109.15   
    27. A(C   0,C   1,H   6)          109.66  0.000191   -0.07    109.58   
    28. A(C   8,C   5,H   9)          107.02 -0.000816    0.45    107.47   
    29. A(C   1,C   5,H   9)          108.28 -0.000199    0.34    108.62   
    30. A(C   1,C   5,C   8)          115.25 -0.000462    0.22    115.46   
    31. A(H   9,C   5,H  10)          107.94  0.000859   -0.54    107.41   
    32. A(C   8,C   5,H  10)          108.38  0.001078   -0.43    107.95   
    33. A(C   1,C   5,H  10)          109.73 -0.000381   -0.08    109.65   
    34. A(H  12,C   8,H  13)          107.42  0.000941   -0.60    106.82   
    35. A(N  11,C   8,H  13)          106.65 -0.001028    0.48    107.13   
    36. A(C   5,C   8,H  13)          108.33  0.000471   -0.05    108.27   
    37. A(N  11,C   8,H  12)          113.03 -0.000711    0.22    113.24   
    38. A(C   5,C   8,H  12)          108.93  0.001207   -0.37    108.56   
    39. A(C   5,C   8,N  11)          112.26 -0.000805    0.29    112.55   
    40. A(H  14,N  11,H  15)          107.30  0.002712   -0.64    106.65   
    41. A(C   8,N  11,H  15)          109.71 -0.002353    0.34    110.05   
    42. A(C   8,N  11,H  14)          109.98 -0.002334    0.34    110.31   
    43. D(H   6,C   1,C   0,H   4)     61.20  0.000528   -0.58     60.62   
    44. D(C   5,C   1,C   0,H   3)    -56.01  0.000314   -0.47    -56.48   
    45. D(H   7,C   1,C   0,H   3)     64.35 -0.000999    0.35     64.71   
    46. D(H   6,C   1,C   0,H   2)    -58.97  0.000675   -0.65    -59.62   
    47. D(C   5,C   1,C   0,H   4)   -175.58  0.000537   -0.58   -176.16   
    48. D(H   6,C   1,C   0,H   3)   -179.23  0.000306   -0.46   -179.69   
    49. D(H   7,C   1,C   0,H   4)    -55.21 -0.000776    0.24    -54.98   
    50. D(C   5,C   1,C   0,H   2)     64.24  0.000683   -0.65     63.59   
    51. D(H   7,C   1,C   0,H   2)   -175.39 -0.000630    0.17   -175.22   
    52. D(H   9,C   5,C   1,H   6)    -82.78 -0.000254    1.49    -81.29   
    53. D(C   8,C   5,C   1,H   7)    153.44 -0.000287    1.60    155.04   
    54. D(C   8,C   5,C   1,H   6)     36.99 -0.001746    2.46     39.45   
    55. D(C   8,C   5,C   1,C   0)    -86.38 -0.001405    2.38    -84.00   
    56. D(H   9,C   5,C   1,H   7)     33.67  0.001206    0.63     34.30   
    57. D(H  10,C   5,C   1,H   7)    -83.92  0.000503    1.12    -82.80   
    58. D(H  10,C   5,C   1,H   6)    159.63 -0.000956    1.98    161.62   
    59. D(H  10,C   5,C   1,C   0)     36.27 -0.000615    1.90     38.17   
    60. D(H   9,C   5,C   1,C   0)    153.86  0.000088    1.41    155.27   
    61. D(H  13,C   8,C   5,H   9)    -42.12 -0.001331   -1.42    -43.53   
    62. D(H  13,C   8,C   5,C   1)   -162.57 -0.000191   -2.32   -164.89   
    63. D(H  12,C   8,C   5,H  10)   -169.39  0.001822   -2.97   -172.36   
    64. D(H  12,C   8,C   5,H   9)     74.44  0.000699   -2.36     72.07   
    65. D(H  12,C   8,C   5,C   1)    -46.02  0.001839   -3.26    -49.28   
    66. D(N  11,C   8,C   5,H  10)    -43.43  0.001229   -2.76    -46.19   
    67. D(N  11,C   8,C   5,H   9)   -159.61  0.000107   -2.15   -161.76   
    68. D(H  13,C   8,C   5,H  10)     74.06 -0.000208   -2.03     72.04   
    69. D(N  11,C   8,C   5,C   1)     79.93  0.001246   -3.05     76.89   
    70. D(H  15,N  11,C   8,C   5)    173.85 -0.000387   -0.21    173.65   
    71. D(H  14,N  11,C   8,H  13)    173.15  0.000643   -0.99    172.17   
    72. D(H  14,N  11,C   8,H  12)     55.34  0.000547   -0.68     54.66   
    73. D(H  14,N  11,C   8,C   5)    -68.36  0.000118   -0.59    -68.94   
    74. D(H  15,N  11,C   8,H  13)     55.36  0.000138   -0.61     54.75   
    75. D(H  15,N  11,C   8,H  12)    -62.45  0.000042   -0.30    -62.75   
    ----------------------------------------------------------------------------

         *************************************************************
         *                GEOMETRY OPTIMIZATION CYCLE   2            *
         *************************************************************
---------------------------------
CARTESIAN COORDINATES (ANGSTROEM)
---------------------------------
  C     -1.751877    0.818570   -0.416725
  C     -1.287257   -0.567080    0.037007
  H     -1.025049    1.299461   -1.088835
  H     -1.893077    1.480962    0.451269
  H     -2.710250    0.749070   -0.954003
  C     -0.001627   -0.571421    0.879239
  H     -1.145143   -1.216902   -0.844499
  H     -2.096541   -1.021406    0.632259
  C      1.305507   -0.552882    0.084296
  H      0.005241   -1.478501    1.506394
  H      0.000577    0.298400    1.557129
  N      1.617320    0.769507   -0.449630
  H      1.255115   -1.340904   -0.697734
  H      2.127598   -0.830525    0.764365
  H      0.956275    1.019725   -1.181957
  H      2.539618    0.763659   -0.878955

----------------------------
CARTESIAN COORDINATES (A.U.)
----------------------------
  NO LB      ZA    FRAG     MASS         X           Y           Z
   0 C     6.0000    0    12.011   -3.310569    1.546873   -0.787496
   1 C     6.0000    0    12.011   -2.432563   -1.071626    0.069933
   2 H     1.0000    0     1.008   -1.937063    2.455626   -2.057601
   3 H     1.0000    0     1.008   -3.577397    2.798613    0.852775
   4 H     1.0000    0     1.008   -5.121629    1.415536   -1.802805
   5 C     6.0000    0    12.011   -0.003075   -1.079830    1.661522
   6 H     1.0000    0     1.008   -2.164006   -2.299612   -1.595872
   7 H     1.0000    0     1.008   -3.961888   -1.930178    1.194796
   8 C     6.0000    0    12.011    2.467051   -1.044795    0.159297
   9 H     1.0000    0     1.008    0.009905   -2.793962    2.846673
  10 H     1.0000    0     1.008    0.001091    0.563895    2.942547
  11 N     7.0000    0    14.007    3.056292    1.454157   -0.849677
  12 H     1.0000    0     1.008    2.371823   -2.533940   -1.318527
  13 H     1.0000    0     1.008    4.020578   -1.569465    1.444441
  14 H     1.0000    0     1.008    1.807097    1.927002   -2.233575
  15 H     1.0000    0     1.008    4.799183    1.443106   -1.660985

--------------------------------
INTERNAL COORDINATES (ANGSTROEM)
--------------------------------
 C      0   0   0     0.000000000000     0.00000000     0.00000000
 C      1   0   0     1.530284588817     0.00000000     0.00000000
 H      1   2   0     1.100576031389   112.09893366     0.00000000
 H      1   2   3     1.100960730669   110.48503017   239.92664206
 H      1   2   3     1.100897562980   110.60049794   120.24273178
 C      2   1   3     1.536951249809   114.77191107    63.59211975
 H      2   1   3     1.104317716995   109.58564147   300.37919725
 H      2   1   3     1.102577485914   108.07932191   184.78102200
 C      6   2   1     1.529992651220   115.46021064   276.00463479
 H      6   2   1     1.102798140143   108.61280841   155.26730877
 H      6   2   1     1.102782397897   109.65146299    38.17176933
 N      9   6   2     1.459800133934   112.55058475    76.88718555
 H      9   6   2     1.111345716634   108.55906254   310.71837754
 H      9   6   2     1.102458153068   108.27110181   195.10868688
 H     12   9   6     1.017788655624   110.31257810   291.05692461
 H     12   9   6     1.017343882982   110.04677390   173.64644095

---------------------------
INTERNAL COORDINATES (A.U.)
---------------------------
 C      0   0   0     0.000000000000     0.00000000     0.00000000
 C      1   0   0     2.891818779825     0.00000000     0.00000000
 H      1   2   0     2.079787288883   112.09893366     0.00000000
 H      1   2   3     2.080514265167   110.48503017   239.92664206
 H      1   2   3     2.080394895533   110.60049794   120.24273178
 C      2   1   3     2.904416943327   114.77191107    63.59211975
 H      2   1   3     2.086858049958   109.58564147   300.37919725
 H      2   1   3     2.083569489804   108.07932191   184.78102200
 C      6   2   1     2.891267097719   115.46021064   276.00463479
 H      6   2   1     2.083986465869   108.61280841   155.26730877
 H      6   2   1     2.083956717334   109.65146299    38.17176933
 N      9   6   2     2.758622463396   112.55058475    76.88718555
 H      9   6   2     2.100139044545   108.55906254   310.71837754
 H      9   6   2     2.083343983407   108.27110181   195.10868688
 H     12   9   6     1.923341821340   110.31257810   291.05692461
 H     12   9   6     1.922501322856   110.04677390   173.64644095



           ************************************************************
           *        Program running with 4 parallel MPI-processes     *
           *              working on a common directory               *
           ************************************************************
------------------------------------------------------------------------------
                   ___                                                        
                  /   \      - P O W E R E D   B Y -                         
                 /     \                                                     
                 |  |  |   _    _      __       _____    __    __             
                 |  |  |  | |  | |    /  \     |  _  \  |  |  /  |          
                  \  \/   | |  | |   /    \    | | | |  |  | /  /          
                 / \  \   | |__| |  /  /\  \   | |_| |  |  |/  /          
                |  |  |   |  __  | /  /__\  \  |    /   |      \           
                |  |  |   | |  | | |   __   |  |    \   |  |\   \          
                \     /   | |  | | |  |  |  |  | |\  \  |  | \   \       
                 \___/    |_|  |_| |__|  |__|  |_| \__\ |__|  \__/        
[...]
     37      -0.204667  -0.036086   0.025729   0.015962   0.224775   0.090818
     38       0.218858   0.053462  -0.065389  -0.011788  -0.438656  -0.191813
     39      -0.279833  -0.071367  -0.036801   0.034309  -0.090129  -0.067660
     40      -0.125370  -0.147778   0.116388  -0.028673   0.573623   0.270754
     41       0.392312   0.098338   0.062019  -0.042910   0.177911   0.104690
     42       0.077745   0.016988   0.013290  -0.022613   0.026910   0.003937
     43       0.146254   0.063090   0.021952  -0.014796   0.021132  -0.021887
     44      -0.082099  -0.028032  -0.010308   0.012870  -0.016234   0.000347
     45       0.005730   0.004673  -0.003610   0.012673  -0.011486   0.002051
     46      -0.219203  -0.072182  -0.011295   0.003380   0.047363   0.018211
     47       0.103503   0.031019  -0.009037   0.025230  -0.051056  -0.008033
                 36         37         38         39         40         41    
      0       0.000344  -0.000220  -0.004405  -0.005009  -0.027193  -0.003032
      1       0.003053   0.000134   0.001530   0.009761   0.044381  -0.001862
      2       0.000179  -0.000158  -0.004533  -0.000817  -0.002317   0.006328
      3       0.001206   0.000065   0.014738  -0.006087   0.003432   0.038042
      4       0.000183  -0.001108   0.054783  -0.000961  -0.006463   0.011851
      5      -0.000554  -0.000854   0.044979   0.010916  -0.008913  -0.039877
      6       0.021700   0.001012  -0.032937  -0.080367  -0.328175   0.050685
      7      -0.033811  -0.000650  -0.022171  -0.057527  -0.235447   0.037010
      8      -0.012563   0.000630   0.015219   0.043505   0.178924  -0.026594
      9      -0.022854   0.000858   0.006480   0.038045   0.183661   0.009874
     10      -0.016740  -0.001661  -0.012437  -0.058459  -0.284247  -0.017054
     11       0.001311  -0.001537  -0.023281  -0.113632  -0.532241  -0.032398
     12      -0.008417   0.001690   0.078683   0.098453   0.456195  -0.023414
     13      -0.000493  -0.000085   0.006684   0.004745   0.013962   0.000204
     14       0.011578   0.001907   0.063100   0.081566   0.376347  -0.016704
     15      -0.007245   0.001652  -0.001186   0.002528  -0.000068  -0.000718
     16       0.003646  -0.004660  -0.007291   0.002403   0.000366  -0.011439
     17      -0.000261   0.000656   0.003462  -0.067788   0.013804   0.000851
     18       0.011510  -0.006580   0.164036   0.014882  -0.022268  -0.044450
     19       0.007550   0.008385  -0.431658  -0.045274   0.063652   0.135382
     20      -0.004820   0.010959  -0.748090  -0.075703   0.104399   0.224300
     21       0.004824   0.002967  -0.330280   0.069345  -0.014474  -0.408160
     22       0.009663   0.002129  -0.210555   0.047651  -0.008158  -0.272715
     23       0.012582  -0.003811   0.213966  -0.046239   0.006622   0.250081
     24       0.009560  -0.019454  -0.001290   0.006227  -0.001534   0.046696
     25      -0.023686   0.065277   0.000148   0.001340  -0.000559   0.006654
     26      -0.011951   0.035715  -0.000357   0.009417  -0.002504   0.049316
     27       0.035416  -0.005377   0.003354  -0.008080  -0.000303   0.003186
     28      -0.000016   0.037273   0.083404  -0.557055   0.106722   0.084763
     29      -0.002514  -0.021905  -0.049236   0.337715  -0.065803  -0.054023
     30      -0.007576  -0.000385  -0.001286  -0.020708   0.002748  -0.000033
     31      -0.002988   0.022904   0.005666   0.534618  -0.111287   0.052047
     32       0.006888   0.022025   0.007519   0.452071  -0.095491   0.044671
     33       0.018946   0.000048   0.000206   0.000021   0.000330  -0.001206
     34       0.047603   0.001190   0.000030   0.000089  -0.000090   0.000374
     35      -0.060865  -0.001195   0.000004   0.000025  -0.000039  -0.001049
     36      -0.035120   0.075664   0.003894   0.005580  -0.001600   0.016166
     37      -0.042662  -0.801026  -0.005872  -0.024110   0.009141  -0.108729
     38      -0.002674  -0.550961  -0.005051  -0.015749   0.005936  -0.070850
     39       0.002987   0.139999   0.012290  -0.090694   0.021511  -0.562872
     40       0.063951   0.004707  -0.001178   0.004840  -0.001167   0.022256
     41       0.001845   0.141986   0.009510  -0.088353   0.021553  -0.511410
     42      -0.547693   0.010017  -0.000364   0.000719   0.000595   0.006344
     43      -0.263858  -0.000890   0.001735   0.000080  -0.001258   0.002347
     44       0.353404  -0.000023  -0.002260   0.000900  -0.001031   0.009466
     45       0.235879  -0.006566  -0.000353   0.000432  -0.000245   0.004395
     46      -0.181846   0.001708   0.000080  -0.000209  -0.000159  -0.002712
     47       0.630716  -0.003994  -0.000389  -0.001232   0.000490   0.000027
                 42         43         44         45         46         47    
      0       0.003891   0.002320  -0.018177  -0.083617   0.000081   0.000180
      1       0.002818   0.001988  -0.022437  -0.031916   0.000101   0.000200
      2      -0.009075   0.002261  -0.088168   0.023462   0.000000  -0.000064
      3      -0.047606  -0.007004   0.004795  -0.006621   0.000039   0.000112
      4      -0.014587  -0.006459  -0.001925  -0.002407   0.000086   0.000129
      5       0.048252   0.001933  -0.009068   0.005809   0.000080   0.000042
      6      -0.072059  -0.014432  -0.089408   0.640900  -0.001086  -0.002017
      7      -0.052051  -0.009580  -0.068741   0.479077  -0.000763  -0.002304
      8       0.037601   0.007250   0.033619  -0.352960   0.001617   0.001976
      9      -0.012665   0.004810  -0.218572   0.055451  -0.000012  -0.000331
     10       0.021995  -0.006890   0.329690  -0.109735   0.000135   0.000035
     11       0.042502  -0.016593   0.601221  -0.189798  -0.000182   0.000146
     12       0.037373  -0.021020   0.522993   0.310463  -0.001416  -0.001206
     13      -0.000469  -0.000411   0.010008   0.006173  -0.000196  -0.000170
     14       0.027090  -0.016304   0.415588   0.262227  -0.000480  -0.000331
     15      -0.000545   0.001048   0.000225   0.000280  -0.000268   0.000226
     16       0.001988  -0.092788  -0.003107  -0.001318   0.000240  -0.000057
     17       0.015158  -0.004607  -0.001055   0.000132  -0.000084  -0.000116
     18       0.051997  -0.004528  -0.016700   0.006389   0.000302   0.000284
     19      -0.165736   0.012024   0.047585  -0.016530  -0.000899  -0.000706
     20      -0.274372   0.025924   0.076699  -0.026484  -0.001128  -0.001107
     21       0.503495   0.087970  -0.042189   0.068290  -0.000060  -0.000189
     22       0.334600   0.059056  -0.028582   0.048788  -0.000074  -0.000313
     23      -0.307149  -0.053813   0.027010  -0.043622  -0.000035   0.000017
     24       0.037276  -0.003574  -0.000422   0.000359  -0.000119  -0.001280
     25       0.005790  -0.005415  -0.000190  -0.000244  -0.003446   0.000351
     26       0.038967  -0.007172  -0.000607   0.000130  -0.000775  -0.000930
     27       0.002315   0.009208  -0.000221  -0.000083   0.001278  -0.000505
     28       0.100812   0.608300   0.012483   0.009518  -0.000372   0.000113
     29      -0.064152  -0.384062  -0.006819  -0.005965  -0.000236   0.000177
     30       0.004359  -0.020409   0.001299  -0.000234  -0.000195  -0.000019
     31      -0.119648   0.501358   0.024292   0.005104   0.000433   0.000392
     32      -0.102619   0.442759   0.023107   0.005258   0.000299   0.000079
     33      -0.000823   0.000162   0.000068  -0.000983   0.012135  -0.077183
     34       0.000230   0.000344   0.000002   0.000057   0.006092  -0.007727
     35      -0.000864   0.000054  -0.000058  -0.000065  -0.056928  -0.021723
     36       0.015621  -0.008098  -0.001380  -0.000026   0.000314   0.000577
     37      -0.092242   0.054933   0.003437   0.001322   0.003658   0.002304
     38      -0.060780   0.038450   0.002639   0.001068   0.007361   0.001429
     39      -0.445493   0.051360   0.005212  -0.002499   0.004199   0.010325
     40       0.015977  -0.000486   0.000022   0.000258   0.001082  -0.000590
     41      -0.402920   0.046532   0.004845  -0.002573   0.004801   0.008053
     42       0.006238  -0.001092   0.000052   0.002361   0.443987   0.344318
     43       0.003367  -0.000822  -0.000476   0.001313   0.022166   0.027646
     44       0.005428  -0.001313   0.000963   0.002770   0.625659   0.532142
     45       0.003479  -0.000106  -0.000232   0.000288  -0.612751   0.730363
     46      -0.002233   0.001160  -0.000172   0.001513  -0.073857   0.073543
     47      -0.000385   0.000806   0.000373  -0.000914   0.162661  -0.227988


-----------
IR SPECTRUM
-----------

 Mode   freq       eps      Int      T**2         TX        TY        TZ
       cm**-1   L/(mol*cm) km/mol    a.u.
----------------------------------------------------------------------------
  6:     95.89   0.000127    0.64  0.000412  (-0.003208  0.015405 -0.012831)
  7:    161.64   0.001417    7.16  0.002736  (-0.050756 -0.006520 -0.010839)
  8:    216.20   0.000095    0.48  0.000137  (-0.006351  0.001495 -0.009700)
  9:    257.54   0.008538   43.15  0.010346  ( 0.099219  0.011398  0.019276)
 10:    333.95   0.004382   22.15  0.004095  ( 0.059096  0.024412  0.002599)
 11:    366.07   0.000276    1.39  0.000235  (-0.012024 -0.009508  0.000486)
 12:    483.70   0.000914    4.62  0.000590  (-0.014345 -0.019568  0.001132)
 13:    768.22   0.000545    2.75  0.000221  (-0.011190 -0.003216  0.009263)
 14:    833.94   0.002506   12.67  0.000938  ( 0.008993 -0.029272 -0.000455)
 15:    853.66   0.005628   28.44  0.002057  (-0.011533 -0.043860  0.000779)
 16:    855.07   0.016038   81.05  0.005853  ( 0.014909 -0.074064 -0.012055)
 17:    954.49   0.000254    1.28  0.000083  ( 0.008796 -0.002161  0.000994)
 18:    988.84   0.002799   14.15  0.000883  (-0.006612  0.028977 -0.000250)
 19:   1072.98   0.000650    3.29  0.000189  (-0.002328  0.009974 -0.009176)
 20:   1090.63   0.000304    1.53  0.000087  ( 0.002460 -0.001428 -0.008876)
 21:   1143.30   0.001765    8.92  0.000482  (-0.000035 -0.018458 -0.011873)
 22:   1162.87   0.002050   10.36  0.000550  (-0.005806 -0.020435  0.009935)
 23:   1217.08   0.000341    1.72  0.000087  (-0.005064 -0.007125  0.003304)
 24:   1253.31   0.000548    2.77  0.000136  (-0.009310  0.004963  0.005012)
 25:   1302.49   0.000235    1.19  0.000056  ( 0.005109  0.000792 -0.005434)
 26:   1354.76   0.000743    3.75  0.000171  (-0.000702  0.007508 -0.010686)
 27:   1363.62   0.000375    1.90  0.000086  ( 0.007846  0.003066 -0.003866)
 28:   1400.02   0.000093    0.47  0.000021  (-0.004525 -0.000215 -0.000454)
 29:   1415.87   0.001485    7.51  0.000327  ( 0.009772 -0.014971  0.002788)
 30:   1441.28   0.002283   11.54  0.000494  ( 0.009586  0.015009 -0.013313)
 31:   1458.47   0.001332    6.73  0.000285  ( 0.003288  0.001772 -0.016466)
 32:   1471.78   0.000865    4.37  0.000183  (-0.004102 -0.001826  0.012773)
 33:   1477.70   0.000362    1.83  0.000077  (-0.002085 -0.005832 -0.006177)
 34:   1487.38   0.000998    5.04  0.000209  (-0.013470 -0.005277  0.000084)
 35:   1493.80   0.000641    3.24  0.000134  ( 0.007522  0.007014  0.005307)
 36:   1647.02   0.006827   34.50  0.001293  (-0.014697 -0.004830  0.032467)
 37:   2980.85   0.015394   77.80  0.001612  (-0.011738  0.036898  0.010601)
 38:   3049.18   0.006779   34.26  0.000694  ( 0.004673  0.021226  0.014882)
 39:   3064.39   0.004199   21.22  0.000428  (-0.003334  0.007984 -0.018781)
 40:   3067.60   0.004208   21.27  0.000428  (-0.014969  0.014205 -0.001497)
 41:   3106.61   0.007332   37.05  0.000736  ( 0.026445  0.001383  0.005933)
 42:   3110.34   0.006423   32.46  0.000644  (-0.002497 -0.002516  0.025137)
 43:   3123.91   0.006552   33.11  0.000655  ( 0.000004 -0.025556 -0.001185)
 44:   3155.30   0.005833   29.48  0.000577  (-0.005602 -0.005878 -0.022604)
 45:   3184.09   0.002938   14.85  0.000288  (-0.015247 -0.005060  0.005468)
 46:   3565.20   0.000137    0.69  0.000012  (-0.001992  0.001245  0.002553)
 47:   3644.78   0.000439    2.22  0.000038  ( 0.005761  0.000845  0.001915)

* The epsilon (eps) is given for a Dirac delta lineshape.
** The dipole moment derivative (T) already includes vibrational overlap.

The first frequency considered to be a vibration is 6
The total number of vibrations considered is 42


--------------------------
THERMOCHEMISTRY AT 298.15K
--------------------------

Temperature         ... 298.15 K
Pressure            ... 1.00 atm
Total Mass          ... 73.14 AMU

Throughout the following assumptions are being made:
  (1) The electronic state is orbitally nondegenerate
  (2) There are no thermally accessible electronically excited states
  (3) Hindered rotations indicated by low frequency modes are not
      treated as such but are treated as vibrations and this may
      cause some error
  (4) All equations used are the standard statistical mechanics
      equations for an ideal gas
  (5) All vibrations are strictly harmonic

freq.      95.89  E(vib)   ...       0.47 
freq.     161.64  E(vib)   ...       0.39 
freq.     216.20  E(vib)   ...       0.34 
freq.     257.54  E(vib)   ...       0.30 
freq.     333.95  E(vib)   ...       0.24 
freq.     366.07  E(vib)   ...       0.22 
freq.     483.70  E(vib)   ...       0.15 
freq.     768.22  E(vib)   ...       0.06 
freq.     833.94  E(vib)   ...       0.04 
freq.     853.66  E(vib)   ...       0.04 
freq.     855.07  E(vib)   ...       0.04 
freq.     954.49  E(vib)   ...       0.03 
freq.     988.84  E(vib)   ...       0.02 
freq.    1072.98  E(vib)   ...       0.02 
freq.    1090.63  E(vib)   ...       0.02 
freq.    1143.30  E(vib)   ...       0.01 
freq.    1162.87  E(vib)   ...       0.01 
freq.    1217.08  E(vib)   ...       0.01 
freq.    1253.31  E(vib)   ...       0.01 
freq.    1302.49  E(vib)   ...       0.01 
freq.    1354.76  E(vib)   ...       0.01 
freq.    1363.62  E(vib)   ...       0.01 
freq.    1400.02  E(vib)   ...       0.00 
freq.    1415.87  E(vib)   ...       0.00 
freq.    1441.28  E(vib)   ...       0.00 
freq.    1458.47  E(vib)   ...       0.00 
freq.    1471.78  E(vib)   ...       0.00 
freq.    1477.70  E(vib)   ...       0.00 
freq.    1487.38  E(vib)   ...       0.00 
freq.    1493.80  E(vib)   ...       0.00 
freq.    1647.02  E(vib)   ...       0.00 
freq.    2980.85  E(vib)   ...       0.00 
freq.    3049.18  E(vib)   ...       0.00 
freq.    3064.39  E(vib)   ...       0.00 
freq.    3067.60  E(vib)   ...       0.00 
freq.    3106.61  E(vib)   ...       0.00 
freq.    3110.34  E(vib)   ...       0.00 
freq.    3123.91  E(vib)   ...       0.00 
freq.    3155.30  E(vib)   ...       0.00 
freq.    3184.09  E(vib)   ...       0.00 
freq.    3565.20  E(vib)   ...       0.00 
freq.    3644.78  E(vib)   ...       0.00 

------------
INNER ENERGY
------------

The inner energy is: U= E(el) + E(ZPE) + E(vib) + E(rot) + E(trans)
    E(el)   - is the total energy from the electronic structure calculation
              = E(kin-el) + E(nuc-el) + E(el-el) + E(nuc-nuc)
    E(ZPE)  - the the zero temperature vibrational energy from the frequency calculation
    E(vib)  - the the finite temperature correction to E(ZPE) due to population
              of excited vibrational states
    E(rot)  - is the rotational thermal energy
    E(trans)- is the translational thermal energy

Summary of contributions to the inner energy U:
Electronic energy                ...   -213.58771590 Eh
Zero point energy                ...      0.15144308 Eh      95.03 kcal/mol
Thermal vibrational correction   ...      0.00390752 Eh       2.45 kcal/mol
Thermal rotational correction    ...      0.00141627 Eh       0.89 kcal/mol
Thermal translational correction ...      0.00141627 Eh       0.89 kcal/mol
-----------------------------------------------------------------------
Total thermal energy                   -213.42953276 Eh


Summary of corrections to the electronic energy:
(perhaps to be used in another calculation)
Total thermal correction                  0.00674006 Eh       4.23 kcal/mol
Non-thermal (ZPE) correction              0.15144308 Eh      95.03 kcal/mol
-----------------------------------------------------------------------
Total correction                          0.15818314 Eh      99.26 kcal/mol


--------
ENTHALPY
--------

The enthalpy is H = U + kB*T
                kB is Boltzmann's constant
Total free energy                 ...   -213.42953276 Eh 
Thermal Enthalpy correction       ...      0.00094421 Eh       0.59 kcal/mol
-----------------------------------------------------------------------
Total Enthalpy                    ...   -213.42858855 Eh


Note: Only C1 symmetry has been detected, increase convergence thresholds 
      if your molecule has a higher symmetry. Symmetry factor of 1.0 is   
      used for the rotational entropy correction. 
 

Note: Rotational entropy computed according to Herzberg 
Infrared and Raman Spectra, Chapter V,1, Van Nostrand Reinhold, 1945 
Point Group:  C1, Symmetry Number:   1  
Rotational constants in cm-1:     0.247528     0.111405     0.086480 

Vibrational entropy computed according to the QRRHO of S. Grimme
Chem.Eur.J. 2012 18 9955


-------
ENTROPY
-------

The entropy contributions are T*S = T*(S(el)+S(vib)+S(rot)+S(trans))
     S(el)   - electronic entropy
     S(vib)  - vibrational entropy
     S(rot)  - rotational entropy
     S(trans)- translational entropy
The entropies will be listed as multiplied by the temperature to get
units of energy

Electronic entropy                ...      0.00000000 Eh      0.00 kcal/mol
Vibrational entropy               ...      0.00659625 Eh      4.14 kcal/mol
Rotational entropy                ...      0.01236160 Eh      7.76 kcal/mol
Translational entropy             ...      0.01842822 Eh     11.56 kcal/mol
-----------------------------------------------------------------------
Final entropy term                ...      0.03738607 Eh     23.46 kcal/mol

In case the symmetry of your molecule has not been determined correctly
or in case you have a reason to use a different symmetry number we print 
out the resulting rotational entropy values for sn=1,12 :
 --------------------------------------------------------
|  sn= 1 | S(rot)=       0.01236160 Eh      7.76 kcal/mol|
|  sn= 2 | S(rot)=       0.01170715 Eh      7.35 kcal/mol|
|  sn= 3 | S(rot)=       0.01132431 Eh      7.11 kcal/mol|
|  sn= 4 | S(rot)=       0.01105269 Eh      6.94 kcal/mol|
|  sn= 5 | S(rot)=       0.01084200 Eh      6.80 kcal/mol|
|  sn= 6 | S(rot)=       0.01066986 Eh      6.70 kcal/mol|
|  sn= 7 | S(rot)=       0.01052431 Eh      6.60 kcal/mol|
|  sn= 8 | S(rot)=       0.01039823 Eh      6.52 kcal/mol|
|  sn= 9 | S(rot)=       0.01028703 Eh      6.46 kcal/mol|
|  sn=10 | S(rot)=       0.01018755 Eh      6.39 kcal/mol|
|  sn=11 | S(rot)=       0.01009756 Eh      6.34 kcal/mol|
|  sn=12 | S(rot)=       0.01001540 Eh      6.28 kcal/mol|
 --------------------------------------------------------


-------------------
GIBBS FREE ENERGY
-------------------

The Gibbs free energy is G = H - T*S

Total enthalpy                    ...   -213.42858855 Eh 
Total entropy correction          ...     -0.03738607 Eh    -23.46 kcal/mol
-----------------------------------------------------------------------
Final Gibbs free energy         ...   -213.46597462 Eh

For completeness - the Gibbs free energy minus the electronic energy
G-E(el)                           ...      0.12174128 Eh     76.39 kcal/mol


Timings for individual modules:

Sum of individual times         ...      348.050 sec (=   5.801 min)
GTO integral calculation        ...        5.892 sec (=   0.098 min)   1.7 %
SCF iterations                  ...      209.187 sec (=   3.486 min)  60.1 %
SCF Gradient evaluation         ...       59.431 sec (=   0.991 min)  17.1 %
Geometry relaxation             ...        0.446 sec (=   0.007 min)   0.1 %
Analytical frequency calculation...       73.094 sec (=   1.218 min)  21.0 %
                             ****ORCA TERMINATED NORMALLY****
TOTAL RUN TIME: 0 days 0 hours 5 minutes 52 seconds 227 msec
