
                                 *****************
                                 * O   R   C   A *
                                 *****************

                                            #,                                       
                                            ###                                      
                                            ####                                     
                                            #####                                    
                                            ######                                   
                                           ########,                                 
                                     ,,################,,,,,                         
                               ,,#################################,,                 
                          ,,##########################################,,             
                       ,#########################################, ''#####,          
                    ,#############################################,,   '####,        
                  ,##################################################,,,,####,       
                ,###########''''           ''''###############################       
              ,#####''   ,,,,##########,,,,          '''####'''          '####       
            ,##' ,,,,###########################,,,                        '##       
           ' ,,###''''                  '''############,,,                           
         ,,##''                                '''############,,,,        ,,,,,,###''
      ,#''                                            '''#######################'''  
     '                                                          ''''####''''         
             ,#######,   #######,   ,#######,      ##                                
            ,#'     '#,  ##    ##  ,#'     '#,    #''#        ######   ,####,        
            ##       ##  ##   ,#'  ##            #'  '#       #        #'  '#        
            ##       ##  #######   ##           ,######,      #####,   #    #        
            '#,     ,#'  ##    ##  '#,     ,#' ,#      #,         ##   #,  ,#        
             '#######'   ##     ##  '#######'  #'      '#     #####' # '####'        



                  #######################################################
                  #                        -***-                        #
                  #          Department of theory and spectroscopy      #
                  #    Directorship and core code : Frank Neese         #
                  #        Max Planck Institute fuer Kohlenforschung    #
                  #                Kaiser Wilhelm Platz 1               #
                  #                 D-45470 Muelheim/Ruhr               #
                  #                      Germany                        #
                  #                                                     #
                  #                  All rights reserved                #
                  #                        -***-                        #
                  #######################################################


                         Program Version 5.0.4 -  RELEASE  -


 With contributions from (in alphabetic order):
   Daniel Aravena         : Magnetic Suceptibility
   Michael Atanasov       : Ab Initio Ligand Field Theory (pilot matlab implementation)
   Alexander A. Auer      : GIAO ZORA, VPT2 properties, NMR spectrum
   Ute Becker             : Parallelization
   Giovanni Bistoni       : ED, misc. LED, open-shell LED, HFLD
   Martin Brehm           : Molecular dynamics
   Dmytro Bykov           : SCF Hessian
   Vijay G. Chilkuri      : MRCI spin determinant printing, contributions to CSF-ICE
   Dipayan Datta          : RHF DLPNO-CCSD density
   Achintya Kumar Dutta   : EOM-CC, STEOM-CC
   Dmitry Ganyushin       : Spin-Orbit,Spin-Spin,Magnetic field MRCI
   Miquel Garcia          : C-PCM and meta-GGA Hessian, CC/C-PCM, Gaussian charge scheme
   Yang Guo               : DLPNO-NEVPT2, F12-NEVPT2, CIM, IAO-localization
   Andreas Hansen         : Spin unrestricted coupled pair/coupled cluster methods
   Benjamin Helmich-Paris : MC-RPA, TRAH-SCF, COSX integrals
   Lee Huntington         : MR-EOM, pCC
   Robert Izsak           : Overlap fitted RIJCOSX, COSX-SCS-MP3, EOM
   Marcus Kettner         : VPT2
   Christian Kollmar      : KDIIS, OOCD, Brueckner-CCSD(T), CCSD density, CASPT2, CASPT2-K
   Simone Kossmann        : Meta GGA functionals, TD-DFT gradient, OOMP2, MP2 Hessian
   Martin Krupicka        : Initial AUTO-CI
   Lucas Lang             : DCDCAS
   Marvin Lechner         : AUTO-CI (C++ implementation), FIC-MRCC
   Dagmar Lenk            : GEPOL surface, SMD
   Dimitrios Liakos       : Extrapolation schemes; Compound Job, initial MDCI parallelization
   Dimitrios Manganas     : Further ROCIS development; embedding schemes
   Dimitrios Pantazis     : SARC Basis sets
   Anastasios Papadopoulos: AUTO-CI, single reference methods and gradients
   Taras Petrenko         : DFT Hessian,TD-DFT gradient, ASA, ECA, R-Raman, ABS, FL, XAS/XES, NRVS
   Peter Pinski           : DLPNO-MP2, DLPNO-MP2 Gradient
   Christoph Reimann      : Effective Core Potentials
   Marius Retegan         : Local ZFS, SOC
   Christoph Riplinger    : Optimizer, TS searches, QM/MM, DLPNO-CCSD(T), (RO)-DLPNO pert. Triples
   Tobias Risthaus        : Range-separated hybrids, TD-DFT gradient, RPA, STAB
   Michael Roemelt        : Original ROCIS implementation
   Masaaki Saitow         : Open-shell DLPNO-CCSD energy and density
   Barbara Sandhoefer     : DKH picture change effects
   Avijit Sen             : IP-ROCIS
   Kantharuban Sivalingam : CASSCF convergence, NEVPT2, FIC-MRCI
   Bernardo de Souza      : ESD, SOC TD-DFT
   Georgi Stoychev        : AutoAux, RI-MP2 NMR, DLPNO-MP2 response
   Willem Van den Heuvel  : Paramagnetic NMR
   Boris Wezisla          : Elementary symmetry handling
   Frank Wennmohs         : Technical directorship


 We gratefully acknowledge several colleagues who have allowed us to
 interface, adapt or use parts of their codes:
   Stefan Grimme, W. Hujo, H. Kruse, P. Pracht,  : VdW corrections, initial TS optimization,
                  C. Bannwarth, S. Ehlert          DFT functionals, gCP, sTDA/sTD-DF
   Ed Valeev, F. Pavosevic, A. Kumar             : LibInt (2-el integral package), F12 methods
   Garnet Chan, S. Sharma, J. Yang, R. Olivares  : DMRG
   Ulf Ekstrom                                   : XCFun DFT Library
   Mihaly Kallay                                 : mrcc  (arbitrary order and MRCC methods)
   Jiri Pittner, Ondrej Demel                    : Mk-CCSD
   Frank Weinhold                                : gennbo (NPA and NBO analysis)
   Christopher J. Cramer and Donald G. Truhlar   : smd solvation model
   Lars Goerigk                                  : TD-DFT with DH, B97 family of functionals
   V. Asgeirsson, H. Jonsson                     : NEB implementation
   FAccTs GmbH                                   : IRC, NEB, NEB-TS, DLPNO-Multilevel, CI-OPT
                                                   MM, QMMM, 2- and 3-layer-ONIOM, Crystal-QMMM,
                                                   LR-CPCM, SF, NACMEs, symmetry and pop. for TD-DFT,
                                                   nearIR, NL-DFT gradient (VV10), updates on ESD,
                                                   ML-optimized integration grids
   S Lehtola, MJT Oliveira, MAL Marques          : LibXC Library
   Liviu Ungur et al                             : ANISO software


 Your calculation uses the libint2 library for the computation of 2-el integrals
 For citations please refer to: http://libint.valeyev.net

 Your ORCA version has been built with support for libXC version: 5.1.0
 For citations please refer to: https://tddft.org/programs/libxc/

 This ORCA versions uses:
   CBLAS   interface :  Fast vector & matrix operations
   LAPACKE interface :  Fast linear algebra routines
   SCALAPACK package :  Parallel linear algebra routines
   Shared memory     :  Shared parallel matrices
   BLAS/LAPACK       :  OpenBLAS 0.3.15  USE64BITINT DYNAMIC_ARCH NO_AFFINITY SkylakeX SINGLE_THREADED
        Core in use  :  SkylakeX
   Copyright (c) 2011-2014, The OpenBLAS Project




***************************************
The coordinates will be read from file: butylamine_deprot_aq_12.xyz
***************************************


Your calculation utilizes the atom-pairwise dispersion correction
based on tight binding partial charges (D4)
Cite in your paper:
E.Caldeweyher, C.Bannwarth, S.Grimme, J.Chem.Phys., (2017), 147, 034112.
E.Caldeweyher, S.Ehlert, A.Hansen, H.Neugebauer, S.Grimme, J.Chem.Phys., (2018), in progress.
   

XCFun DFT library Copyright 2009-2010 Ulf Ekstrom and contributors.
See http://admol.org/xcfun for more information.
This is free software; see the source code for copying conditions.
There is ABSOLUTELY NO WARRANTY; not even for MERCHANTABILITY or FITNESS FOR A PARTICULAR PURPOSE.
For details see the documentation.
Scientific users of this library should cite U. Ekstrom, L. Visscher, R. Bast, A. J. Thorvaldsen and K. Ruud;
J.Chem.Theor.Comp. 2010, DOI: 10.1021/ct100117s
XCFun Version 0.99 

================================================================================

----- Orbital basis set information -----
Your calculation utilizes the basis: def2-SVP
   F. Weigend and R. Ahlrichs, Phys. Chem. Chem. Phys. 7, 3297 (2005).

----- AuxJ basis set information -----
Your calculation utilizes the auxiliary basis: def2/J
   F. Weigend, Phys. Chem. Chem. Phys. 8, 1057 (2006).

================================================================================
                                        WARNINGS
                       Please study these warnings very carefully!
================================================================================


WARNING: Geometry Optimization
  ===> : Switching off AutoStart
         For restart on a previous wavefunction, please use MOREAD

INFO   : the flag for use of the SHARK integral package has been found!

================================================================================
                                       INPUT FILE
================================================================================
NAME = butylamine_deprot_aq_12.inp
|  1> # ORCA 5.0.4 - /users/bwb16179/postgrad/2024_06/pKa_Reviewer_Comments/CREST_Confs/butylamine/butylamine_deprot_aq_12.inp # write input file
|  2> # Basic Mode
|  3> #
|  4> ! Opt Freq wB97X Def2-SVP D4 SlowConv TightSCF Defgrid2 Def2/J RIJCOSX 
|  5> 
|  6> %PAL NPROCS 4 END
|  7> 
|  8> %maxcore 4500
|  9> 
| 10> %geom
| 11> Maxiter 150
| 12> END
| 13> 
| 14> * xyzfile 0 1 butylamine_deprot_aq_12.xyz
| 15> 
| 16>                          ****END OF INPUT****
================================================================================

                       *****************************
                       * Geometry Optimization Run *
                       *****************************

Geometry optimization settings:
Update method            Update   .... BFGS
Choice of coordinates    CoordSys .... Z-matrix Internals
Initial Hessian          InHess   .... Almoef's Model

Convergence Tolerances:
Energy Change            TolE     ....  5.0000e-06 Eh
Max. Gradient            TolMAXG  ....  3.0000e-04 Eh/bohr
RMS Gradient             TolRMSG  ....  1.0000e-04 Eh/bohr
Max. Displacement        TolMAXD  ....  4.0000e-03 bohr
RMS Displacement         TolRMSD  ....  2.0000e-03 bohr
Strict Convergence                ....  False
------------------------------------------------------------------------------
                        ORCA OPTIMIZATION COORDINATE SETUP
------------------------------------------------------------------------------

The optimization will be done in new redundant internal coordinates
Making redundant internal coordinates   ...  (new redundants) done
Evaluating the initial hessian          ...  (Almloef) done
Evaluating the coordinates              ...  done
Calculating the B-matrix                .... done
Calculating the G-matrix                .... done
Diagonalizing the G-matrix              .... done
Small eigenvalue found = 2.567e-02
The first mode is                       ....   33
The number of degrees of freedom        ....   42

    -----------------------------------------------------------------
                    Redundant Internal Coordinates


    -----------------------------------------------------------------
         Definition                    Initial Value    Approx d2E/dq
    -----------------------------------------------------------------
      1. B(C   1,C   0)                  1.5264         0.378519   
      2. B(H   2,C   0)                  1.0881         0.362673   
      3. B(H   3,C   0)                  1.0883         0.362303   
      4. B(H   4,C   0)                  1.0872         0.363815   
      5. B(C   5,C   1)                  1.5348         0.367022   
      6. B(H   6,C   1)                  1.0923         0.357078   
      7. B(H   7,C   1)                  1.0929         0.356248   
      8. B(C   8,C   5)                  1.5381         0.362631   
      9. B(H   9,C   5)                  1.0930         0.356158   
     10. B(H  10,C   5)                  1.0918         0.357733   
     11. B(N  11,C   8)                  1.4530         0.443932   
     12. B(H  12,C   8)                  1.0950         0.353556   
     13. B(H  13,C   8)                  1.0940         0.354902   
     14. B(H  14,N  11)                  1.0137         0.426916   
     15. B(H  15,N  11)                  1.0145         0.425651   
     16. A(H   3,C   0,H   4)          108.1870         0.291588   
     17. A(C   1,C   0,H   4)          111.7461         0.325569   
     18. A(C   1,C   0,H   2)          110.2021         0.325401   
     19. A(H   2,C   0,H   3)          108.2342         0.291444   
     20. A(H   2,C   0,H   4)          108.0814         0.291635   
     21. A(C   1,C   0,H   3)          110.2843         0.325346   
     22. A(C   0,C   1,C   5)          113.5060         0.363069   
     23. A(H   6,C   1,H   7)          107.1956         0.289965   
     24. A(C   5,C   1,H   7)          109.2960         0.322808   
     25. A(C   0,C   1,H   7)          109.6728         0.324446   
     26. A(C   5,C   1,H   6)          108.9405         0.322931   
     27. A(C   0,C   1,H   6)          108.0298         0.324570   
     28. A(C   8,C   5,H   9)          109.2382         0.322159   
     29. A(C   1,C   5,H   9)          109.4765         0.322795   
     30. A(C   1,C   5,C   8)          114.1584         0.360422   
     31. A(H   9,C   5,H  10)          107.4481         0.290037   
     32. A(C   8,C   5,H  10)          107.0265         0.322392   
     33. A(C   1,C   5,H  10)          109.2637         0.323028   
     34. A(H  12,C   8,H  13)          107.7203         0.289343   
     35. A(N  11,C   8,H  13)          107.3466         0.330880   
     36. A(C   5,C   8,H  13)          109.2234         0.321973   
     37. A(N  11,C   8,H  12)          107.0642         0.330672   
     38. A(C   5,C   8,H  12)          108.4860         0.321772   
     39. A(C   5,C   8,N  11)          116.6663         0.370033   
     40. A(H  14,N  11,H  15)          107.7167         0.301811   
     41. A(C   8,N  11,H  15)          109.6803         0.338103   
     42. A(C   8,N  11,H  14)          109.8422         0.338270   
     43. D(H   6,C   1,C   0,H   4)    178.7793         0.011424   
     44. D(C   5,C   1,C   0,H   3)     60.0733         0.011424   
     45. D(H   7,C   1,C   0,H   3)   -177.3665         0.011424   
     46. D(H   6,C   1,C   0,H   2)     58.5920         0.011424   
     47. D(C   5,C   1,C   0,H   4)    -60.3030         0.011424   
     48. D(H   6,C   1,C   0,H   3)    -60.8444         0.011424   
     49. D(H   7,C   1,C   0,H   4)     62.2572         0.011424   
     50. D(C   5,C   1,C   0,H   2)    179.5097         0.011424   
     51. D(H   7,C   1,C   0,H   2)    -57.9300         0.011424   
     52. D(H   9,C   5,C   1,H   6)     90.4332         0.010779   
     53. D(C   8,C   5,C   1,H   7)    -29.9414         0.010779   
     54. D(C   8,C   5,C   1,H   6)   -146.7691         0.010779   
     55. D(C   8,C   5,C   1,C   0)     92.8268         0.010779   
     56. D(H   9,C   5,C   1,H   7)   -152.7391         0.010779   
     57. D(H  10,C   5,C   1,H   7)     89.8415         0.010779   
     58. D(H  10,C   5,C   1,H   6)    -26.9863         0.010779   
     59. D(H  10,C   5,C   1,C   0)   -147.3904         0.010779   
     60. D(H   9,C   5,C   1,C   0)    -29.9709         0.010779   
     61. D(H  13,C   8,C   5,H   9)   -179.2195         0.010539   
     62. D(H  13,C   8,C   5,C   1)     57.8533         0.010539   
     63. D(H  12,C   8,C   5,H  10)     53.9798         0.010539   
     64. D(H  12,C   8,C   5,H   9)    -62.0607         0.010539   
     65. D(H  12,C   8,C   5,C   1)    175.0120         0.010539   
     66. D(N  11,C   8,C   5,H  10)    174.9196         0.010539   
     67. D(N  11,C   8,C   5,H   9)     58.8791         0.010539   
     68. D(H  13,C   8,C   5,H  10)    -63.1790         0.010539   
     69. D(N  11,C   8,C   5,C   1)    -64.0481         0.010539   
     70. D(H  15,N  11,C   8,C   5)    -54.4542         0.016807   
     71. D(H  14,N  11,C   8,H  13)    -59.1265         0.016807   
     72. D(H  14,N  11,C   8,H  12)   -174.5584         0.016807   
     73. D(H  14,N  11,C   8,C   5)     63.7525         0.016807   
     74. D(H  15,N  11,C   8,H  13)   -177.3331         0.016807   
     75. D(H  15,N  11,C   8,H  12)     67.2350         0.016807   
    -----------------------------------------------------------------

Number of atoms                         .... 16
Number of degrees of freedom            .... 75

         *************************************************************
         *                GEOMETRY OPTIMIZATION CYCLE   1            *
         *************************************************************
---------------------------------
CARTESIAN COORDINATES (ANGSTROEM)
---------------------------------
  C     -1.773234    0.819547    0.368440
  C     -1.214845   -0.577373    0.110028
  H     -2.608670    0.767582    1.063583
  H     -2.129869    1.261056   -0.560196
  H     -1.022165    1.481487    0.792406
  C     -0.036494   -0.593358   -0.873282
  H     -2.021072   -1.194567   -0.292687
  H     -0.902924   -1.029517    1.054888
  C      1.344782   -0.509104   -0.201934
  H     -0.142868    0.231054   -1.582979
  H     -0.057584   -1.522843   -1.445672
  N      1.642072    0.712096    0.527162
  H      2.113388   -0.617413   -0.974283
  H      1.456447   -1.342311    0.498096
  H      1.007288    0.807644    1.311664
  H      1.506118    1.513827   -0.079390

----------------------------
CARTESIAN COORDINATES (A.U.)
----------------------------
  NO LB      ZA    FRAG     MASS         X           Y           Z
   0 C     6.0000    0    12.011   -3.350927    1.548719    0.696250
   1 C     6.0000    0    12.011   -2.295725   -1.091078    0.207922
   2 H     1.0000    0     1.008   -4.929671    1.450520    2.009881
   3 H     1.0000    0     1.008   -4.024869    2.383051   -1.058617
   4 H     1.0000    0     1.008   -1.931612    2.799605    1.497430
   5 C     6.0000    0    12.011   -0.068964   -1.121284   -1.650263
   6 H     1.0000    0     1.008   -3.819272   -2.257404   -0.553098
   7 H     1.0000    0     1.008   -1.706278   -1.945505    1.993450
   8 C     6.0000    0    12.011    2.541271   -0.962068   -0.381599
   9 H     1.0000    0     1.008   -0.269982    0.436628   -2.991397
  10 H     1.0000    0     1.008   -0.108818   -2.877756   -2.731924
  11 N     7.0000    0    14.007    3.103067    1.345667    0.996192
  12 H     1.0000    0     1.008    3.993724   -1.166742   -1.841128
  13 H     1.0000    0     1.008    2.752285   -2.536601    0.941264
  14 H     1.0000    0     1.008    1.903499    1.526226    2.478686
  15 H     1.0000    0     1.008    2.846151    2.860719   -0.150025

--------------------------------
INTERNAL COORDINATES (ANGSTROEM)
--------------------------------
 C      0   0   0     0.000000000000     0.00000000     0.00000000
 C      1   0   0     1.526420746702     0.00000000     0.00000000
 H      1   2   0     1.088061537272   110.20205975     0.00000000
 H      1   2   3     1.088339538910   110.28427312   240.56352486
 H      1   2   3     1.087206040292   111.74611206   120.18729909
 C      2   1   3     1.534817321473   113.50602257   179.50973422
 H      2   1   3     1.092294419957   108.02977224    58.59204477
 H      2   1   3     1.092927343267   109.67276935   302.06995076
 C      6   2   1     1.538093612004   114.15842256    92.82677224
 H      6   2   1     1.092996013897   109.47646092   330.02907850
 H      6   2   1     1.091795441706   109.26369704   212.60959469
 N      9   6   2     1.453029028903   116.66632695   295.95186954
 H      9   6   2     1.094992449095   108.48604995   175.01204328
 H      9   6   2     1.093957745036   109.22335458    57.85325453
 H     12   9   6     1.013668299476   109.84223980    63.75250811
 H     12   9   6     1.014475936010   109.68027832   305.54584632

---------------------------
INTERNAL COORDINATES (A.U.)
---------------------------
 C      0   0   0     0.000000000000     0.00000000     0.00000000
 C      1   0   0     2.884517176402     0.00000000     0.00000000
 H      1   2   0     2.056138322297   110.20205975     0.00000000
 H      1   2   3     2.056663669258   110.28427312   240.56352486
 H      1   2   3     2.054521667297   111.74611206   120.18729909
 C      2   1   3     2.900384403182   113.50602257   179.50973422
 H      2   1   3     2.064137311329   108.02977224    58.59204477
 H      2   1   3     2.065333363050   109.67276935   302.06995076
 C      6   2   1     2.906575695021   114.15842256    92.82677224
 H      6   2   1     2.065463131733   109.47646092   330.02907850
 H      6   2   1     2.063194379089   109.26369704   212.60959469
 N      9   6   2     2.745826929265   116.66632695   295.95186954
 H      9   6   2     2.069235847501   108.48604995   175.01204328
 H      9   6   2     2.067280540200   109.22335458    57.85325453
 H     12   9   6     1.915555476648   109.84223980    63.75250811
 H     12   9   6     1.917081688513   109.68027832   305.54584632

---------------------
BASIS SET INFORMATION
---------------------
There are 3 groups of distinct atoms

 Group   1 Type C   : 7s4p1d contracted to 3s2p1d pattern {511/31/1}
 Group   2 Type H   : 4s1p contracted to 2s1p pattern {31/1}
 Group   3 Type N   : 7s4p1d contracted to 3s2p1d pattern {511/31/1}

Atom   0C    basis set group =>   1
Atom   1C    basis set group =>   1
Atom   2H    basis set group =>   2
Atom   3H    basis set group =>   2
Atom   4H    basis set group =>   2
Atom   5C    basis set group =>   1
Atom   6H    basis set group =>   2
Atom   7H    basis set group =>   2
Atom   8C    basis set group =>   1
Atom   9H    basis set group =>   2
Atom  10H    basis set group =>   2
Atom  11N    basis set group =>   3
Atom  12H    basis set group =>   2
Atom  13H    basis set group =>   2
Atom  14H    basis set group =>   2
Atom  15H    basis set group =>   2
---------------------------------
AUXILIARY/J BASIS SET INFORMATION
---------------------------------
There are 3 groups of distinct atoms

 Group   1 Type C   : 12s5p4d2f1g contracted to 6s4p3d1f1g pattern {711111/2111/211/2/1}
 Group   2 Type H   : 5s2p1d contracted to 3s1p1d pattern {311/2/1}
 Group   3 Type N   : 12s5p4d2f1g contracted to 6s4p3d1f1g pattern {711111/2111/211/2/1}

Atom   0C    basis set group =>   1
Atom   1C    basis set group =>   1
Atom   2H    basis set group =>   2
Atom   3H    basis set group =>   2
Atom   4H    basis set group =>   2
Atom   5C    basis set group =>   1
Atom   6H    basis set group =>   2
Atom   7H    basis set group =>   2
Atom   8C    basis set group =>   1
Atom   9H    basis set group =>   2
Atom  10H    basis set group =>   2
Atom  11N    basis set group =>   3
Atom  12H    basis set group =>   2
Atom  13H    basis set group =>   2
Atom  14H    basis set group =>   2
Atom  15H    basis set group =>   2


           ************************************************************
           *        Program running with 4 parallel MPI-processes     *
           *              working on a common directory               *
           ************************************************************
------------------------------------------------------------------------------
                           ORCA GTO INTEGRAL CALCULATION
                           -- RI-GTO INTEGRALS CHOSEN --
------------------------------------------------------------------------------
------------------------------------------------------------------------------
                   ___                                                        
                  /   \      - P O W E R E D   B Y -                         
                 /     \                                                     
                 |  |  |   _    _      __       _____    __    __             
                 |  |  |  | |  | |    /  \     |  _  \  |  |  /  |          
                  \  \/   | |  | |   /    \    | | | |  |  | /  /          
                 / \  \   | |__| |  /  /\  \   | |_| |  |  |/  /          
                |  |  |   |  __  | /  /__\  \  |    /   |      \           
                |  |  |   | |  | | |   __   |  |    \   |  |\   \          
                \     /   | |  | | |  |  |  |  | |\  \  |  | \   \       
                 \___/    |_|  |_| |__|  |__|  |_| \__\ |__|  \__/        
                                                                              
                      - O R C A' S   B I G   F R I E N D -                    
                                      &                                       
                       - I N T E G R A L  F E E D E R -                       
                                                                              
 v1 FN, 2020, v2 2021                                                         
------------------------------------------------------------------------------


Reading SHARK input file butylamine_deprot_aq_12.SHARKINP.tmp ... ok
----------------------
SHARK INTEGRAL PACKAGE
----------------------

Number of atoms                             ...     16
Number of basis functions                   ...    125
Number of shells                            ...     63
Maximum angular momentum                    ...      2
Integral batch strategy                     ... SHARK/LIBINT Hybrid
RI-J (if used) integral strategy            ... SPLIT-RIJ (Revised 2003 algorithm where possible)
Printlevel                                  ...      1
Contraction scheme used                     ... SEGMENTED contraction
Coulomb Range Separation                    ... NOT USED
Exchange Range Separation                   ... Long Range
   Mu parameter                             ...  0.300000
   Scaling (regular/separated)              ...  0.157706  0.842294
Finite Nucleus Model                        ... NOT USED
Auxiliary Coulomb fitting basis             ... AVAILABLE
   # of basis functions in Aux-J            ...    366
   # of shells in Aux-J                     ...    130
   Maximum angular momentum in Aux-J        ...      4
Auxiliary J/K fitting basis                 ... NOT available
Auxiliary Correlation fitting basis         ... NOT available
Auxiliary 'external' fitting basis          ... NOT available
Integral threshold                          ...     2.500000e-11
Primitive cut-off                           ...     2.500000e-12
Primitive pair pre-selection threshold      ...     2.500000e-12

Calculating pre-screening integrals         ... done (  0.0 sec) Dimension = 63
Organizing shell pair data                  ... done (  0.0 sec)
Shell pair information
Total number of shell pairs                 ...      2016
Shell pairs after pre-screening             ...      1991
Total number of primitive shell pairs       ...      6768
Primitive shell pairs kept                  ...      5327
          la=0 lb=0:    693 shell pairs
          la=1 lb=0:    765 shell pairs
          la=1 lb=1:    229 shell pairs
          la=2 lb=0:    184 shell pairs
          la=2 lb=1:    105 shell pairs
          la=2 lb=2:     15 shell pairs

Calculating one electron integrals          ... done (  0.0 sec)
Calculating RI/J V-Matrix + Cholesky decomp.... done (  0.0 sec)
Calculating Nuclear repulsion               ... done (  0.0 sec) ENN=    192.325663997206 Eh

SHARK setup successfully completed in   0.2 seconds

Maximum memory used throughout the entire GTOINT-calculation: 10.7 MB


           ************************************************************
           *        Program running with 4 parallel MPI-processes     *
           *              working on a common directory               *
           ************************************************************
-------------------------------------------------------------------------------
                                 ORCA SCF
-------------------------------------------------------------------------------

------------
SCF SETTINGS
------------
Hamiltonian:
 Density Functional     Method          .... DFT(GTOs)
 Exchange Functional    Exchange        .... WB97X
 Correlation Functional Correlation     .... WB97X
 Gradients option       PostSCFGGA      .... off
 Hybrid DFT is turned on
   Fraction HF Exchange ScalHFX         ....  0.157706
   Scaling of DF-GGA-X  ScalDFX         ....  0.000000
   Scaling of DF-GGA-C  ScalDFC         ....  1.000000
   Scaling of DF-LDA-C  ScalLDAC        ....  1.000000
   Perturbative correction              ....  0.000000
   Density functional embedding theory  .... OFF
 Long-range corrected/Screened/Range-Separated Hybrid DFT is turned on
   Amount of maximum screened exact exchange              ....  0.842294
   Range separation parameter mu (erf(mu*r12)/r12)        ....  0.300000
 RI-approximation to the Coulomb term is turned on
   Number of AuxJ basis functions       .... 366
   RIJ-COSX (HFX calculated with COS-X)).... on


General Settings:
 Integral files         IntName         .... butylamine_deprot_aq_12
 Hartree-Fock type      HFTyp           .... RHF
 Total Charge           Charge          ....    0
 Multiplicity           Mult            ....    1
 Number of Electrons    NEL             ....   42
 Basis Dimension        Dim             ....  125
 Nuclear Repulsion      ENuc            ....    192.3256639972 Eh

Convergence Acceleration:
 DIIS                   CNVDIIS         .... on
   Start iteration      DIISMaxIt       ....     0
   Startup error        DIISStart       ....  0.200000
   # of expansion vecs  DIISMaxEq       ....     5
   Bias factor          DIISBfac        ....   1.050
   Max. coefficient     DIISMaxC        ....  10.000
 Trust-Rad. Augm. Hess. CNVTRAH         .... auto
   Auto Start mean grad. ratio tolernc. ....  1.125000
   Auto Start start iteration           ....    20
   Auto Start num. interpolation iter.  ....    10
   Max. Number of Micro iterations      ....    16
   Max. Number of Macro iterations      .... Maxiter - #DIIS iter
   Number of Davidson start vectors     ....     2
   Converg. threshold I  (grad. norm)   ....   1.000e-05
   Converg. threshold II (energy diff.) ....   1.000e-08
   Grad. Scal. Fac. for Micro threshold ....   0.100
   Minimum threshold for Micro iter.    ....   0.010
   NR start threshold (gradient norm)   ....   0.001
   Initial trust radius                 ....   0.400
   Minimum AH scaling param. (alpha)    ....   1.000
   Maximum AH scaling param. (alpha)    .... 1000.000
   Orbital update algorithm             .... Taylor
   White noise on init. David. guess    .... on
   Maximum white noise                  ....   0.010
   Quad. conv. algorithm                .... NR
 SOSCF                  CNVSOSCF        .... on
   Start iteration      SOSCFMaxIt      ....   150
   Startup grad/error   SOSCFStart      ....  0.001000
 Level Shifting         CNVShift        .... on
   Level shift para.    LevelShift      ....    0.2500
   Turn off err/grad.   ShiftErr        ....    0.0000
 Zerner damping         CNVZerner       .... off
 Static damping         CNVDamp         .... on
   Fraction old density DampFac         ....    0.8500
   Max. Damping (<1)    DampMax         ....    0.9800
   Min. Damping (>=0)   DampMin         ....    0.0000
   Turn off err/grad.   DampErr         ....    0.0300
 Fernandez-Rico         CNVRico         .... off

SCF Procedure:
 Maximum # iterations   MaxIter         ....   125
 SCF integral mode      SCFMode         .... Direct
   Integral package                     .... SHARK and LIBINT hybrid scheme
 Reset frequency        DirectResetFreq ....    20
 Integral Threshold     Thresh          ....  2.500e-11 Eh
 Primitive CutOff       TCut            ....  2.500e-12 Eh

Convergence Tolerance:
 Convergence Check Mode ConvCheckMode   .... Total+1el-Energy
 Convergence forced     ConvForced      .... 0
 Energy Change          TolE            ....  1.000e-08 Eh
 1-El. energy change                    ....  1.000e-05 Eh
 Orbital Gradient       TolG            ....  1.000e-05
 Orbital Rotation angle TolX            ....  1.000e-05
 DIIS Error             TolErr          ....  5.000e-07


Diagonalization of the overlap matrix:
Smallest eigenvalue                        ... 2.357e-03
Time for diagonalization                   ...    0.003 sec
Threshold for overlap eigenvalues          ... 1.000e-08
Number of eigenvalues below threshold      ... 0
Time for construction of square roots      ...    0.002 sec
Total time needed                          ...    0.006 sec

Time for model grid setup =    0.066 sec

------------------------------
INITIAL GUESS: MODEL POTENTIAL
------------------------------
Loading Hartree-Fock densities                     ... done
Calculating cut-offs                               ... done
Initializing the effective Hamiltonian             ... done
Setting up the integral package (SHARK)            ... done
Starting the Coulomb interaction                   ... done (   0.0 sec)
Reading the grid                                   ... done
Mapping shells                                     ... done
Starting the XC term evaluation                    ... done (   0.0 sec)
  promolecular density results
     # of electrons  =     41.996709341
     EX              =    -30.243671391
     EC              =     -1.357412318
     EX+EC           =    -31.601083709
Transforming the Hamiltonian                       ... done (   0.0 sec)
Diagonalizing the Hamiltonian                      ... done (   0.0 sec)
Back transforming the eigenvectors                 ... done (   0.0 sec)
Now organizing SCF variables                       ... done
                      ------------------
                      INITIAL GUESS DONE (   0.2 sec)
                      ------------------
-------------------
DFT GRID GENERATION
-------------------

General Integration Accuracy     IntAcc      ... 4.388
Radial Grid Type                 RadialGrid  ... OptM3 with GC (2021)
Angular Grid (max. ang.)         AngularGrid ... 4 (Lebedev-302)
Angular grid pruning method      GridPruning ... 4 (adaptive)
Weight generation scheme         WeightScheme... Becke
Basis function cutoff            BFCut       ... 1.0000e-11
Integration weight cutoff        WCut        ... 1.0000e-14
Angular grids for H and He will be reduced by one unit
Partially contracted basis set               ... off
Rotationally invariant grid construction     ... off

Total number of grid points                  ...    65425
Total number of batches                      ...     1030
Average number of points per batch           ...       63
Average number of grid points per atom       ...     4089
Time for grid setup =    0.333 sec

--------------------
COSX GRID GENERATION
--------------------

GRIDX 1
-------
General Integration Accuracy     IntAcc      ... 3.816
Radial Grid Type                 RadialGrid  ... OptM3 with GC (2021)
Angular Grid (max. ang.)         AngularGrid ... 1 (Lebedev-50)
Angular grid pruning method      GridPruning ... 4 (adaptive)
Weight generation scheme         WeightScheme... Becke
Basis function cutoff            BFCut       ... 1.0000e-11
Integration weight cutoff        WCut        ... 1.0000e-14
Angular grids for H and He will be reduced by one unit
Partially contracted basis set               ... on
Rotationally invariant grid construction     ... off

Total number of grid points                  ...     8417
Total number of batches                      ...      143
Average number of points per batch           ...       58
Average number of grid points per atom       ...      526
UseSFitting                                  ... on

GRIDX 2
-------
General Integration Accuracy     IntAcc      ... 4.020
Radial Grid Type                 RadialGrid  ... OptM3 with GC (2021)
Angular Grid (max. ang.)         AngularGrid ... 2 (Lebedev-110)
Angular grid pruning method      GridPruning ... 4 (adaptive)
Weight generation scheme         WeightScheme... Becke
Basis function cutoff            BFCut       ... 1.0000e-11
Integration weight cutoff        WCut        ... 1.0000e-14
Angular grids for H and He will be reduced by one unit
Partially contracted basis set               ... on
Rotationally invariant grid construction     ... off

Total number of grid points                  ...    17334
Total number of batches                      ...      280
Average number of points per batch           ...       61
Average number of grid points per atom       ...     1083
UseSFitting                                  ... on

GRIDX 3
-------
General Integration Accuracy     IntAcc      ... 4.338
Radial Grid Type                 RadialGrid  ... OptM3 with GC (2021)
Angular Grid (max. ang.)         AngularGrid ... 3 (Lebedev-194)
Angular grid pruning method      GridPruning ... 4 (adaptive)
Weight generation scheme         WeightScheme... Becke
Basis function cutoff            BFCut       ... 1.0000e-11
Integration weight cutoff        WCut        ... 1.0000e-14
Angular grids for H and He will be reduced by one unit
Partially contracted basis set               ... on
Rotationally invariant grid construction     ... off

Total number of grid points                  ...    37854
Total number of batches                      ...      601
Average number of points per batch           ...       62
Average number of grid points per atom       ...     2366
UseSFitting                                  ... on

Time for X-Grid setup             =    0.389 sec

--------------
SCF ITERATIONS
--------------
ITER       Energy         Delta-E        Max-DP      RMS-DP      [F,P]     Damp
               ***  Starting incremental Fock matrix formation  ***
  0   -213.3807550438   0.000000000000 0.03886272  0.00116785  0.2324485 0.8500
  1   -213.4255732473  -0.044818203491 0.03336221  0.00111137  0.1795853 0.8500
                               ***Turning on DIIS***
  2   -213.4585315481  -0.032958300790 0.02480097  0.00089013  0.1308748 0.8500
  3   -213.4823078926  -0.023776344521 0.01440053  0.00057866  0.0937525 0.8500
  4   -213.5003261010  -0.018018208411 0.00955069  0.00041300  0.0731513 0.8500
  5   -213.5143546468  -0.014028545742 0.00711429  0.00032628  0.0603254 0.8500
  6   -213.5257038961  -0.011349249354 0.00566209  0.00027076  0.0507650 0.8500
  7   -213.5350754798  -0.009371583692 0.00474879  0.00023306  0.0429906 0.8500
  8   -213.5429082829  -0.007832803057 0.00403628  0.00020079  0.0361723 0.8500
  9   -213.5494672665  -0.006558983594 0.00341635  0.00017172  0.0303470 0.8500
 10   -213.5549655825  -0.005498315976 0.01915397  0.00097455  0.0254837 0.0000
 11   -213.5848652261  -0.029899643668 0.00113972  0.00003988  0.0015798 0.0000
                      *** Initiating the SOSCF procedure ***
                           *** Shutting down DIIS ***
                      *** Re-Reading the Fockian *** 
                      *** Removing any level shift *** 
ITER      Energy       Delta-E        Grad      Rot      Max-DP    RMS-DP
 12   -213.58487440  -0.0000091769  0.000080  0.000080  0.000295  0.000014
               *** Restarting incremental Fock matrix formation ***
 13   -213.58493326  -0.0000588586  0.000045  0.000079  0.000260  0.000012
 14   -213.58493338  -0.0000001179  0.000015  0.000040  0.000092  0.000005
 15   -213.58493339  -0.0000000117  0.000008  0.000005  0.000031  0.000001
                  ***Gradient check signals convergence***
              ***Rediagonalizing the Fockian in SOSCF/NRSCF***

               *****************************************************
               *                     SUCCESS                       *
               *           SCF CONVERGED AFTER  16 CYCLES          *
               *****************************************************

Old exchange energy                            =    -10.442623811 Eh
New exchange energy                            =    -10.442623176 Eh
Exchange energy change after final integration =      0.000000635 Eh
Total energy after final integration           =   -213.584932759 Eh
Final COS-X integration done in                =     3.184 sec

----------------
TOTAL SCF ENERGY
----------------

Total Energy       :         -213.58493276 Eh           -5811.94149 eV

Components:
Nuclear Repulsion  :          192.32566400 Eh            5233.44738 eV
Electronic Energy  :         -405.91059676 Eh          -11045.38887 eV
One Electron Energy:         -667.25441314 Eh          -18156.91566 eV
Two Electron Energy:          261.34381639 Eh            7111.52679 eV
Max COSX asymmetry :            0.00000118 Eh               0.00003 eV

Virial components:
Potential Energy   :         -424.61055514 Eh          -11554.24061 eV
Kinetic Energy     :          211.02562239 Eh            5742.29912 eV
Virial Ratio       :            2.01212796


DFT components:
N(Alpha)           :       21.000002192582 electrons
N(Beta)            :       21.000002192582 electrons
N(Total)           :       42.000004385163 electrons
E(XC)              :      -22.249352439282 Eh       
DFET-embed. en.    :        0.000000000000 Eh       

---------------
SCF CONVERGENCE
---------------

  Last Energy change         ...   -2.5563e-09  Tolerance :   1.0000e-08
  Last MAX-Density change    ...    2.6645e-15  Tolerance :   1.0000e-07
  Last RMS-Density change    ...    4.2037e-17  Tolerance :   5.0000e-09
  Last Orbital Gradient      ...    2.0779e-06  Tolerance :   1.0000e-05
  Last Orbital Rotation      ...    1.9654e-06  Tolerance :   1.0000e-05

             **** THE GBW FILE WAS UPDATED (butylamine_deprot_aq_12.gbw) ****
             **** DENSITY butylamine_deprot_aq_12.scfp WAS UPDATED ****
             **** ENERGY FILE WAS UPDATED (butylamine_deprot_aq_12.en.tmp) ****
             **** THE GBW FILE WAS UPDATED (butylamine_deprot_aq_12.gbw) ****
             **** DENSITY butylamine_deprot_aq_12.scfp WAS UPDATED ****
----------------
ORBITAL ENERGIES
----------------

  NO   OCC          E(Eh)            E(eV) 
   0   2.0000     -14.375556      -391.1788 
   1   2.0000     -10.283011      -279.8150 
   2   2.0000     -10.265077      -279.3269 
   3   2.0000     -10.260283      -279.1965 
   4   2.0000     -10.258627      -279.1514 
   5   2.0000      -0.999819       -27.2065 
   6   2.0000      -0.908830       -24.7305 
   7   2.0000      -0.829732       -22.5782 
   8   2.0000      -0.742424       -20.2024 
   9   2.0000      -0.690859       -18.7992 
  10   2.0000      -0.609382       -16.5821 
  11   2.0000      -0.570102       -15.5133 
  12   2.0000      -0.564567       -15.3627 
  13   2.0000      -0.520044       -14.1511 
  14   2.0000      -0.504644       -13.7321 
  15   2.0000      -0.499605       -13.5949 
  16   2.0000      -0.464046       -12.6273 
  17   2.0000      -0.440909       -11.9978 
  18   2.0000      -0.434121       -11.8130 
  19   2.0000      -0.423439       -11.5224 
  20   2.0000      -0.329775        -8.9736 
  21   0.0000       0.137546         3.7428 
  22   0.0000       0.171315         4.6617 
  23   0.0000       0.172682         4.6989 
  24   0.0000       0.181396         4.9360 
  25   0.0000       0.213039         5.7971 
  26   0.0000       0.222863         6.0644 
  27   0.0000       0.232315         6.3216 
  28   0.0000       0.238253         6.4832 
  29   0.0000       0.253909         6.9092 
  30   0.0000       0.270885         7.3712 
  31   0.0000       0.279798         7.6137 
  32   0.0000       0.302525         8.2321 
  33   0.0000       0.345712         9.4073 
  34   0.0000       0.361615         9.8400 
  35   0.0000       0.383527        10.4363 
  36   0.0000       0.518744        14.1158 
  37   0.0000       0.533020        14.5042 
  38   0.0000       0.537546        14.6274 
  39   0.0000       0.549405        14.9501 
  40   0.0000       0.577904        15.7256 
  41   0.0000       0.592538        16.1238 
  42   0.0000       0.637555        17.3488 
  43   0.0000       0.703503        19.1433 
  44   0.0000       0.721797        19.6411 
  45   0.0000       0.744198        20.2507 
  46   0.0000       0.757228        20.6052 
  47   0.0000       0.759468        20.6662 
  48   0.0000       0.774849        21.0847 
  49   0.0000       0.776539        21.1307 
  50   0.0000       0.786285        21.3959 
  51   0.0000       0.791402        21.5351 
  52   0.0000       0.795107        21.6360 
  53   0.0000       0.806756        21.9529 
  54   0.0000       0.822275        22.3752 
  55   0.0000       0.823848        22.4181 
  56   0.0000       0.840024        22.8582 
  57   0.0000       0.852370        23.1942 
  58   0.0000       0.859738        23.3947 
  59   0.0000       0.897951        24.4345 
  60   0.0000       0.966386        26.2967 
  61   0.0000       0.982796        26.7432 
  62   0.0000       1.023564        27.8526 
  63   0.0000       1.052990        28.6533 
  64   0.0000       1.158750        31.5312 
  65   0.0000       1.179478        32.0952 
  66   0.0000       1.272965        34.6391 
  67   0.0000       1.290158        35.1070 
  68   0.0000       1.332796        36.2672 
  69   0.0000       1.408009        38.3139 
  70   0.0000       1.421823        38.6898 
  71   0.0000       1.477503        40.2049 
  72   0.0000       1.506745        41.0006 
  73   0.0000       1.532778        41.7090 
  74   0.0000       1.658749        45.1368 
  75   0.0000       1.674781        45.5731 
  76   0.0000       1.693378        46.0792 
  77   0.0000       1.831254        49.8309 
  78   0.0000       1.833666        49.8966 
  79   0.0000       1.857591        50.5476 
  80   0.0000       1.881518        51.1987 
  81   0.0000       1.884063        51.2680 
  82   0.0000       1.899681        51.6930 
  83   0.0000       1.906639        51.8823 
  84   0.0000       1.918575        52.2071 
  85   0.0000       1.929398        52.5016 
  86   0.0000       1.945977        52.9527 
  87   0.0000       1.967712        53.5442 
  88   0.0000       1.971891        53.6579 
  89   0.0000       2.002411        54.4884 
  90   0.0000       2.010109        54.6979 
  91   0.0000       2.034251        55.3548 
  92   0.0000       2.039447        55.4962 
  93   0.0000       2.070692        56.3464 
  94   0.0000       2.076684        56.5094 
  95   0.0000       2.135681        58.1148 
  96   0.0000       2.202421        59.9309 
  97   0.0000       2.207110        60.0585 
  98   0.0000       2.272001        61.8243 
  99   0.0000       2.298051        62.5332 
 100   0.0000       2.321540        63.1723 
 101   0.0000       2.391174        65.0672 
 102   0.0000       2.433668        66.2235 
 103   0.0000       2.502755        68.1034 
 104   0.0000       2.536928        69.0333 
 105   0.0000       2.569792        69.9276 
 106   0.0000       2.604018        70.8589 
 107   0.0000       2.625151        71.4340 
 108   0.0000       2.697366        73.3991 
 109   0.0000       2.723619        74.1134 
 110   0.0000       2.744459        74.6805 
 111   0.0000       2.830798        77.0299 
 112   0.0000       2.875929        78.2580 
 113   0.0000       2.908538        79.1453 
 114   0.0000       2.986859        81.2766 
 115   0.0000       2.997943        81.5782 
 116   0.0000       3.026517        82.3557 
 117   0.0000       3.072687        83.6121 
 118   0.0000       3.104393        84.4748 
 119   0.0000       3.106427        84.5302 
 120   0.0000       3.136915        85.3598 
 121   0.0000       3.186413        86.7067 
 122   0.0000       3.238030        88.1113 
 123   0.0000       3.355943        91.3199 
 124   0.0000       3.523724        95.8854 

                    ********************************
                    * MULLIKEN POPULATION ANALYSIS *
                    ********************************

-----------------------
MULLIKEN ATOMIC CHARGES
-----------------------
   0 C :   -0.021583
   1 C :   -0.064553
   2 H :    0.027614
   3 H :    0.024317
   4 H :   -0.009173
   5 C :   -0.038136
   6 H :    0.020509
   7 H :    0.010380
   8 C :    0.059572
   9 H :    0.000994
  10 H :    0.012869
  11 N :   -0.246711
  12 H :    0.019191
  13 H :    0.016001
  14 H :    0.095921
  15 H :    0.092790
Sum of atomic charges:    0.0000000

--------------------------------
MULLIKEN REDUCED ORBITAL CHARGES
--------------------------------
  0 C s       :     2.988625  s :     2.988625
      pz      :     1.017846  p :     3.004304
      px      :     1.009203
      py      :     0.977255
      dz2     :     0.003669  d :     0.028654
      dxz     :     0.007238
      dyz     :     0.005957
      dx2y2   :     0.004862
      dxy     :     0.006928
  1 C s       :     3.040376  s :     3.040376
      pz      :     0.992431  p :     2.988061
      px      :     0.990600
      py      :     1.005030
      dz2     :     0.006127  d :     0.036116
      dxz     :     0.007683
      dyz     :     0.007322
      dx2y2   :     0.006208
      dxy     :     0.008775
  2 H s       :     0.948503  s :     0.948503
      pz      :     0.008979  p :     0.023883
      px      :     0.010718
      py      :     0.004186
  3 H s       :     0.951666  s :     0.951666
      pz      :     0.012209  p :     0.024017
      px      :     0.005961
      py      :     0.005847
  4 H s       :     0.984667  s :     0.984667
      pz      :     0.006589  p :     0.024507
      px      :     0.009889
      py      :     0.008029
  5 C s       :     3.026461  s :     3.026461
      pz      :     1.001924  p :     2.977136
      px      :     0.976039
      py      :     0.999172
      dz2     :     0.003611  d :     0.034539
      dxz     :     0.008636
      dyz     :     0.009327
      dx2y2   :     0.009678
      dxy     :     0.003287
  6 H s       :     0.956672  s :     0.956672
      pz      :     0.005817  p :     0.022819
      px      :     0.009650
      py      :     0.007352
  7 H s       :     0.966811  s :     0.966811
      pz      :     0.012020  p :     0.022810
      px      :     0.004939
      py      :     0.005851
  8 C s       :     3.007674  s :     3.007674
      pz      :     0.987756  p :     2.880143
      px      :     0.974919
      py      :     0.917467
      dz2     :     0.004431  d :     0.052611
      dxz     :     0.012879
      dyz     :     0.013725
      dx2y2   :     0.013153
      dxy     :     0.008424
  9 H s       :     0.976243  s :     0.976243
      pz      :     0.008450  p :     0.022763
      px      :     0.003788
      py      :     0.010525
 10 H s       :     0.964221  s :     0.964221
      pz      :     0.007040  p :     0.022910
      px      :     0.003820
      py      :     0.012050
 11 N s       :     3.396731  s :     3.396731
      pz      :     1.126095  p :     3.829942
      px      :     1.646239
      py      :     1.057608
      dz2     :     0.001162  d :     0.020038
      dxz     :     0.005572
      dyz     :     0.006111
      dx2y2   :     0.004058
      dxy     :     0.003135
 12 H s       :     0.959450  s :     0.959450
      pz      :     0.009038  p :     0.021359
      px      :     0.009248
      py      :     0.003073
 13 H s       :     0.962406  s :     0.962406
      pz      :     0.008164  p :     0.021593
      px      :     0.004196
      py      :     0.009233
 14 H s       :     0.857934  s :     0.857934
      pz      :     0.019705  p :     0.046145
      px      :     0.018028
      py      :     0.008412
 15 H s       :     0.861701  s :     0.861701
      pz      :     0.014013  p :     0.045509
      px      :     0.013689
      py      :     0.017806


                     *******************************
                     * LOEWDIN POPULATION ANALYSIS *
                     *******************************

----------------------
LOEWDIN ATOMIC CHARGES
----------------------
   0 C :   -0.061004
   1 C :   -0.045661
   2 H :    0.024716
   3 H :    0.022433
   4 H :    0.009548
   5 C :   -0.058324
   6 H :    0.023751
   7 H :    0.016949
   8 C :    0.012789
   9 H :    0.014385
  10 H :    0.023398
  11 N :   -0.112080
  12 H :    0.017802
  13 H :    0.017217
  14 H :    0.045477
  15 H :    0.048602

-------------------------------
LOEWDIN REDUCED ORBITAL CHARGES
-------------------------------
  0 C s       :     2.827662  s :     2.827662
      pz      :     1.065996  p :     3.159754
      px      :     1.060333
      py      :     1.033426
      dz2     :     0.009926  d :     0.073587
      dxz     :     0.019095
      dyz     :     0.014093
      dx2y2   :     0.012461
      dxy     :     0.018013
  1 C s       :     2.830611  s :     2.830611
      pz      :     1.048590  p :     3.126471
      px      :     1.039366
      py      :     1.038515
      dz2     :     0.015570  d :     0.088579
      dxz     :     0.020518
      dyz     :     0.016207
      dx2y2   :     0.015307
      dxy     :     0.020977
  2 H s       :     0.908871  s :     0.908871
      pz      :     0.023973  p :     0.066413
      px      :     0.029070
      py      :     0.013369
  3 H s       :     0.911236  s :     0.911236
      pz      :     0.032629  p :     0.066331
      px      :     0.015920
      py      :     0.017783
  4 H s       :     0.922745  s :     0.922745
      pz      :     0.017292  p :     0.067707
      px      :     0.026810
      py      :     0.023605
  5 C s       :     2.842575  s :     2.842575
      pz      :     1.042097  p :     3.128978
      px      :     1.029281
      py      :     1.057600
      dz2     :     0.006751  d :     0.086771
      dxz     :     0.022993
      dyz     :     0.024795
      dx2y2   :     0.025653
      dxy     :     0.006580
  6 H s       :     0.909894  s :     0.909894
      pz      :     0.016663  p :     0.066354
      px      :     0.027855
      py      :     0.021836
  7 H s       :     0.916726  s :     0.916726
      pz      :     0.033329  p :     0.066325
      px      :     0.014865
      py      :     0.018131
  8 C s       :     2.829892  s :     2.829892
      pz      :     1.034423  p :     3.035844
      px      :     1.035019
      py      :     0.966402
      dz2     :     0.008112  d :     0.121474
      dxz     :     0.032788
      dyz     :     0.031930
      dx2y2   :     0.031883
      dxy     :     0.016762
  9 H s       :     0.918670  s :     0.918670
      pz      :     0.024880  p :     0.066944
      px      :     0.014114
      py      :     0.027951
 10 H s       :     0.909284  s :     0.909284
      pz      :     0.021000  p :     0.067319
      px      :     0.014096
      py      :     0.032223
 11 N s       :     3.115290  s :     3.115290
      pz      :     1.198686  p :     3.952446
      px      :     1.622987
      py      :     1.130773
      dz2     :     0.003261  d :     0.044344
      dxz     :     0.011225
      dyz     :     0.016156
      dx2y2   :     0.008774
      dxy     :     0.004928
 12 H s       :     0.918659  s :     0.918659
      pz      :     0.025099  p :     0.063540
      px      :     0.027250
      py      :     0.011191
 13 H s       :     0.919185  s :     0.919185
      pz      :     0.023565  p :     0.063598
      px      :     0.012855
      py      :     0.027177
 14 H s       :     0.830545  s :     0.830545
      pz      :     0.049522  p :     0.123979
      px      :     0.054822
      py      :     0.019634
 15 H s       :     0.829220  s :     0.829220
      pz      :     0.035343  p :     0.122177
      px      :     0.039961
      py      :     0.046873


                      *****************************
                      * MAYER POPULATION ANALYSIS *
                      *****************************

  NA   - Mulliken gross atomic population
  ZA   - Total nuclear charge
  QA   - Mulliken gross atomic charge
  VA   - Mayer's total valence
  BVA  - Mayer's bonded valence
  FA   - Mayer's free valence

  ATOM       NA         ZA         QA         VA         BVA        FA
  0 C      6.0216     6.0000    -0.0216     4.0031     4.0031     0.0000
  1 C      6.0646     6.0000    -0.0646     4.0629     4.0629    -0.0000
  2 H      0.9724     1.0000     0.0276     0.9871     0.9871     0.0000
  3 H      0.9757     1.0000     0.0243     0.9896     0.9896     0.0000
  4 H      1.0092     1.0000    -0.0092     1.0235     1.0235     0.0000
  5 C      6.0381     6.0000    -0.0381     3.9787     3.9787     0.0000
  6 H      0.9795     1.0000     0.0205     0.9775     0.9775    -0.0000
  7 H      0.9896     1.0000     0.0104     0.9862     0.9862     0.0000
  8 C      5.9404     6.0000     0.0596     4.0965     4.0965     0.0000
  9 H      0.9990     1.0000     0.0010     0.9933     0.9933    -0.0000
 10 H      0.9871     1.0000     0.0129     0.9813     0.9813     0.0000
 11 N      7.2467     7.0000    -0.2467     3.0950     3.0950    -0.0000
 12 H      0.9808     1.0000     0.0192     0.9822     0.9822    -0.0000
 13 H      0.9840     1.0000     0.0160     0.9834     0.9834    -0.0000
 14 H      0.9041     1.0000     0.0959     1.0104     1.0104     0.0000
 15 H      0.9072     1.0000     0.0928     1.0043     1.0043    -0.0000

  Mayer bond orders larger than 0.100000
B(  0-C ,  1-C ) :   1.0851 B(  0-C ,  2-H ) :   0.9728 B(  0-C ,  3-H ) :   0.9740 
B(  0-C ,  4-H ) :   0.9698 B(  1-C ,  5-C ) :   1.0395 B(  1-C ,  6-H ) :   0.9579 
B(  1-C ,  7-H ) :   0.9593 B(  5-C ,  8-C ) :   1.0514 B(  5-C ,  9-H ) :   0.9523 
B(  5-C , 10-H ) :   0.9449 B(  8-C , 11-N ) :   1.0896 B(  8-C , 12-H ) :   0.9626 
B(  8-C , 13-H ) :   0.9606 B( 11-N , 14-H ) :   0.9854 B( 11-N , 15-H ) :   0.9812 


-------
TIMINGS
-------

Total SCF time: 0 days 0 hours 0 min 25 sec 

Total time                  ....      25.542 sec
Sum of individual times     ....      25.299 sec  ( 99.0%)

Fock matrix formation       ....      24.157 sec  ( 94.6%)
  Split-RI-J                ....       1.130 sec  (  4.7% of F)
  Chain of spheres X        ....      18.055 sec  ( 74.7% of F)
  XC integration            ....       4.647 sec  ( 19.2% of F)
    Basis function eval.    ....       1.356 sec  ( 29.2% of XC)
    Density eval.           ....       0.788 sec  ( 16.9% of XC)
    XC-Functional eval.     ....       0.599 sec  ( 12.9% of XC)
    XC-Potential eval.      ....       0.784 sec  ( 16.9% of XC)
Diagonalization             ....       0.150 sec  (  0.6%)
Density matrix formation    ....       0.003 sec  (  0.0%)
Population analysis         ....       0.007 sec  (  0.0%)
Initial guess               ....       0.090 sec  (  0.4%)
Orbital Transformation      ....       0.000 sec  (  0.0%)
Orbital Orthonormalization  ....       0.000 sec  (  0.0%)
DIIS solution               ....       0.047 sec  (  0.2%)
SOSCF solution              ....       0.057 sec  (  0.2%)
Grid generation             ....       0.788 sec  (  3.1%)

Maximum memory used throughout the entire SCF-calculation: 49.8 MB


-------------------------------------------------------------------------------
                          DFT DISPERSION CORRECTION                            
                                                                               
                                 DFTD4 V2.5                                    
-------------------------------------------------------------------------------
The WB97X functional is recognized
Active option DFTDOPT                   ...         5   

Starting D4
-------------------------   ----------------
Dispersion correction           -0.001453305
-------------------------   ----------------


-------------------------   --------------------
FINAL SINGLE POINT ENERGY      -213.586386064453
-------------------------   --------------------



           ************************************************************
           *        Program running with 4 parallel MPI-processes     *
           *              working on a common directory               *
           ************************************************************
------------------------------------------------------------------------------
                         ORCA SCF GRADIENT CALCULATION
------------------------------------------------------------------------------

 ... reading COSX grid (gridx3)
Gradient of the Kohn-Sham DFT energy:
Kohn-Sham wavefunction type      ... RKS
Hartree-Fock exchange scaling    ...    0.158
Number of operators              ...    1
Number of atoms                  ...   16
Basis set dimensions             ...  125
Integral neglect threshold       ... 2.5e-11
Integral primitive cutoff        ... 2.5e-12
SHARK Integral package           ... ON

Nuc. rep. gradient       (SHARK) ... done (  0.0 sec)
HCore & Overlap gradient (SHARK) ... done (  0.0 sec)
RI-J gradient            (SHARK) ... done (  0.2 sec)
COSX-gradient                    ... done (  3.5 sec)
Exchange-correlation gradient    ... done
Dispersion correction            ... Starting D4
Starting D4
Starting D4
Starting D4


------------------- 
Dispersion Gradient 
------------------- 
   1  :   -0.000022751    0.000016092    0.000005680
   2  :   -0.000013694   -0.000010813    0.000003374
   3  :   -0.000007656    0.000001929    0.000001161
   4  :   -0.000006881    0.000000379    0.000002471
   5  :   -0.000006561   -0.000001751   -0.000000760
   6  :    0.000000529   -0.000007667   -0.000014654
   7  :   -0.000003770    0.000001153    0.000000060
   8  :   -0.000002966    0.000002771   -0.000004386
   9  :    0.000014041   -0.000014959   -0.000007113
  10  :    0.000000905   -0.000003672    0.000004188
  11  :    0.000000706   -0.000001436   -0.000000489
  12  :    0.000031764    0.000010989    0.000011189
  13  :    0.000004589    0.000001336    0.000001858
  14  :    0.000004931    0.000003809   -0.000001638
  15  :    0.000002909    0.000000054   -0.000000070
  16  :    0.000003908    0.000001784   -0.000000872

  |G| =    0.000055214

done

------------------
CARTESIAN GRADIENT
------------------

   1   C   :   -0.001612012    0.011193201   -0.000921213
   2   C   :   -0.003297785   -0.010624665    0.007955899
   3   H   :    0.007283262   -0.001844933   -0.005471014
   4   H   :    0.003210222   -0.004837543    0.007043780
   5   H   :   -0.006115687   -0.006008057   -0.002595442
   6   C   :   -0.005191465    0.004283594   -0.014471445
   7   H   :    0.004868297    0.004960655    0.000425941
   8   H   :   -0.000919740    0.005152910   -0.006437710
   9   C   :    0.006087211   -0.010509964    0.003782929
  10   H   :    0.000539033   -0.004841080    0.006985917
  11   H   :    0.000449864    0.005547847    0.005868600
  12   N   :   -0.001247153    0.004578039   -0.000179569
  13   H   :   -0.004360189    0.004006661    0.003250840
  14   H   :   -0.001636687    0.006510901   -0.002063887
  15   H   :    0.001315500   -0.003272814   -0.002792768
  16   H   :    0.000800000   -0.004172360   -0.000243625

Difference to translation invariance:
           :    0.0001726706    0.0001223899    0.0001372317

Difference to rotation invariance:
           :    0.0004082476    0.0009002962   -0.0007192943

Norm of the cartesian gradient     ...    0.0373285099
RMS gradient                       ...    0.0053879063
MAX gradient                       ...    0.0144714453

-------
TIMINGS
-------

Total SCF gradient time            ...        5.132 sec

One electron gradient       ....       0.040 sec  (  0.8%)
RI-J Coulomb gradient       ....       0.226 sec  (  4.4%)
COSX gradient               ....       3.517 sec  ( 68.5%)
XC gradient                 ....       1.046 sec  ( 20.4%)

Maximum memory used throughout the entire SCFGRAD-calculation: 38.4 MB
------------------------------------------------------------------------------
                         ORCA GEOMETRY RELAXATION STEP
------------------------------------------------------------------------------

Reading the OPT-File                    .... done
Getting information on internals        .... done
Copying old internal coords+grads       .... done
Making the new internal coordinates     .... (new redundants).... done
Validating the new internal coordinates .... (new redundants).... done
Calculating the B-matrix                .... done
Calculating the G,G- and P matrices     .... done
Transforming gradient to internals      .... done
Projecting the internal gradient        .... done
Number of atoms                         ....  16
Number of internal coordinates          ....  75
Current Energy                          ....  -213.586386064 Eh
Current gradient norm                   ....     0.037328510 Eh/bohr
Maximum allowed component of the step   ....  0.300
Current trust radius                    ....  0.300
Evaluating the initial hessian          ....  (Almloef) done
Projecting the Hessian                  .... done
Forming the augmented Hessian           .... done
Diagonalizing the augmented Hessian     .... done
Last element of RFO vector              ....  0.992406421
Lowest eigenvalues of augmented Hessian:
 -0.002316846  0.010583996  0.010799644  0.011437087  0.016808454
Length of the computed step             ....  0.123943189
The final length of the internal step   ....  0.123943189
Converting the step to cartesian space:
 Initial RMS(Int)=    0.0143117267
Transforming coordinates:
 Iter   0:  RMS(Cart)=    0.0209332880 RMS(Int)=    0.7241553443
 Iter   1:  RMS(Cart)=    0.0002282849 RMS(Int)=    0.0001459127
 Iter   2:  RMS(Cart)=    0.0000037115 RMS(Int)=    0.0000025461
 Iter   3:  RMS(Cart)=    0.0000000981 RMS(Int)=    0.0000000615
done
Storing new coordinates                 .... done

                                .--------------------.
          ----------------------|Geometry convergence|-------------------------
          Item                value                   Tolerance       Converged
          ---------------------------------------------------------------------
          RMS gradient        0.0030677686            0.0001000000      NO
          MAX gradient        0.0090016908            0.0003000000      NO
          RMS step            0.0143117267            0.0020000000      NO
          MAX step            0.0340615013            0.0040000000      NO
          ........................................................
          Max(Bonds)      0.0131      Max(Angles)    0.96
          Max(Dihed)        1.95      Max(Improp)    0.00
          ---------------------------------------------------------------------

The optimization has not yet converged - more geometry cycles are needed


    ---------------------------------------------------------------------------
                         Redundant Internal Coordinates
                            (Angstroem and degrees)

        Definition                    Value    dE/dq     Step     New-Value
    ----------------------------------------------------------------------------
     1. B(C   1,C   0)                1.5264 -0.002758  0.0038    1.5303   
     2. B(H   2,C   0)                1.0881 -0.009002  0.0131    1.1011   
     3. B(H   3,C   0)                1.0883 -0.009001  0.0131    1.1014   
     4. B(H   4,C   0)                1.0872 -0.008928  0.0129    1.1001   
     5. B(C   5,C   1)                1.5348 -0.002664  0.0038    1.5386   
     6. B(H   6,C   1)                1.0923 -0.006535  0.0096    1.1019   
     7. B(H   7,C   1)                1.0929 -0.007968  0.0118    1.1047   
     8. B(C   8,C   5)                1.5381  0.001415 -0.0021    1.5360   
     9. B(H   9,C   5)                1.0930 -0.008248  0.0122    1.1052   
    10. B(H  10,C   5)                1.0918 -0.007796  0.0115    1.1033   
    11. B(N  11,C   8)                1.4530 -0.003846  0.0046    1.4576   
    12. B(H  12,C   8)                1.0950 -0.005760  0.0086    1.1036   
    13. B(H  13,C   8)                1.0940 -0.006443  0.0095    1.1035   
    14. B(H  14,N  11)                1.0137 -0.003279  0.0040    1.0177   
    15. B(H  15,N  11)                1.0145 -0.003251  0.0040    1.0185   
    16. A(H   3,C   0,H   4)          108.19  0.001191   -0.41    107.78   
    17. A(C   1,C   0,H   4)          111.75  0.000350   -0.09    111.66   
    18. A(C   1,C   0,H   2)          110.20 -0.003182    0.66    110.86   
    19. A(H   2,C   0,H   3)          108.23  0.001928   -0.27    107.96   
    20. A(H   2,C   0,H   4)          108.08  0.001146   -0.11    107.98   
    21. A(C   1,C   0,H   3)          110.28 -0.001253    0.18    110.47   
    22. A(C   0,C   1,C   5)          113.51 -0.002015    0.57    114.08   
    23. A(H   6,C   1,H   7)          107.20  0.000945   -0.78    106.41   
    24. A(C   5,C   1,H   7)          109.30  0.000796   -0.17    109.12   
    25. A(C   0,C   1,H   7)          109.67  0.000227   -0.04    109.64   
    26. A(C   5,C   1,H   6)          108.94 -0.000176    0.24    109.18   
    27. A(C   0,C   1,H   6)          108.03  0.000375    0.12    108.15   
    28. A(C   8,C   5,H   9)          109.24  0.000701   -0.21    109.02   
    29. A(C   1,C   5,H   9)          109.48  0.000185   -0.09    109.39   
    30. A(C   1,C   5,C   8)          114.16 -0.001445    0.44    114.60   
    31. A(H   9,C   5,H  10)          107.45  0.000925   -0.70    106.75   
    32. A(C   8,C   5,H  10)          107.03 -0.000132    0.25    107.28   
    33. A(C   1,C   5,H  10)          109.26 -0.000103    0.25    109.51   
    34. A(H  12,C   8,H  13)          107.72  0.001421   -0.96    106.76   
    35. A(N  11,C   8,H  13)          107.35 -0.000174    0.05    107.40   
    36. A(C   5,C   8,H  13)          109.22  0.001139   -0.41    108.81   
    37. A(N  11,C   8,H  12)          107.06 -0.001038    0.61    107.68   
    38. A(C   5,C   8,H  12)          108.49  0.000489    0.06    108.55   
    39. A(C   5,C   8,N  11)          116.67 -0.001636    0.53    117.20   
    40. A(H  14,N  11,H  15)          107.72  0.003153   -0.43    107.29   
    41. A(C   8,N  11,H  15)          109.68 -0.003281    0.62    110.30   
    42. A(C   8,N  11,H  14)          109.84 -0.004091    0.76    110.60   
    43. D(H   6,C   1,C   0,H   4)    178.78  0.000312    0.26    179.04   
    44. D(C   5,C   1,C   0,H   3)     60.07 -0.000049    0.55     60.63   
    45. D(H   7,C   1,C   0,H   3)   -177.37 -0.000261    0.70   -176.66   
    46. D(H   6,C   1,C   0,H   2)     58.59  0.000786    0.01     58.60   
    47. D(C   5,C   1,C   0,H   4)    -60.30 -0.000936    1.00    -59.30   
    48. D(H   6,C   1,C   0,H   3)    -60.84  0.001200   -0.19    -61.03   
    49. D(H   7,C   1,C   0,H   4)     62.26 -0.001148    1.15     63.41   
    50. D(C   5,C   1,C   0,H   2)    179.51 -0.000462    0.75    180.26   
    51. D(H   7,C   1,C   0,H   2)    -57.93 -0.000675    0.90    -57.03   
    52. D(H   9,C   5,C   1,H   6)     90.43 -0.000279   -0.40     90.03   
    53. D(C   8,C   5,C   1,H   7)    -29.94  0.001233   -1.34    -31.28   
    54. D(C   8,C   5,C   1,H   6)   -146.77 -0.000248   -0.44   -147.21   
    55. D(C   8,C   5,C   1,C   0)     92.83  0.000715   -1.12     91.71   
    56. D(H   9,C   5,C   1,H   7)   -152.74  0.001202   -1.31   -154.05   
    57. D(H  10,C   5,C   1,H   7)     89.84  0.000038   -0.55     89.29   
    58. D(H  10,C   5,C   1,H   6)    -26.99 -0.001444    0.35    -26.63   
    59. D(H  10,C   5,C   1,C   0)   -147.39 -0.000480   -0.33   -147.72   
    60. D(H   9,C   5,C   1,C   0)    -29.97  0.000685   -1.09    -31.06   
    61. D(H  13,C   8,C   5,H   9)   -179.22 -0.001840    1.95   -177.27   
    62. D(H  13,C   8,C   5,C   1)     57.85 -0.001594    1.92     59.77   
    63. D(H  12,C   8,C   5,H  10)     53.98  0.002142   -0.19     53.79   
    64. D(H  12,C   8,C   5,H   9)    -62.06  0.000766    0.61    -61.45   
    65. D(H  12,C   8,C   5,C   1)    175.01  0.001012    0.58    175.59   
    66. D(N  11,C   8,C   5,H  10)    174.92  0.000030    1.03    175.95   
    67. D(N  11,C   8,C   5,H   9)     58.88 -0.001345    1.83     60.71   
    68. D(H  13,C   8,C   5,H  10)    -63.18 -0.000464    1.15    -62.03   
    69. D(N  11,C   8,C   5,C   1)    -64.05 -0.001100    1.80    -62.25   
    70. D(H  15,N  11,C   8,C   5)    -54.45  0.000720   -0.30    -54.76   
    71. D(H  14,N  11,C   8,H  13)    -59.13 -0.000080    0.13    -58.99   
    72. D(H  14,N  11,C   8,H  12)   -174.56 -0.001127    0.92   -173.64   
    73. D(H  14,N  11,C   8,C   5)     63.75  0.000142    0.00     63.75   
    74. D(H  15,N  11,C   8,H  13)   -177.33  0.000498   -0.17   -177.51   
    75. D(H  15,N  11,C   8,H  12)     67.23 -0.000549    0.61     67.85   
    ----------------------------------------------------------------------------

         *************************************************************
         *                GEOMETRY OPTIMIZATION CYCLE   2            *
         *************************************************************
---------------------------------
CARTESIAN COORDINATES (ANGSTROEM)
---------------------------------
  C     -1.777917    0.824018    0.368281
  C     -1.218354   -0.576035    0.106718
  H     -2.618664    0.783945    1.078202
  H     -2.145091    1.273095   -0.567988
  H     -1.012950    1.495552    0.785547
  C     -0.032672   -0.605009   -0.873442
  H     -2.032820   -1.202080   -0.291944
  H     -0.909512   -1.036819    1.062033
  C      1.348635   -0.503562   -0.209270
  H     -0.141634    0.215850   -1.605371
  H     -0.051870   -1.547148   -1.447179
  N      1.641741    0.714538    0.535640
  H      2.121836   -0.613725   -0.988925
  H      1.473101   -1.352668    0.484447
  H      1.016655    0.805430    1.333601
  H      1.499886    1.532425   -0.054506

----------------------------
CARTESIAN COORDINATES (A.U.)
----------------------------
  NO LB      ZA    FRAG     MASS         X           Y           Z
   0 C     6.0000    0    12.011   -3.359776    1.557168    0.695951
   1 C     6.0000    0    12.011   -2.302355   -1.088548    0.201668
   2 H     1.0000    0     1.008   -4.948558    1.481441    2.037507
   3 H     1.0000    0     1.008   -4.053634    2.405801   -1.073341
   4 H     1.0000    0     1.008   -1.914198    2.826184    1.484469
   5 C     6.0000    0    12.011   -0.061742   -1.143302   -1.650567
   6 H     1.0000    0     1.008   -3.841474   -2.271602   -0.551695
   7 H     1.0000    0     1.008   -1.718729   -1.959304    2.006952
   8 C     6.0000    0    12.011    2.548550   -0.951594   -0.395464
   9 H     1.0000    0     1.008   -0.267649    0.407898   -3.033712
  10 H     1.0000    0     1.008   -0.098021   -2.923687   -2.734772
  11 N     7.0000    0    14.007    3.102441    1.350280    1.012213
  12 H     1.0000    0     1.008    4.009690   -1.159772   -1.868797
  13 H     1.0000    0     1.008    2.783757   -2.556172    0.915472
  14 H     1.0000    0     1.008    1.921200    1.522042    2.520141
  15 H     1.0000    0     1.008    2.834375    2.895863   -0.103001

--------------------------------
INTERNAL COORDINATES (ANGSTROEM)
--------------------------------
 C      0   0   0     0.000000000000     0.00000000     0.00000000
 C      1   0   0     1.530252627252     0.00000000     0.00000000
 H      1   2   0     1.101112539368   110.86139196     0.00000000
 H      1   2   3     1.101402390399   110.46542727   240.36658637
 H      1   2   3     1.100110404262   111.65709935   120.44185750
 C      2   1   3     1.538634079838   114.07307253   180.26042127
 H      2   1   3     1.101916570874   108.14150012    58.59937506
 H      2   1   3     1.104686468743   109.63596618   302.96853797
 C      6   2   1     1.536042209272   114.60039285    91.70456186
 H      6   2   1     1.105171198453   109.38591672   328.94171562
 H      6   2   1     1.103253410763   109.50899862   212.27855125
 N      9   6   2     1.457589899302   117.19384486   297.75183023
 H      9   6   2     1.103556961213   108.54143167   175.58893539
 H      9   6   2     1.103502148335   108.81017914    59.77287153
 H     12   9   6     1.017710883843   110.59939331    63.75393039
 H     12   9   6     1.018495733382   110.30168173   305.23774326

---------------------------
INTERNAL COORDINATES (A.U.)
---------------------------
 C      0   0   0     0.000000000000     0.00000000     0.00000000
 C      1   0   0     2.891758381220     0.00000000     0.00000000
 H      1   2   0     2.080801142031   110.86139196     0.00000000
 H      1   2   3     2.081348881099   110.46542727   240.36658637
 H      1   2   3     2.078907381132   111.65709935   120.44185750
 C      2   1   3     2.907597031212   114.07307253   180.26042127
 H      2   1   3     2.082320541382   108.14150012    58.59937506
 H      2   1   3     2.087554889773   109.63596618   302.96853797
 C      6   2   1     2.902699105668   114.60039285    91.70456186
 H      6   2   1     2.088470896174   109.38591672   328.94171562
 H      6   2   1     2.084846802657   109.50899862   212.27855125
 N      9   6   2     2.754445725250   117.19384486   297.75183023
 H      9   6   2     2.085420429875   108.54143167   175.58893539
 H      9   6   2     2.085316848547   108.81017914    59.77287153
 H     12   9   6     1.923194853974   110.59939331    63.75393039
 H     12   9   6     1.924678004659   110.30168173   305.23774326



           ************************************************************
           *        Program running with 4 parallel MPI-processes     *
           *              working on a common directory               *
           ************************************************************
------------------------------------------------------------------------------
                   ___                                                        
                  /   \      - P O W E R E D   B Y -                         
                 /     \                                                     
                 |  |  |   _    _      __       _____    __    __             
                 |  |  |  | |  | |    /  \     |  _  \  |  |  /  |          
                  \  \/   | |  | |   /    \    | | | |  |  | /  /          
                 / \  \   | |__| |  /  /\  \   | |_| |  |  |/  /          
                |  |  |   |  __  | /  /__\  \  |    /   |      \           
                |  |  |   | |  | | |   __   |  |    \   |  |\   \          
                \     /   | |  | | |  |  |  |  | |\  \  |  | \   \       
                 \___/    |_|  |_| |__|  |__|  |_| \__\ |__|  \__/        
                                                                              
[...]
     37      -0.189038  -0.229142  -0.475411   0.202463   0.251480  -0.057476
     38      -0.121242   0.015751   0.224558  -0.102689  -0.139977   0.060811
     39       0.057771   0.136437   0.316061  -0.181825  -0.153120   0.060251
     40      -0.025221  -0.033005  -0.211769   0.047803   0.138207  -0.022791
     41      -0.046919  -0.098198  -0.388723   0.125426   0.238726  -0.050998
     42       0.015988   0.004185  -0.004711  -0.011980   0.018109  -0.006783
     43       0.015799   0.024311  -0.012241  -0.017302   0.045704  -0.002621
     44       0.018647   0.011520  -0.005308  -0.012630   0.013516  -0.005276
     45       0.011083  -0.015230   0.002642   0.005718  -0.002404   0.006812
     46      -0.018082  -0.036374   0.007011   0.011455   0.003370   0.001889
     47      -0.019000  -0.040618   0.005291   0.013764   0.011852  -0.001101
                 36         37         38         39         40         41    
      0      -0.000674   0.000237  -0.005089  -0.001603  -0.024518   0.002035
      1      -0.002268  -0.002623   0.003879   0.002144   0.046327   0.000543
      2      -0.001619   0.000499   0.004462  -0.000092   0.000700   0.005471
      3      -0.000308   0.004377   0.012438   0.000053   0.001244  -0.022818
      4      -0.001813   0.003021   0.053603   0.000708  -0.008878  -0.003495
      5      -0.000055   0.005438  -0.045357  -0.002247   0.007842  -0.027912
      6       0.011008  -0.015367   0.092960   0.021946   0.419854   0.020847
      7       0.010553  -0.002459   0.008398   0.001431   0.018498   0.000643
      8       0.013257   0.014376  -0.080810  -0.020025  -0.369380  -0.015589
      9       0.007773  -0.010006   0.018626   0.011054   0.217726  -0.011762
     10       0.005491   0.011455  -0.024380  -0.013806  -0.263403   0.015116
     11      -0.001417  -0.029510   0.050698   0.028822   0.547334  -0.033770
     12      -0.014740   0.024732  -0.051395  -0.014766  -0.359510  -0.031802
     13       0.009053   0.019195  -0.039207  -0.012253  -0.284663  -0.026067
     14       0.008424   0.012121  -0.023322  -0.007784  -0.181667  -0.015688
     15       0.006403  -0.007695  -0.000643   0.003122  -0.000117  -0.002946
     16       0.000870   0.010872  -0.009435  -0.013732   0.002436   0.073999
     17       0.001657  -0.069125  -0.000235   0.011454  -0.003885   0.006142
     18      -0.007452  -0.056847  -0.361952  -0.002772   0.027704   0.210295
     19       0.010956  -0.042980  -0.258142  -0.000466   0.022271   0.156188
     20      -0.003294  -0.032737  -0.195558   0.000505   0.017300   0.107471
     21       0.006290  -0.006859   0.223836   0.005582  -0.035534   0.063245
     22       0.007760   0.014806  -0.369339  -0.011993   0.061490  -0.113004
     23       0.004234  -0.025816   0.732157   0.025971  -0.116037   0.218528
     24      -0.033031  -0.010368   0.001647  -0.047325   0.001486  -0.020927
     25      -0.010066   0.005743  -0.003213   0.050791  -0.001799  -0.011108
     26      -0.017270   0.008679   0.000296   0.000935   0.000746   0.034772
     27       0.000935   0.090188  -0.006921  -0.022777   0.004439   0.042203
     28       0.001336  -0.591858   0.034956   0.146114  -0.038518  -0.273847
     29       0.002540   0.568242  -0.036413  -0.144835   0.038931   0.276936
     30      -0.003305   0.002919   0.003165  -0.005734  -0.001609  -0.008332
     31      -0.000614   0.455102   0.078820   0.017328   0.010199  -0.608210
     32       0.005664   0.240500   0.041728   0.010368   0.006602  -0.342118
     33      -0.008997   0.000006   0.000208   0.001022   0.000282   0.000719
     34       0.071379  -0.000015   0.000039  -0.000518  -0.000134  -0.000040
     35       0.036674  -0.000039  -0.000007   0.000199  -0.000203  -0.000719
     36       0.042190   0.127062  -0.017406   0.454811  -0.012572   0.274488
     37       0.052766  -0.017107   0.001348  -0.049823   0.000937  -0.035239
     38       0.047282  -0.136372   0.020326  -0.466668   0.011398  -0.274441
     39       0.039534   0.005908  -0.001948   0.092461  -0.003908  -0.030234
     40       0.047144  -0.046028   0.030767  -0.555382   0.022320   0.173734
     41       0.040170   0.038814  -0.024135   0.451626  -0.018172  -0.137726
     42       0.081908  -0.001118  -0.000908  -0.005209  -0.000053  -0.006669
     43      -0.678826   0.000334   0.001784   0.001736  -0.000687  -0.000233
     44       0.142595   0.000980   0.001764   0.004071   0.002205   0.004353
     45       0.289879  -0.000452  -0.000489  -0.003624   0.000558  -0.000155
     46      -0.299295  -0.002985   0.000237   0.008748  -0.000406  -0.002739
     47      -0.563073  -0.000551   0.000233  -0.004577  -0.000074   0.001924
                 42         43         44         45         46         47    
      0       0.008574   0.000960  -0.006874  -0.084966  -0.000309  -0.000117
      1       0.004240   0.000677  -0.015353  -0.034788  -0.000326  -0.000199
      2       0.010661  -0.001707   0.091038  -0.010275  -0.000203   0.000001
      3      -0.059459  -0.001586   0.006730  -0.008493  -0.000089  -0.000061
      4      -0.022495  -0.003695  -0.000940  -0.003865  -0.000159  -0.000061
      5      -0.053995   0.001925   0.010081  -0.006558   0.000111   0.000082
      6       0.018459  -0.014066   0.485693   0.376143   0.001943   0.001022
      7      -0.000205  -0.000471   0.014669   0.009262   0.000469   0.000067
      8      -0.011356   0.011675  -0.411485  -0.340023  -0.000728  -0.000477
      9      -0.024756   0.002311  -0.250248   0.051216   0.000339  -0.000003
     10       0.033053  -0.002529   0.302349  -0.084178  -0.000361  -0.000052
     11      -0.067958   0.008072  -0.607978   0.158247   0.000664  -0.000263
     12      -0.098608  -0.001834  -0.156805   0.593773   0.005086   0.003547
     13      -0.078807  -0.001219  -0.130014   0.487988   0.003778   0.001950
     14      -0.047837  -0.000691  -0.065503   0.305375   0.003265   0.002037
     15       0.000852   0.002337   0.000269   0.000383  -0.000092   0.000090
     16      -0.027905  -0.044977  -0.001516  -0.001435   0.000433  -0.000164
     17      -0.010091   0.003767   0.000807  -0.000239  -0.000107   0.000186
     18       0.602518   0.031525  -0.053901   0.085035   0.000099  -0.000087
     19       0.445221   0.024073  -0.040438   0.065256   0.000434  -0.000018
     20       0.306273   0.015561  -0.028580   0.044201  -0.000074  -0.000133
     21       0.096952  -0.008420  -0.026623   0.011024  -0.000546  -0.000503
     22      -0.183860   0.018196   0.047380  -0.018756   0.000721   0.000683
     23       0.345708  -0.039234  -0.086866   0.034484  -0.001645  -0.001237
     24       0.008827  -0.027623  -0.000339   0.000464   0.002714   0.000769
     25       0.004792  -0.037633  -0.000200  -0.000587   0.000478   0.001089
     26      -0.014348   0.068476   0.000787  -0.000207   0.001509  -0.001545
     27      -0.009702  -0.036268  -0.000034  -0.000681  -0.001610   0.000829
     28       0.050654   0.217777   0.013519   0.004377  -0.001972   0.001313
     29      -0.054452  -0.218231  -0.015233  -0.005187   0.000359  -0.000510
     30       0.003508   0.004610  -0.000437   0.000010   0.000901   0.000006
     31       0.286222   0.316519   0.004438   0.011437   0.001864  -0.000141
     32       0.161602   0.177785   0.001436   0.006398   0.001111   0.000134
     33      -0.000107   0.000618   0.000152  -0.001025   0.030370   0.023978
     34      -0.000043   0.001088  -0.000120   0.000476  -0.048071   0.033034
     35       0.000248  -0.001316  -0.000037   0.000385  -0.008103  -0.070009
     36      -0.113541   0.417891   0.004686  -0.003660  -0.005858  -0.006723
     37       0.013106  -0.052031  -0.000441   0.000817  -0.001689   0.000267
     38       0.112778  -0.419026  -0.005148   0.004299   0.005089   0.008037
     39       0.015137  -0.091246  -0.001843  -0.000501  -0.001369  -0.000045
     40      -0.074861   0.491165   0.004817   0.003830   0.005063  -0.008463
     41       0.059657  -0.394949  -0.004128  -0.002998  -0.006688   0.007430
     42       0.002708  -0.009197  -0.000374   0.004454  -0.349096  -0.445703
     43       0.001774  -0.002354  -0.000589   0.000183   0.027995   0.054859
     44       0.000640   0.005296   0.000301  -0.005778   0.531004   0.626286
     45      -0.000184   0.004880   0.000316   0.000971  -0.098396   0.106353
     46       0.001209  -0.003922   0.000572  -0.002172   0.626605  -0.517426
     47      -0.000945   0.008606  -0.000195   0.001533  -0.435375   0.346740


-----------
IR SPECTRUM
-----------

 Mode   freq       eps      Int      T**2         TX        TY        TZ
       cm**-1   L/(mol*cm) km/mol    a.u.
----------------------------------------------------------------------------
  6:     81.63   0.000002    0.01  0.000006  ( 0.000735 -0.001154 -0.002023)
  7:    158.48   0.000469    2.37  0.000923  ( 0.002541  0.021642 -0.021160)
  8:    223.02   0.000215    1.09  0.000301  ( 0.013369  0.005682 -0.009484)
  9:    292.53   0.001595    8.06  0.001702  (-0.007060  0.002087 -0.040592)
 10:    335.77   0.007624   38.53  0.007085  (-0.026751 -0.047798  0.063915)
 11:    363.80   0.000481    2.43  0.000413  ( 0.007046 -0.001544  0.018987)
 12:    484.60   0.001545    7.81  0.000995  ( 0.013615  0.012916  0.025348)
 13:    752.91   0.000843    4.26  0.000349  ( 0.017810 -0.000365  0.005660)
 14:    798.93   0.027999  141.49  0.010936  (-0.085131 -0.042513 -0.043377)
 15:    833.36   0.006340   32.04  0.002374  ( 0.040445  0.020500  0.017830)
 16:    852.91   0.011166   56.43  0.004085  ( 0.056468  0.018836  0.023282)
 17:    933.25   0.000650    3.28  0.000217  ( 0.014709  0.000716 -0.000684)
 18:    985.72   0.002568   12.98  0.000813  ( 0.026899 -0.003490  0.008788)
 19:   1061.31   0.000223    1.13  0.000066  ( 0.003722 -0.006854  0.002200)
 20:   1066.82   0.001812    9.16  0.000530  (-0.007586 -0.009001 -0.019788)
 21:   1121.46   0.000824    4.16  0.000229  ( 0.013293  0.002167  0.006911)
 22:   1176.30   0.002800   14.15  0.000743  (-0.005868 -0.022784 -0.013753)
 23:   1212.94   0.000042    0.21  0.000011  ( 0.000208 -0.002973 -0.001427)
 24:   1277.15   0.000900    4.55  0.000220  (-0.014374  0.001927  0.003089)
 25:   1293.66   0.000159    0.80  0.000038  ( 0.005613  0.001132  0.002365)
 26:   1356.70   0.000247    1.25  0.000057  ( 0.006183  0.003889  0.001836)
 27:   1382.49   0.000071    0.36  0.000016  (-0.002673 -0.002400 -0.001785)
 28:   1403.68   0.001078    5.45  0.000240  ( 0.013240  0.005430  0.005909)
 29:   1404.36   0.002366   11.95  0.000526  (-0.007866 -0.017727 -0.012228)
 30:   1412.07   0.001119    5.66  0.000247  (-0.006035  0.014167  0.003190)
 31:   1461.03   0.000637    3.22  0.000136  ( 0.002217 -0.003027  0.011048)
 32:   1468.63   0.000985    4.98  0.000209  ( 0.013104 -0.000127  0.006121)
 33:   1472.63   0.000741    3.75  0.000157  (-0.000859  0.008955 -0.008728)
 34:   1474.72   0.001285    6.49  0.000272  ( 0.001994  0.005363  0.015466)
 35:   1488.86   0.000829    4.19  0.000174  (-0.009729 -0.007647  0.004551)
 36:   1646.10   0.003825   19.33  0.000725  ( 0.016780 -0.019355 -0.008301)
 37:   3046.89   0.004721   23.86  0.000484  (-0.003558  0.004800 -0.021163)
 38:   3056.39   0.005407   27.33  0.000552  ( 0.005221  0.018565 -0.013424)
 39:   3059.49   0.008171   41.29  0.000833  (-0.020259  0.019489  0.006574)
 40:   3067.09   0.003592   18.15  0.000366  (-0.010034  0.015823  0.003805)
 41:   3105.81   0.005752   29.07  0.000578  (-0.014736  0.017600  0.007143)
 42:   3114.10   0.005221   26.38  0.000523  (-0.010581 -0.011397 -0.016774)
 43:   3115.74   0.008497   42.94  0.000851  (-0.007214 -0.021121  0.018785)
 44:   3157.96   0.005287   26.72  0.000522  (-0.000895 -0.002899  0.022655)
 45:   3173.76   0.005854   29.58  0.000576  (-0.021889 -0.008978 -0.003986)
 46:   3568.03   0.000033    0.17  0.000003  ( 0.000708  0.001486  0.000466)
 47:   3656.61   0.000565    2.85  0.000048  (-0.001620 -0.002665  0.006201)

* The epsilon (eps) is given for a Dirac delta lineshape.
** The dipole moment derivative (T) already includes vibrational overlap.

The first frequency considered to be a vibration is 6
The total number of vibrations considered is 42


--------------------------
THERMOCHEMISTRY AT 298.15K
--------------------------

Temperature         ... 298.15 K
Pressure            ... 1.00 atm
Total Mass          ... 73.14 AMU

Throughout the following assumptions are being made:
  (1) The electronic state is orbitally nondegenerate
  (2) There are no thermally accessible electronically excited states
  (3) Hindered rotations indicated by low frequency modes are not
      treated as such but are treated as vibrations and this may
      cause some error
  (4) All equations used are the standard statistical mechanics
      equations for an ideal gas
  (5) All vibrations are strictly harmonic

freq.      81.63  E(vib)   ...       0.48 
freq.     158.48  E(vib)   ...       0.39 
freq.     223.02  E(vib)   ...       0.33 
freq.     292.53  E(vib)   ...       0.27 
freq.     335.77  E(vib)   ...       0.24 
freq.     363.80  E(vib)   ...       0.22 
freq.     484.60  E(vib)   ...       0.15 
freq.     752.91  E(vib)   ...       0.06 
freq.     798.93  E(vib)   ...       0.05 
freq.     833.36  E(vib)   ...       0.04 
freq.     852.91  E(vib)   ...       0.04 
freq.     933.25  E(vib)   ...       0.03 
freq.     985.72  E(vib)   ...       0.02 
freq.    1061.31  E(vib)   ...       0.02 
freq.    1066.82  E(vib)   ...       0.02 
freq.    1121.46  E(vib)   ...       0.01 
freq.    1176.30  E(vib)   ...       0.01 
freq.    1212.94  E(vib)   ...       0.01 
freq.    1277.15  E(vib)   ...       0.01 
freq.    1293.66  E(vib)   ...       0.01 
freq.    1356.70  E(vib)   ...       0.01 
freq.    1382.49  E(vib)   ...       0.01 
freq.    1403.68  E(vib)   ...       0.00 
freq.    1404.36  E(vib)   ...       0.00 
freq.    1412.07  E(vib)   ...       0.00 
freq.    1461.03  E(vib)   ...       0.00 
freq.    1468.63  E(vib)   ...       0.00 
freq.    1472.63  E(vib)   ...       0.00 
freq.    1474.72  E(vib)   ...       0.00 
freq.    1488.86  E(vib)   ...       0.00 
freq.    1646.10  E(vib)   ...       0.00 
freq.    3046.89  E(vib)   ...       0.00 
freq.    3056.39  E(vib)   ...       0.00 
freq.    3059.49  E(vib)   ...       0.00 
freq.    3067.09  E(vib)   ...       0.00 
freq.    3105.81  E(vib)   ...       0.00 
freq.    3114.10  E(vib)   ...       0.00 
freq.    3115.74  E(vib)   ...       0.00 
freq.    3157.96  E(vib)   ...       0.00 
freq.    3173.76  E(vib)   ...       0.00 
freq.    3568.03  E(vib)   ...       0.00 
freq.    3656.61  E(vib)   ...       0.00 

------------
INNER ENERGY
------------

The inner energy is: U= E(el) + E(ZPE) + E(vib) + E(rot) + E(trans)
    E(el)   - is the total energy from the electronic structure calculation
              = E(kin-el) + E(nuc-el) + E(el-el) + E(nuc-nuc)
    E(ZPE)  - the the zero temperature vibrational energy from the frequency calculation
    E(vib)  - the the finite temperature correction to E(ZPE) due to population
              of excited vibrational states
    E(rot)  - is the rotational thermal energy
    E(trans)- is the translational thermal energy

Summary of contributions to the inner energy U:
Electronic energy                ...   -213.58801916 Eh
Zero point energy                ...      0.15126954 Eh      94.92 kcal/mol
Thermal vibrational correction   ...      0.00391309 Eh       2.46 kcal/mol
Thermal rotational correction    ...      0.00141627 Eh       0.89 kcal/mol
Thermal translational correction ...      0.00141627 Eh       0.89 kcal/mol
-----------------------------------------------------------------------
Total thermal energy                   -213.43000399 Eh


Summary of corrections to the electronic energy:
(perhaps to be used in another calculation)
Total thermal correction                  0.00674563 Eh       4.23 kcal/mol
Non-thermal (ZPE) correction              0.15126954 Eh      94.92 kcal/mol
-----------------------------------------------------------------------
Total correction                          0.15801517 Eh      99.16 kcal/mol


--------
ENTHALPY
--------

The enthalpy is H = U + kB*T
                kB is Boltzmann's constant
Total free energy                 ...   -213.43000399 Eh 
Thermal Enthalpy correction       ...      0.00094421 Eh       0.59 kcal/mol
-----------------------------------------------------------------------
Total Enthalpy                    ...   -213.42905978 Eh


Note: Only C1 symmetry has been detected, increase convergence thresholds 
      if your molecule has a higher symmetry. Symmetry factor of 1.0 is   
      used for the rotational entropy correction. 
 

Note: Rotational entropy computed according to Herzberg 
Infrared and Raman Spectra, Chapter V,1, Van Nostrand Reinhold, 1945 
Point Group:  C1, Symmetry Number:   1  
Rotational constants in cm-1:     0.246104     0.109052     0.085514 

Vibrational entropy computed according to the QRRHO of S. Grimme
Chem.Eur.J. 2012 18 9955


-------
ENTROPY
-------

The entropy contributions are T*S = T*(S(el)+S(vib)+S(rot)+S(trans))
     S(el)   - electronic entropy
     S(vib)  - vibrational entropy
     S(rot)  - rotational entropy
     S(trans)- translational entropy
The entropies will be listed as multiplied by the temperature to get
units of energy

Electronic entropy                ...      0.00000000 Eh      0.00 kcal/mol
Vibrational entropy               ...      0.00657182 Eh      4.12 kcal/mol
Rotational entropy                ...      0.01237971 Eh      7.77 kcal/mol
Translational entropy             ...      0.01842822 Eh     11.56 kcal/mol
-----------------------------------------------------------------------
Final entropy term                ...      0.03737975 Eh     23.46 kcal/mol

In case the symmetry of your molecule has not been determined correctly
or in case you have a reason to use a different symmetry number we print 
out the resulting rotational entropy values for sn=1,12 :
 --------------------------------------------------------
|  sn= 1 | S(rot)=       0.01237971 Eh      7.77 kcal/mol|
|  sn= 2 | S(rot)=       0.01172525 Eh      7.36 kcal/mol|
|  sn= 3 | S(rot)=       0.01134242 Eh      7.12 kcal/mol|
|  sn= 4 | S(rot)=       0.01107079 Eh      6.95 kcal/mol|
|  sn= 5 | S(rot)=       0.01086011 Eh      6.81 kcal/mol|
|  sn= 6 | S(rot)=       0.01068796 Eh      6.71 kcal/mol|
|  sn= 7 | S(rot)=       0.01054242 Eh      6.62 kcal/mol|
|  sn= 8 | S(rot)=       0.01041634 Eh      6.54 kcal/mol|
|  sn= 9 | S(rot)=       0.01030513 Eh      6.47 kcal/mol|
|  sn=10 | S(rot)=       0.01020565 Eh      6.40 kcal/mol|
|  sn=11 | S(rot)=       0.01011566 Eh      6.35 kcal/mol|
|  sn=12 | S(rot)=       0.01003351 Eh      6.30 kcal/mol|
 --------------------------------------------------------


-------------------
GIBBS FREE ENERGY
-------------------

The Gibbs free energy is G = H - T*S

Total enthalpy                    ...   -213.42905978 Eh 
Total entropy correction          ...     -0.03737975 Eh    -23.46 kcal/mol
-----------------------------------------------------------------------
Final Gibbs free energy         ...   -213.46643952 Eh

For completeness - the Gibbs free energy minus the electronic energy
G-E(el)                           ...      0.12157963 Eh     76.29 kcal/mol


Timings for individual modules:

Sum of individual times         ...      251.624 sec (=   4.194 min)
GTO integral calculation        ...        3.813 sec (=   0.064 min)   1.5 %
SCF iterations                  ...      135.163 sec (=   2.253 min)  53.7 %
SCF Gradient evaluation         ...       37.911 sec (=   0.632 min)  15.1 %
Geometry relaxation             ...        0.280 sec (=   0.005 min)   0.1 %
Analytical frequency calculation...       74.458 sec (=   1.241 min)  29.6 %
                             ****ORCA TERMINATED NORMALLY****
TOTAL RUN TIME: 0 days 0 hours 4 minutes 14 seconds 702 msec
