
                                 *****************
                                 * O   R   C   A *
                                 *****************

                                            #,                                       
                                            ###                                      
                                            ####                                     
                                            #####                                    
                                            ######                                   
                                           ########,                                 
                                     ,,################,,,,,                         
                               ,,#################################,,                 
                          ,,##########################################,,             
                       ,#########################################, ''#####,          
                    ,#############################################,,   '####,        
                  ,##################################################,,,,####,       
                ,###########''''           ''''###############################       
              ,#####''   ,,,,##########,,,,          '''####'''          '####       
            ,##' ,,,,###########################,,,                        '##       
           ' ,,###''''                  '''############,,,                           
         ,,##''                                '''############,,,,        ,,,,,,###''
      ,#''                                            '''#######################'''  
     '                                                          ''''####''''         
             ,#######,   #######,   ,#######,      ##                                
            ,#'     '#,  ##    ##  ,#'     '#,    #''#        ######   ,####,        
            ##       ##  ##   ,#'  ##            #'  '#       #        #'  '#        
            ##       ##  #######   ##           ,######,      #####,   #    #        
            '#,     ,#'  ##    ##  '#,     ,#' ,#      #,         ##   #,  ,#        
             '#######'   ##     ##  '#######'  #'      '#     #####' # '####'        



                  #######################################################
                  #                        -***-                        #
                  #          Department of theory and spectroscopy      #
                  #    Directorship and core code : Frank Neese         #
                  #        Max Planck Institute fuer Kohlenforschung    #
                  #                Kaiser Wilhelm Platz 1               #
                  #                 D-45470 Muelheim/Ruhr               #
                  #                      Germany                        #
                  #                                                     #
                  #                  All rights reserved                #
                  #                        -***-                        #
                  #######################################################


                         Program Version 5.0.4 -  RELEASE  -


 With contributions from (in alphabetic order):
   Daniel Aravena         : Magnetic Suceptibility
   Michael Atanasov       : Ab Initio Ligand Field Theory (pilot matlab implementation)
   Alexander A. Auer      : GIAO ZORA, VPT2 properties, NMR spectrum
   Ute Becker             : Parallelization
   Giovanni Bistoni       : ED, misc. LED, open-shell LED, HFLD
   Martin Brehm           : Molecular dynamics
   Dmytro Bykov           : SCF Hessian
   Vijay G. Chilkuri      : MRCI spin determinant printing, contributions to CSF-ICE
   Dipayan Datta          : RHF DLPNO-CCSD density
   Achintya Kumar Dutta   : EOM-CC, STEOM-CC
   Dmitry Ganyushin       : Spin-Orbit,Spin-Spin,Magnetic field MRCI
   Miquel Garcia          : C-PCM and meta-GGA Hessian, CC/C-PCM, Gaussian charge scheme
   Yang Guo               : DLPNO-NEVPT2, F12-NEVPT2, CIM, IAO-localization
   Andreas Hansen         : Spin unrestricted coupled pair/coupled cluster methods
   Benjamin Helmich-Paris : MC-RPA, TRAH-SCF, COSX integrals
   Lee Huntington         : MR-EOM, pCC
   Robert Izsak           : Overlap fitted RIJCOSX, COSX-SCS-MP3, EOM
   Marcus Kettner         : VPT2
   Christian Kollmar      : KDIIS, OOCD, Brueckner-CCSD(T), CCSD density, CASPT2, CASPT2-K
   Simone Kossmann        : Meta GGA functionals, TD-DFT gradient, OOMP2, MP2 Hessian
   Martin Krupicka        : Initial AUTO-CI
   Lucas Lang             : DCDCAS
   Marvin Lechner         : AUTO-CI (C++ implementation), FIC-MRCC
   Dagmar Lenk            : GEPOL surface, SMD
   Dimitrios Liakos       : Extrapolation schemes; Compound Job, initial MDCI parallelization
   Dimitrios Manganas     : Further ROCIS development; embedding schemes
   Dimitrios Pantazis     : SARC Basis sets
   Anastasios Papadopoulos: AUTO-CI, single reference methods and gradients
   Taras Petrenko         : DFT Hessian,TD-DFT gradient, ASA, ECA, R-Raman, ABS, FL, XAS/XES, NRVS
   Peter Pinski           : DLPNO-MP2, DLPNO-MP2 Gradient
   Christoph Reimann      : Effective Core Potentials
   Marius Retegan         : Local ZFS, SOC
   Christoph Riplinger    : Optimizer, TS searches, QM/MM, DLPNO-CCSD(T), (RO)-DLPNO pert. Triples
   Tobias Risthaus        : Range-separated hybrids, TD-DFT gradient, RPA, STAB
   Michael Roemelt        : Original ROCIS implementation
   Masaaki Saitow         : Open-shell DLPNO-CCSD energy and density
   Barbara Sandhoefer     : DKH picture change effects
   Avijit Sen             : IP-ROCIS
   Kantharuban Sivalingam : CASSCF convergence, NEVPT2, FIC-MRCI
   Bernardo de Souza      : ESD, SOC TD-DFT
   Georgi Stoychev        : AutoAux, RI-MP2 NMR, DLPNO-MP2 response
   Willem Van den Heuvel  : Paramagnetic NMR
   Boris Wezisla          : Elementary symmetry handling
   Frank Wennmohs         : Technical directorship


 We gratefully acknowledge several colleagues who have allowed us to
 interface, adapt or use parts of their codes:
   Stefan Grimme, W. Hujo, H. Kruse, P. Pracht,  : VdW corrections, initial TS optimization,
                  C. Bannwarth, S. Ehlert          DFT functionals, gCP, sTDA/sTD-DF
   Ed Valeev, F. Pavosevic, A. Kumar             : LibInt (2-el integral package), F12 methods
   Garnet Chan, S. Sharma, J. Yang, R. Olivares  : DMRG
   Ulf Ekstrom                                   : XCFun DFT Library
   Mihaly Kallay                                 : mrcc  (arbitrary order and MRCC methods)
   Jiri Pittner, Ondrej Demel                    : Mk-CCSD
   Frank Weinhold                                : gennbo (NPA and NBO analysis)
   Christopher J. Cramer and Donald G. Truhlar   : smd solvation model
   Lars Goerigk                                  : TD-DFT with DH, B97 family of functionals
   V. Asgeirsson, H. Jonsson                     : NEB implementation
   FAccTs GmbH                                   : IRC, NEB, NEB-TS, DLPNO-Multilevel, CI-OPT
                                                   MM, QMMM, 2- and 3-layer-ONIOM, Crystal-QMMM,
                                                   LR-CPCM, SF, NACMEs, symmetry and pop. for TD-DFT,
                                                   nearIR, NL-DFT gradient (VV10), updates on ESD,
                                                   ML-optimized integration grids
   S Lehtola, MJT Oliveira, MAL Marques          : LibXC Library
   Liviu Ungur et al                             : ANISO software


 Your calculation uses the libint2 library for the computation of 2-el integrals
 For citations please refer to: http://libint.valeyev.net

 Your ORCA version has been built with support for libXC version: 5.1.0
 For citations please refer to: https://tddft.org/programs/libxc/

 This ORCA versions uses:
   CBLAS   interface :  Fast vector & matrix operations
   LAPACKE interface :  Fast linear algebra routines
   SCALAPACK package :  Parallel linear algebra routines
   Shared memory     :  Shared parallel matrices
   BLAS/LAPACK       :  OpenBLAS 0.3.15  USE64BITINT DYNAMIC_ARCH NO_AFFINITY SkylakeX SINGLE_THREADED
        Core in use  :  SkylakeX
   Copyright (c) 2011-2014, The OpenBLAS Project




***************************************
The coordinates will be read from file: butylamine_deprot_aq_11.xyz
***************************************


Your calculation utilizes the atom-pairwise dispersion correction
based on tight binding partial charges (D4)
Cite in your paper:
E.Caldeweyher, C.Bannwarth, S.Grimme, J.Chem.Phys., (2017), 147, 034112.
E.Caldeweyher, S.Ehlert, A.Hansen, H.Neugebauer, S.Grimme, J.Chem.Phys., (2018), in progress.
   

XCFun DFT library Copyright 2009-2010 Ulf Ekstrom and contributors.
See http://admol.org/xcfun for more information.
This is free software; see the source code for copying conditions.
There is ABSOLUTELY NO WARRANTY; not even for MERCHANTABILITY or FITNESS FOR A PARTICULAR PURPOSE.
For details see the documentation.
Scientific users of this library should cite U. Ekstrom, L. Visscher, R. Bast, A. J. Thorvaldsen and K. Ruud;
J.Chem.Theor.Comp. 2010, DOI: 10.1021/ct100117s
XCFun Version 0.99 

================================================================================

----- Orbital basis set information -----
Your calculation utilizes the basis: def2-SVP
   F. Weigend and R. Ahlrichs, Phys. Chem. Chem. Phys. 7, 3297 (2005).

----- AuxJ basis set information -----
Your calculation utilizes the auxiliary basis: def2/J
   F. Weigend, Phys. Chem. Chem. Phys. 8, 1057 (2006).

================================================================================
                                        WARNINGS
                       Please study these warnings very carefully!
================================================================================


WARNING: Geometry Optimization
  ===> : Switching off AutoStart
         For restart on a previous wavefunction, please use MOREAD

INFO   : the flag for use of the SHARK integral package has been found!

================================================================================
                                       INPUT FILE
================================================================================
NAME = butylamine_deprot_aq_11.inp
|  1> # ORCA 5.0.4 - /users/bwb16179/postgrad/2024_06/pKa_Reviewer_Comments/CREST_Confs/butylamine/butylamine_deprot_aq_11.inp # write input file
|  2> # Basic Mode
|  3> #
|  4> ! Opt Freq wB97X Def2-SVP D4 SlowConv TightSCF Defgrid2 Def2/J RIJCOSX 
|  5> 
|  6> %PAL NPROCS 4 END
|  7> 
|  8> %maxcore 4500
|  9> 
| 10> %geom
| 11> Maxiter 150
| 12> END
| 13> 
| 14> * xyzfile 0 1 butylamine_deprot_aq_11.xyz
| 15> 
| 16>                          ****END OF INPUT****
================================================================================

                       *****************************
                       * Geometry Optimization Run *
                       *****************************

Geometry optimization settings:
Update method            Update   .... BFGS
Choice of coordinates    CoordSys .... Z-matrix Internals
Initial Hessian          InHess   .... Almoef's Model

Convergence Tolerances:
Energy Change            TolE     ....  5.0000e-06 Eh
Max. Gradient            TolMAXG  ....  3.0000e-04 Eh/bohr
RMS Gradient             TolRMSG  ....  1.0000e-04 Eh/bohr
Max. Displacement        TolMAXD  ....  4.0000e-03 bohr
RMS Displacement         TolRMSD  ....  2.0000e-03 bohr
Strict Convergence                ....  False
------------------------------------------------------------------------------
                        ORCA OPTIMIZATION COORDINATE SETUP
------------------------------------------------------------------------------

The optimization will be done in new redundant internal coordinates
Making redundant internal coordinates   ...  (new redundants) done
Evaluating the initial hessian          ...  (Almloef) done
Evaluating the coordinates              ...  done
Calculating the B-matrix                .... done
Calculating the G-matrix                .... done
Diagonalizing the G-matrix              .... done
Small eigenvalue found = 2.413e-02
The first mode is                       ....   33
The number of degrees of freedom        ....   42

    -----------------------------------------------------------------
                    Redundant Internal Coordinates


    -----------------------------------------------------------------
         Definition                    Initial Value    Approx d2E/dq
    -----------------------------------------------------------------
      1. B(C   1,C   0)                  1.5249         0.380704   
      2. B(H   2,C   0)                  1.0885         0.362102   
      3. B(H   3,C   0)                  1.0879         0.362844   
      4. B(H   4,C   0)                  1.0876         0.363324   
      5. B(C   5,C   1)                  1.5302         0.373293   
      6. B(H   6,C   1)                  1.0926         0.356715   
      7. B(H   7,C   1)                  1.0932         0.355946   
      8. B(C   8,C   5)                  1.5420         0.357463   
      9. B(H   9,C   5)                  1.0921         0.357290   
     10. B(H  10,C   5)                  1.0940         0.354901   
     11. B(N  11,C   8)                  1.4547         0.441173   
     12. B(H  12,C   8)                  1.0934         0.355593   
     13. B(H  13,C   8)                  1.0940         0.354833   
     14. B(H  14,N  11)                  1.0144         0.425768   
     15. B(H  15,N  11)                  1.0135         0.427217   
     16. A(H   3,C   0,H   4)          107.8042         0.291595   
     17. A(C   1,C   0,H   4)          111.0058         0.325805   
     18. A(C   1,C   0,H   2)          110.6591         0.325625   
     19. A(H   2,C   0,H   3)          108.1774         0.291440   
     20. A(H   2,C   0,H   4)          108.9933         0.291501   
     21. A(C   1,C   0,H   3)          110.1095         0.325734   
     22. A(C   0,C   1,C   5)          114.0649         0.364481   
     23. A(H   6,C   1,H   7)          107.4817         0.289880   
     24. A(C   5,C   1,H   7)          108.1520         0.323662   
     25. A(C   0,C   1,H   7)          108.7928         0.324708   
     26. A(C   5,C   1,H   6)          108.9423         0.323776   
     27. A(C   0,C   1,H   6)          109.2044         0.324823   
     28. A(C   8,C   5,H   9)          108.5157         0.321570   
     29. A(C   1,C   5,H   9)          107.8850         0.323862   
     30. A(C   1,C   5,C   8)          114.4839         0.360581   
     31. A(H   9,C   5,H  10)          107.3223         0.289820   
     32. A(C   8,C   5,H  10)          108.9500         0.321217   
     33. A(C   1,C   5,H  10)          109.4434         0.323505   
     34. A(H  12,C   8,H  13)          107.5812         0.289595   
     35. A(N  11,C   8,H  13)          106.4023         0.330529   
     36. A(C   5,C   8,H  13)          109.0976         0.321207   
     37. A(N  11,C   8,H  12)          107.6214         0.330646   
     38. A(C   5,C   8,H  12)          109.5770         0.321319   
     39. A(C   5,C   8,N  11)          116.2130         0.368727   
     40. A(H  14,N  11,H  15)          107.2172         0.301858   
     41. A(C   8,N  11,H  15)          110.2453         0.337958   
     42. A(C   8,N  11,H  14)          109.5516         0.337767   
     43. D(H   6,C   1,C   0,H   4)    -54.8260         0.011549   
     44. D(C   5,C   1,C   0,H   3)   -173.3838         0.011549   
     45. D(H   7,C   1,C   0,H   3)    -52.5616         0.011549   
     46. D(H   6,C   1,C   0,H   2)   -175.9817         0.011549   
     47. D(C   5,C   1,C   0,H   4)     67.3162         0.011549   
     48. D(H   6,C   1,C   0,H   3)     64.4741         0.011549   
     49. D(H   7,C   1,C   0,H   4)   -171.8616         0.011549   
     50. D(C   5,C   1,C   0,H   2)    -53.8396         0.011549   
     51. D(H   7,C   1,C   0,H   2)     66.9826         0.011549   
     52. D(H   9,C   5,C   1,H   6)    -62.4555         0.011128   
     53. D(C   8,C   5,C   1,H   7)    174.9850         0.011128   
     54. D(C   8,C   5,C   1,H   6)     58.4494         0.011128   
     55. D(C   8,C   5,C   1,C   0)    -63.8365         0.011128   
     56. D(H   9,C   5,C   1,H   7)     54.0801         0.011128   
     57. D(H  10,C   5,C   1,H   7)    -62.3882         0.011128   
     58. D(H  10,C   5,C   1,H   6)   -178.9238         0.011128   
     59. D(H  10,C   5,C   1,C   0)     58.7903         0.011128   
     60. D(H   9,C   5,C   1,C   0)    175.2586         0.011128   
     61. D(H  13,C   8,C   5,H   9)    -27.1248         0.010262   
     62. D(H  13,C   8,C   5,C   1)   -147.6809         0.010262   
     63. D(H  12,C   8,C   5,H  10)   -153.0330         0.010262   
     64. D(H  12,C   8,C   5,H   9)     90.4169         0.010262   
     65. D(H  12,C   8,C   5,C   1)    -30.1392         0.010262   
     66. D(N  11,C   8,C   5,H  10)    -30.8096         0.010262   
     67. D(N  11,C   8,C   5,H   9)   -147.3597         0.010262   
     68. D(H  13,C   8,C   5,H  10)     89.4254         0.010262   
     69. D(N  11,C   8,C   5,C   1)     92.0842         0.010262   
     70. D(H  15,N  11,C   8,C   5)    -58.9359         0.016597   
     71. D(H  14,N  11,C   8,H  13)    -62.8494         0.016597   
     72. D(H  14,N  11,C   8,H  12)   -177.9285         0.016597   
     73. D(H  14,N  11,C   8,C   5)     58.8243         0.016597   
     74. D(H  15,N  11,C   8,H  13)    179.3904         0.016597   
     75. D(H  15,N  11,C   8,H  12)     64.3113         0.016597   
    -----------------------------------------------------------------

Number of atoms                         .... 16
Number of degrees of freedom            .... 75

         *************************************************************
         *                GEOMETRY OPTIMIZATION CYCLE   1            *
         *************************************************************
---------------------------------
CARTESIAN COORDINATES (ANGSTROEM)
---------------------------------
  C     -1.645129    0.776936   -0.511699
  C     -1.366818   -0.552525    0.181305
  H     -1.495598    1.607232    0.176097
  H     -2.674597    0.807747   -0.862194
  H     -0.996089    0.910415   -1.374107
  C      0.006948   -0.631710    0.850650
  H     -1.453805   -1.362476   -0.546792
  H     -2.128978   -0.716550    0.947596
  C      1.198718   -0.540934   -0.123625
  H      0.066154   -1.583287    1.383332
  H      0.095554    0.164593    1.595496
  N      1.735409    0.790335   -0.360084
  H      0.912618   -0.959383   -1.092455
  H      2.025482   -1.142765    0.265117
  H      2.042620    1.193512    0.518596
  H      1.014996    1.397715   -0.733220

----------------------------
CARTESIAN COORDINATES (A.U.)
----------------------------
  NO LB      ZA    FRAG     MASS         X           Y           Z
   0 C     6.0000    0    12.011   -3.108844    1.468197   -0.966971
   1 C     6.0000    0    12.011   -2.582912   -1.044122    0.342616
   2 H     1.0000    0     1.008   -2.826271    3.037228    0.332774
   3 H     1.0000    0     1.008   -5.054256    1.526420   -1.629311
   4 H     1.0000    0     1.008   -1.882336    1.720436   -2.596685
   5 C     6.0000    0    12.011    0.013131   -1.193760    1.607496
   6 H     1.0000    0     1.008   -2.747293   -2.574706   -1.033287
   7 H     1.0000    0     1.008   -4.023186   -1.354084    1.790696
   8 C     6.0000    0    12.011    2.265249   -1.022218   -0.233617
   9 H     1.0000    0     1.008    0.125012   -2.991980    2.614118
  10 H     1.0000    0     1.008    0.180570    0.311035    3.015051
  11 N     7.0000    0    14.007    3.279448    1.493516   -0.680461
  12 H     1.0000    0     1.008    1.724598   -1.812972   -2.064441
  13 H     1.0000    0     1.008    3.827607   -2.159514    0.500999
  14 H     1.0000    0     1.008    3.859993    2.255411    0.980005
  15 H     1.0000    0     1.008    1.918065    2.641298   -1.385586

--------------------------------
INTERNAL COORDINATES (ANGSTROEM)
--------------------------------
 C      0   0   0     0.000000000000     0.00000000     0.00000000
 C      1   0   0     1.524853970744     0.00000000     0.00000000
 H      1   2   0     1.088490931956   110.65907633     0.00000000
 H      1   2   3     1.087933796310   110.10945088   240.45579105
 H      1   2   3     1.087573560850   111.00583697   121.15571791
 C      2   1   3     1.530205067118   114.06486044   306.16043674
 H      2   1   3     1.092570813155   109.20435401   184.01831867
 H      2   1   3     1.093158022486   108.79283078    66.98263584
 C      6   2   1     1.542000821677   114.48393590   296.16347446
 H      6   2   1     1.092132612879   107.88496127   175.25857765
 H      6   2   1     1.093958848508   109.44339094    58.79025656
 N      9   6   2     1.454726011710   116.21295076    92.08419003
 H      9   6   2     1.093428350092   109.57700048   329.86078811
 H      9   6   2     1.094011006290   109.09762149   212.31913944
 H     12   9   6     1.014401421918   109.55157211    58.82426891
 H     12   9   6     1.013476733480   110.24534564   301.06405188

---------------------------
INTERNAL COORDINATES (A.U.)
---------------------------
 C      0   0   0     0.000000000000     0.00000000     0.00000000
 C      1   0   0     2.881556398928     0.00000000     0.00000000
 H      1   2   0     2.056949760654   110.65907633     0.00000000
 H      1   2   3     2.055896926863   110.10945088   240.45579105
 H      1   2   3     2.055216180500   111.00583697   121.15571791
 C      2   1   3     2.891668505592   114.06486044   306.16043674
 H      2   1   3     2.064659618779   109.20435401   184.01831867
 H      2   1   3     2.065769283598   108.79283078    66.98263584
 C      6   2   1     2.913959251252   114.48393590   296.16347446
 H      6   2   1     2.063831540266   107.88496127   175.25857765
 H      6   2   1     2.067282625460   109.44339094    58.79025656
 N      9   6   2     2.749033762024   116.21295076    92.08419003
 H      9   6   2     2.066280128739   109.57700048   329.86078811
 H      9   6   2     2.067381189384   109.09762149   212.31913944
 H     12   9   6     1.916940877286   109.55157211    58.82426891
 H     12   9   6     1.915193469378   110.24534564   301.06405188

---------------------
BASIS SET INFORMATION
---------------------
There are 3 groups of distinct atoms

 Group   1 Type C   : 7s4p1d contracted to 3s2p1d pattern {511/31/1}
 Group   2 Type H   : 4s1p contracted to 2s1p pattern {31/1}
 Group   3 Type N   : 7s4p1d contracted to 3s2p1d pattern {511/31/1}

Atom   0C    basis set group =>   1
Atom   1C    basis set group =>   1
Atom   2H    basis set group =>   2
Atom   3H    basis set group =>   2
Atom   4H    basis set group =>   2
Atom   5C    basis set group =>   1
Atom   6H    basis set group =>   2
Atom   7H    basis set group =>   2
Atom   8C    basis set group =>   1
Atom   9H    basis set group =>   2
Atom  10H    basis set group =>   2
Atom  11N    basis set group =>   3
Atom  12H    basis set group =>   2
Atom  13H    basis set group =>   2
Atom  14H    basis set group =>   2
Atom  15H    basis set group =>   2
---------------------------------
AUXILIARY/J BASIS SET INFORMATION
---------------------------------
There are 3 groups of distinct atoms

 Group   1 Type C   : 12s5p4d2f1g contracted to 6s4p3d1f1g pattern {711111/2111/211/2/1}
 Group   2 Type H   : 5s2p1d contracted to 3s1p1d pattern {311/2/1}
 Group   3 Type N   : 12s5p4d2f1g contracted to 6s4p3d1f1g pattern {711111/2111/211/2/1}

Atom   0C    basis set group =>   1
Atom   1C    basis set group =>   1
Atom   2H    basis set group =>   2
Atom   3H    basis set group =>   2
Atom   4H    basis set group =>   2
Atom   5C    basis set group =>   1
Atom   6H    basis set group =>   2
Atom   7H    basis set group =>   2
Atom   8C    basis set group =>   1
Atom   9H    basis set group =>   2
Atom  10H    basis set group =>   2
Atom  11N    basis set group =>   3
Atom  12H    basis set group =>   2
Atom  13H    basis set group =>   2
Atom  14H    basis set group =>   2
Atom  15H    basis set group =>   2


           ************************************************************
           *        Program running with 4 parallel MPI-processes     *
           *              working on a common directory               *
           ************************************************************
------------------------------------------------------------------------------
                           ORCA GTO INTEGRAL CALCULATION
                           -- RI-GTO INTEGRALS CHOSEN --
------------------------------------------------------------------------------
------------------------------------------------------------------------------
                   ___                                                        
                  /   \      - P O W E R E D   B Y -                         
                 /     \                                                     
                 |  |  |   _    _      __       _____    __    __             
                 |  |  |  | |  | |    /  \     |  _  \  |  |  /  |          
                  \  \/   | |  | |   /    \    | | | |  |  | /  /          
                 / \  \   | |__| |  /  /\  \   | |_| |  |  |/  /          
                |  |  |   |  __  | /  /__\  \  |    /   |      \           
                |  |  |   | |  | | |   __   |  |    \   |  |\   \          
                \     /   | |  | | |  |  |  |  | |\  \  |  | \   \       
                 \___/    |_|  |_| |__|  |__|  |_| \__\ |__|  \__/        
                                                                              
                      - O R C A' S   B I G   F R I E N D -                    
                                      &                                       
                       - I N T E G R A L  F E E D E R -                       
                                                                              
 v1 FN, 2020, v2 2021                                                         
------------------------------------------------------------------------------


Reading SHARK input file butylamine_deprot_aq_11.SHARKINP.tmp ... ok
----------------------
SHARK INTEGRAL PACKAGE
----------------------

Number of atoms                             ...     16
Number of basis functions                   ...    125
Number of shells                            ...     63
Maximum angular momentum                    ...      2
Integral batch strategy                     ... SHARK/LIBINT Hybrid
RI-J (if used) integral strategy            ... SPLIT-RIJ (Revised 2003 algorithm where possible)
Printlevel                                  ...      1
Contraction scheme used                     ... SEGMENTED contraction
Coulomb Range Separation                    ... NOT USED
Exchange Range Separation                   ... Long Range
   Mu parameter                             ...  0.300000
   Scaling (regular/separated)              ...  0.157706  0.842294
Finite Nucleus Model                        ... NOT USED
Auxiliary Coulomb fitting basis             ... AVAILABLE
   # of basis functions in Aux-J            ...    366
   # of shells in Aux-J                     ...    130
   Maximum angular momentum in Aux-J        ...      4
Auxiliary J/K fitting basis                 ... NOT available
Auxiliary Correlation fitting basis         ... NOT available
Auxiliary 'external' fitting basis          ... NOT available
Integral threshold                          ...     2.500000e-11
Primitive cut-off                           ...     2.500000e-12
Primitive pair pre-selection threshold      ...     2.500000e-12

Calculating pre-screening integrals         ... done (  0.0 sec) Dimension = 63
Organizing shell pair data                  ... done (  0.0 sec)
Shell pair information
Total number of shell pairs                 ...      2016
Shell pairs after pre-screening             ...      1991
Total number of primitive shell pairs       ...      6768
Primitive shell pairs kept                  ...      5335
          la=0 lb=0:    695 shell pairs
          la=1 lb=0:    764 shell pairs
          la=1 lb=1:    229 shell pairs
          la=2 lb=0:    183 shell pairs
          la=2 lb=1:    105 shell pairs
          la=2 lb=2:     15 shell pairs

Calculating one electron integrals          ... done (  0.0 sec)
Calculating RI/J V-Matrix + Cholesky decomp.... done (  0.0 sec)
Calculating Nuclear repulsion               ... done (  0.0 sec) ENN=    192.383355302587 Eh

SHARK setup successfully completed in   0.6 seconds

Maximum memory used throughout the entire GTOINT-calculation: 10.7 MB


           ************************************************************
           *        Program running with 4 parallel MPI-processes     *
           *              working on a common directory               *
           ************************************************************
-------------------------------------------------------------------------------
                                 ORCA SCF
-------------------------------------------------------------------------------

------------
SCF SETTINGS
------------
Hamiltonian:
 Density Functional     Method          .... DFT(GTOs)
 Exchange Functional    Exchange        .... WB97X
 Correlation Functional Correlation     .... WB97X
 Gradients option       PostSCFGGA      .... off
 Hybrid DFT is turned on
   Fraction HF Exchange ScalHFX         ....  0.157706
   Scaling of DF-GGA-X  ScalDFX         ....  0.000000
   Scaling of DF-GGA-C  ScalDFC         ....  1.000000
   Scaling of DF-LDA-C  ScalLDAC        ....  1.000000
   Perturbative correction              ....  0.000000
   Density functional embedding theory  .... OFF
 Long-range corrected/Screened/Range-Separated Hybrid DFT is turned on
   Amount of maximum screened exact exchange              ....  0.842294
   Range separation parameter mu (erf(mu*r12)/r12)        ....  0.300000
 RI-approximation to the Coulomb term is turned on
   Number of AuxJ basis functions       .... 366
   RIJ-COSX (HFX calculated with COS-X)).... on


General Settings:
 Integral files         IntName         .... butylamine_deprot_aq_11
 Hartree-Fock type      HFTyp           .... RHF
 Total Charge           Charge          ....    0
 Multiplicity           Mult            ....    1
 Number of Electrons    NEL             ....   42
 Basis Dimension        Dim             ....  125
 Nuclear Repulsion      ENuc            ....    192.3833553026 Eh

Convergence Acceleration:
 DIIS                   CNVDIIS         .... on
   Start iteration      DIISMaxIt       ....     0
   Startup error        DIISStart       ....  0.200000
   # of expansion vecs  DIISMaxEq       ....     5
   Bias factor          DIISBfac        ....   1.050
   Max. coefficient     DIISMaxC        ....  10.000
 Trust-Rad. Augm. Hess. CNVTRAH         .... auto
   Auto Start mean grad. ratio tolernc. ....  1.125000
   Auto Start start iteration           ....    20
   Auto Start num. interpolation iter.  ....    10
   Max. Number of Micro iterations      ....    16
   Max. Number of Macro iterations      .... Maxiter - #DIIS iter
   Number of Davidson start vectors     ....     2
   Converg. threshold I  (grad. norm)   ....   1.000e-05
   Converg. threshold II (energy diff.) ....   1.000e-08
   Grad. Scal. Fac. for Micro threshold ....   0.100
   Minimum threshold for Micro iter.    ....   0.010
   NR start threshold (gradient norm)   ....   0.001
   Initial trust radius                 ....   0.400
   Minimum AH scaling param. (alpha)    ....   1.000
   Maximum AH scaling param. (alpha)    .... 1000.000
   Orbital update algorithm             .... Taylor
   White noise on init. David. guess    .... on
   Maximum white noise                  ....   0.010
   Quad. conv. algorithm                .... NR
 SOSCF                  CNVSOSCF        .... on
   Start iteration      SOSCFMaxIt      ....   150
   Startup grad/error   SOSCFStart      ....  0.001000
 Level Shifting         CNVShift        .... on
   Level shift para.    LevelShift      ....    0.2500
   Turn off err/grad.   ShiftErr        ....    0.0000
 Zerner damping         CNVZerner       .... off
 Static damping         CNVDamp         .... on
   Fraction old density DampFac         ....    0.8500
   Max. Damping (<1)    DampMax         ....    0.9800
   Min. Damping (>=0)   DampMin         ....    0.0000
   Turn off err/grad.   DampErr         ....    0.0300
 Fernandez-Rico         CNVRico         .... off

SCF Procedure:
 Maximum # iterations   MaxIter         ....   125
 SCF integral mode      SCFMode         .... Direct
   Integral package                     .... SHARK and LIBINT hybrid scheme
 Reset frequency        DirectResetFreq ....    20
 Integral Threshold     Thresh          ....  2.500e-11 Eh
 Primitive CutOff       TCut            ....  2.500e-12 Eh

Convergence Tolerance:
 Convergence Check Mode ConvCheckMode   .... Total+1el-Energy
 Convergence forced     ConvForced      .... 0
 Energy Change          TolE            ....  1.000e-08 Eh
 1-El. energy change                    ....  1.000e-05 Eh
 Orbital Gradient       TolG            ....  1.000e-05
 Orbital Rotation angle TolX            ....  1.000e-05
 DIIS Error             TolErr          ....  5.000e-07


Diagonalization of the overlap matrix:
Smallest eigenvalue                        ... 2.296e-03
Time for diagonalization                   ...    0.007 sec
Threshold for overlap eigenvalues          ... 1.000e-08
Number of eigenvalues below threshold      ... 0
Time for construction of square roots      ...    0.005 sec
Total time needed                          ...    0.012 sec

Time for model grid setup =    0.104 sec

------------------------------
INITIAL GUESS: MODEL POTENTIAL
------------------------------
Loading Hartree-Fock densities                     ... done
Calculating cut-offs                               ... done
Initializing the effective Hamiltonian             ... done
Setting up the integral package (SHARK)            ... done
Starting the Coulomb interaction                   ... done (   0.1 sec)
Reading the grid                                   ... done
Mapping shells                                     ... done
Starting the XC term evaluation                    ... done (   0.0 sec)
  promolecular density results
     # of electrons  =     41.997672231
     EX              =    -30.244192790
     EC              =     -1.357667740
     EX+EC           =    -31.601860531
Transforming the Hamiltonian                       ... done (   0.0 sec)
Diagonalizing the Hamiltonian                      ... done (   0.0 sec)
Back transforming the eigenvectors                 ... done (   0.0 sec)
Now organizing SCF variables                       ... done
                      ------------------
                      INITIAL GUESS DONE (   0.3 sec)
                      ------------------
-------------------
DFT GRID GENERATION
-------------------

General Integration Accuracy     IntAcc      ... 4.388
Radial Grid Type                 RadialGrid  ... OptM3 with GC (2021)
Angular Grid (max. ang.)         AngularGrid ... 4 (Lebedev-302)
Angular grid pruning method      GridPruning ... 4 (adaptive)
Weight generation scheme         WeightScheme... Becke
Basis function cutoff            BFCut       ... 1.0000e-11
Integration weight cutoff        WCut        ... 1.0000e-14
Angular grids for H and He will be reduced by one unit
Partially contracted basis set               ... off
Rotationally invariant grid construction     ... off

Total number of grid points                  ...    65404
Total number of batches                      ...     1031
Average number of points per batch           ...       63
Average number of grid points per atom       ...     4088
Time for grid setup =    0.334 sec

--------------------
COSX GRID GENERATION
--------------------

GRIDX 1
-------
General Integration Accuracy     IntAcc      ... 3.816
Radial Grid Type                 RadialGrid  ... OptM3 with GC (2021)
Angular Grid (max. ang.)         AngularGrid ... 1 (Lebedev-50)
Angular grid pruning method      GridPruning ... 4 (adaptive)
Weight generation scheme         WeightScheme... Becke
Basis function cutoff            BFCut       ... 1.0000e-11
Integration weight cutoff        WCut        ... 1.0000e-14
Angular grids for H and He will be reduced by one unit
Partially contracted basis set               ... on
Rotationally invariant grid construction     ... off

Total number of grid points                  ...     8418
Total number of batches                      ...      142
Average number of points per batch           ...       59
Average number of grid points per atom       ...      526
UseSFitting                                  ... on

GRIDX 2
-------
General Integration Accuracy     IntAcc      ... 4.020
Radial Grid Type                 RadialGrid  ... OptM3 with GC (2021)
Angular Grid (max. ang.)         AngularGrid ... 2 (Lebedev-110)
Angular grid pruning method      GridPruning ... 4 (adaptive)
Weight generation scheme         WeightScheme... Becke
Basis function cutoff            BFCut       ... 1.0000e-11
Integration weight cutoff        WCut        ... 1.0000e-14
Angular grids for H and He will be reduced by one unit
Partially contracted basis set               ... on
Rotationally invariant grid construction     ... off

Total number of grid points                  ...    17337
Total number of batches                      ...      280
Average number of points per batch           ...       61
Average number of grid points per atom       ...     1084
UseSFitting                                  ... on

GRIDX 3
-------
General Integration Accuracy     IntAcc      ... 4.338
Radial Grid Type                 RadialGrid  ... OptM3 with GC (2021)
Angular Grid (max. ang.)         AngularGrid ... 3 (Lebedev-194)
Angular grid pruning method      GridPruning ... 4 (adaptive)
Weight generation scheme         WeightScheme... Becke
Basis function cutoff            BFCut       ... 1.0000e-11
Integration weight cutoff        WCut        ... 1.0000e-14
Angular grids for H and He will be reduced by one unit
Partially contracted basis set               ... on
Rotationally invariant grid construction     ... off

Total number of grid points                  ...    37837
Total number of batches                      ...      597
Average number of points per batch           ...       63
Average number of grid points per atom       ...     2365
UseSFitting                                  ... on

Time for X-Grid setup             =    0.358 sec

--------------
SCF ITERATIONS
--------------
ITER       Energy         Delta-E        Max-DP      RMS-DP      [F,P]     Damp
               ***  Starting incremental Fock matrix formation  ***
  0   -213.3795586896   0.000000000000 0.03929510  0.00115124  0.2371363 0.8500
  1   -213.4245741759  -0.045015486280 0.03375769  0.00109168  0.1835440 0.8500
                               ***Turning on DIIS***
  2   -213.4576558126  -0.033081636790 0.02512643  0.00087398  0.1343113 0.8500
  3   -213.4815106953  -0.023854882638 0.01426633  0.00056913  0.0968001 0.8500
  4   -213.4995830194  -0.018072324091 0.00950012  0.00040695  0.0758278 0.8500
  5   -213.5136508874  -0.014067867989 0.00710354  0.00032176  0.0626644 0.8500
  6   -213.5250305189  -0.011379631584 0.00566863  0.00026711  0.0528138 0.8500
  7   -213.5344264449  -0.009395925911 0.00476236  0.00022999  0.0447882 0.8500
  8   -213.5422791742  -0.007852729361 0.00404994  0.00019822  0.0377502 0.8500
  9   -213.5488547508  -0.006575576533 0.00342836  0.00016957  0.0317230 0.8500
 10   -213.5543669041  -0.005512153359 0.01922832  0.00096248  0.0266746 0.0000
 11   -213.5843387775  -0.029971873363 0.00110758  0.00003888  0.0014868 0.0000
                      *** Initiating the SOSCF procedure ***
                           *** Shutting down DIIS ***
                      *** Re-Reading the Fockian *** 
                      *** Removing any level shift *** 
ITER      Energy       Delta-E        Grad      Rot      Max-DP    RMS-DP
 12   -213.58434807  -0.0000092941  0.000072  0.000072  0.000282  0.000014
               *** Restarting incremental Fock matrix formation ***
 13   -213.58439494  -0.0000468713  0.000047  0.000080  0.000272  0.000010
 14   -213.58439507  -0.0000001271  0.000017  0.000046  0.000111  0.000005
 15   -213.58439508  -0.0000000138  0.000015  0.000006  0.000032  0.000001
                  ***Gradient check signals convergence***
              ***Rediagonalizing the Fockian in SOSCF/NRSCF***

               *****************************************************
               *                     SUCCESS                       *
               *           SCF CONVERGED AFTER  16 CYCLES          *
               *****************************************************

Old exchange energy                            =    -10.443164877 Eh
New exchange energy                            =    -10.443186871 Eh
Exchange energy change after final integration =     -0.000021994 Eh
Total energy after final integration           =   -213.584417082 Eh
Final COS-X integration done in                =     3.209 sec

----------------
TOTAL SCF ENERGY
----------------

Total Energy       :         -213.58441708 Eh           -5811.92746 eV

Components:
Nuclear Repulsion  :          192.38335530 Eh            5235.01724 eV
Electronic Energy  :         -405.96777238 Eh          -11046.94470 eV
One Electron Energy:         -667.39475762 Eh          -18160.73463 eV
Two Electron Energy:          261.42698523 Eh            7113.78993 eV
Max COSX asymmetry :            0.00000156 Eh               0.00004 eV

Virial components:
Potential Energy   :         -424.61207724 Eh          -11554.28203 eV
Kinetic Energy     :          211.02766015 Eh            5742.35457 eV
Virial Ratio       :            2.01211574


DFT components:
N(Alpha)           :       21.000026560637 electrons
N(Beta)            :       21.000026560637 electrons
N(Total)           :       42.000053121274 electrons
E(XC)              :      -22.250325370863 Eh       
DFET-embed. en.    :        0.000000000000 Eh       

---------------
SCF CONVERGENCE
---------------

  Last Energy change         ...   -4.3651e-09  Tolerance :   1.0000e-08
  Last MAX-Density change    ...    2.6645e-15  Tolerance :   1.0000e-07
  Last RMS-Density change    ...    4.3611e-17  Tolerance :   5.0000e-09
  Last Orbital Gradient      ...    1.4811e-06  Tolerance :   1.0000e-05
  Last Orbital Rotation      ...    1.2176e-06  Tolerance :   1.0000e-05

             **** THE GBW FILE WAS UPDATED (butylamine_deprot_aq_11.gbw) ****
             **** DENSITY butylamine_deprot_aq_11.scfp WAS UPDATED ****
             **** ENERGY FILE WAS UPDATED (butylamine_deprot_aq_11.en.tmp) ****
             **** THE GBW FILE WAS UPDATED (butylamine_deprot_aq_11.gbw) ****
             **** DENSITY butylamine_deprot_aq_11.scfp WAS UPDATED ****
----------------
ORBITAL ENERGIES
----------------

  NO   OCC          E(Eh)            E(eV) 
   0   2.0000     -14.372598      -391.0983 
   1   2.0000     -10.282220      -279.7934 
   2   2.0000     -10.264355      -279.3073 
   3   2.0000     -10.261531      -279.2304 
   4   2.0000     -10.258181      -279.1393 
   5   2.0000      -0.997235       -27.1361 
   6   2.0000      -0.910234       -24.7687 
   7   2.0000      -0.827086       -22.5062 
   8   2.0000      -0.745430       -20.2842 
   9   2.0000      -0.687704       -18.7134 
  10   2.0000      -0.611163       -16.6306 
  11   2.0000      -0.572932       -15.5903 
  12   2.0000      -0.554542       -15.0899 
  13   2.0000      -0.524449       -14.2710 
  14   2.0000      -0.510031       -13.8786 
  15   2.0000      -0.485875       -13.2213 
  16   2.0000      -0.470285       -12.7971 
  17   2.0000      -0.446997       -12.1634 
  18   2.0000      -0.431485       -11.7413 
  19   2.0000      -0.419234       -11.4079 
  20   2.0000      -0.327985        -8.9249 
  21   0.0000       0.139286         3.7902 
  22   0.0000       0.169468         4.6114 
  23   0.0000       0.173600         4.7239 
  24   0.0000       0.185249         5.0409 
  25   0.0000       0.207590         5.6488 
  26   0.0000       0.228102         6.2070 
  27   0.0000       0.236531         6.4363 
  28   0.0000       0.239004         6.5036 
  29   0.0000       0.252393         6.8680 
  30   0.0000       0.260704         7.0941 
  31   0.0000       0.277314         7.5461 
  32   0.0000       0.316379         8.6091 
  33   0.0000       0.327011         8.8984 
  34   0.0000       0.374517        10.1911 
  35   0.0000       0.380107        10.3432 
  36   0.0000       0.509396        13.8614 
  37   0.0000       0.525804        14.3078 
  38   0.0000       0.545189        14.8354 
  39   0.0000       0.572437        15.5768 
  40   0.0000       0.575316        15.6551 
  41   0.0000       0.602753        16.4017 
  42   0.0000       0.633375        17.2350 
  43   0.0000       0.714490        19.4423 
  44   0.0000       0.717277        19.5181 
  45   0.0000       0.738314        20.0905 
  46   0.0000       0.752862        20.4864 
  47   0.0000       0.756648        20.5894 
  48   0.0000       0.764180        20.7944 
  49   0.0000       0.783047        21.3078 
  50   0.0000       0.788646        21.4602 
  51   0.0000       0.798459        21.7272 
  52   0.0000       0.799324        21.7507 
  53   0.0000       0.810511        22.0551 
  54   0.0000       0.823232        22.4013 
  55   0.0000       0.824128        22.4257 
  56   0.0000       0.832837        22.6626 
  57   0.0000       0.842751        22.9324 
  58   0.0000       0.862242        23.4628 
  59   0.0000       0.897400        24.4195 
  60   0.0000       0.950864        25.8743 
  61   0.0000       0.989049        26.9134 
  62   0.0000       1.051192        28.6044 
  63   0.0000       1.095428        29.8081 
  64   0.0000       1.108263        30.1574 
  65   0.0000       1.180062        32.1111 
  66   0.0000       1.253657        34.1137 
  67   0.0000       1.292992        35.1841 
  68   0.0000       1.355766        36.8923 
  69   0.0000       1.394653        37.9504 
  70   0.0000       1.430879        38.9362 
  71   0.0000       1.457150        39.6511 
  72   0.0000       1.528727        41.5988 
  73   0.0000       1.549309        42.1588 
  74   0.0000       1.657556        45.1044 
  75   0.0000       1.661084        45.2004 
  76   0.0000       1.730023        47.0763 
  77   0.0000       1.824175        49.6383 
  78   0.0000       1.839582        50.0576 
  79   0.0000       1.855291        50.4850 
  80   0.0000       1.879088        51.1326 
  81   0.0000       1.884234        51.2726 
  82   0.0000       1.893114        51.5142 
  83   0.0000       1.909964        51.9728 
  84   0.0000       1.919044        52.2198 
  85   0.0000       1.938714        52.7551 
  86   0.0000       1.955551        53.2132 
  87   0.0000       1.972433        53.6726 
  88   0.0000       1.978273        53.8316 
  89   0.0000       1.987246        54.0757 
  90   0.0000       2.016114        54.8613 
  91   0.0000       2.023729        55.0685 
  92   0.0000       2.040505        55.5250 
  93   0.0000       2.067856        56.2692 
  94   0.0000       2.098660        57.1074 
  95   0.0000       2.140683        58.2510 
  96   0.0000       2.176036        59.2129 
  97   0.0000       2.234229        60.7965 
  98   0.0000       2.268283        61.7231 
  99   0.0000       2.305681        62.7408 
 100   0.0000       2.339793        63.6690 
 101   0.0000       2.382694        64.8364 
 102   0.0000       2.431648        66.1685 
 103   0.0000       2.528137        68.7941 
 104   0.0000       2.533645        68.9440 
 105   0.0000       2.561004        69.6885 
 106   0.0000       2.597367        70.6779 
 107   0.0000       2.643722        71.9393 
 108   0.0000       2.694178        73.3123 
 109   0.0000       2.708884        73.7125 
 110   0.0000       2.744774        74.6891 
 111   0.0000       2.831674        77.0538 
 112   0.0000       2.879038        78.3426 
 113   0.0000       2.910934        79.2105 
 114   0.0000       2.966324        80.7178 
 115   0.0000       2.995710        81.5174 
 116   0.0000       3.045875        82.8825 
 117   0.0000       3.066469        83.4429 
 118   0.0000       3.120697        84.9185 
 119   0.0000       3.124078        85.0105 
 120   0.0000       3.161065        86.0170 
 121   0.0000       3.171143        86.2912 
 122   0.0000       3.230228        87.8990 
 123   0.0000       3.353586        91.2557 
 124   0.0000       3.531037        96.0844 

                    ********************************
                    * MULLIKEN POPULATION ANALYSIS *
                    ********************************

-----------------------
MULLIKEN ATOMIC CHARGES
-----------------------
   0 C :   -0.048119
   1 C :   -0.055837
   2 H :    0.019477
   3 H :    0.029683
   4 H :    0.027410
   5 C :   -0.042151
   6 H :    0.017853
   7 H :    0.019445
   8 C :    0.060474
   9 H :    0.013425
  10 H :   -0.003247
  11 N :   -0.243144
  12 H :    0.014308
  13 H :    0.018085
  14 H :    0.092395
  15 H :    0.079942
Sum of atomic charges:   -0.0000000

--------------------------------
MULLIKEN REDUCED ORBITAL CHARGES
--------------------------------
  0 C s       :     3.006871  s :     3.006871
      pz      :     1.002320  p :     3.012752
      px      :     1.023984
      py      :     0.986449
      dz2     :     0.003245  d :     0.028495
      dxz     :     0.006493
      dyz     :     0.007923
      dx2y2   :     0.008388
      dxy     :     0.002445
  1 C s       :     3.033555  s :     3.033555
      pz      :     0.998082  p :     2.985313
      px      :     0.989773
      py      :     0.997458
      dz2     :     0.003360  d :     0.036969
      dxz     :     0.009553
      dyz     :     0.009851
      dx2y2   :     0.009341
      dxy     :     0.004865
  2 H s       :     0.956589  s :     0.956589
      pz      :     0.008745  p :     0.023933
      px      :     0.005031
      py      :     0.010157
  3 H s       :     0.946347  s :     0.946347
      pz      :     0.005792  p :     0.023970
      px      :     0.013924
      py      :     0.004254
  4 H s       :     0.948286  s :     0.948286
      pz      :     0.011242  p :     0.024304
      px      :     0.008612
      py      :     0.004449
  5 C s       :     3.029052  s :     3.029052
      pz      :     0.999655  p :     2.978474
      px      :     0.976448
      py      :     1.002371
      dz2     :     0.003822  d :     0.034625
      dxz     :     0.008644
      dyz     :     0.008883
      dx2y2   :     0.009935
      dxy     :     0.003341
  6 H s       :     0.959463  s :     0.959463
      pz      :     0.008981  p :     0.022684
      px      :     0.004044
      py      :     0.009659
  7 H s       :     0.957951  s :     0.957951
      pz      :     0.009375  p :     0.022604
      px      :     0.008929
      py      :     0.004300
  8 C s       :     3.011413  s :     3.011413
      pz      :     1.005210  p :     2.876348
      px      :     0.974390
      py      :     0.896747
      dz2     :     0.007985  d :     0.051765
      dxz     :     0.009517
      dyz     :     0.009900
      dx2y2   :     0.011130
      dxy     :     0.013233
  9 H s       :     0.963674  s :     0.963674
      pz      :     0.006699  p :     0.022901
      px      :     0.003828
      py      :     0.012374
 10 H s       :     0.980583  s :     0.980583
      pz      :     0.008776  p :     0.022664
      px      :     0.003708
      py      :     0.010181
 11 N s       :     3.392122  s :     3.392122
      pz      :     1.320859  p :     3.830993
      px      :     1.458438
      py      :     1.051696
      dz2     :     0.004950  d :     0.020029
      dxz     :     0.001492
      dyz     :     0.004557
      dx2y2   :     0.002236
      dxy     :     0.006793
 12 H s       :     0.963968  s :     0.963968
      pz      :     0.012642  p :     0.021724
      px      :     0.004724
      py      :     0.004357
 13 H s       :     0.960272  s :     0.960272
      pz      :     0.005654  p :     0.021643
      px      :     0.009977
      py      :     0.006012
 14 H s       :     0.861986  s :     0.861986
      pz      :     0.020243  p :     0.045619
      px      :     0.014978
      py      :     0.010398
 15 H s       :     0.873494  s :     0.873494
      pz      :     0.015054  p :     0.046564
      px      :     0.018110
      py      :     0.013401


                     *******************************
                     * LOEWDIN POPULATION ANALYSIS *
                     *******************************

----------------------
LOEWDIN ATOMIC CHARGES
----------------------
   0 C :   -0.063667
   1 C :   -0.041738
   2 H :    0.020105
   3 H :    0.026530
   4 H :    0.018511
   5 C :   -0.059646
   6 H :    0.019747
   7 H :    0.021438
   8 C :    0.011319
   9 H :    0.022228
  10 H :    0.013083
  11 N :   -0.115922
  12 H :    0.016689
  13 H :    0.019958
  14 H :    0.048731
  15 H :    0.042633

-------------------------------
LOEWDIN REDUCED ORBITAL CHARGES
-------------------------------
  0 C s       :     2.827152  s :     2.827152
      pz      :     1.056778  p :     3.163164
      px      :     1.066185
      py      :     1.040200
      dz2     :     0.007676  d :     0.073351
      dxz     :     0.016968
      dyz     :     0.021015
      dx2y2   :     0.022192
      dxy     :     0.005499
  1 C s       :     2.830162  s :     2.830162
      pz      :     1.049658  p :     3.120922
      px      :     1.034148
      py      :     1.037117
      dz2     :     0.007205  d :     0.090654
      dxz     :     0.024331
      dyz     :     0.024936
      dx2y2   :     0.024681
      dxy     :     0.009501
  2 H s       :     0.913453  s :     0.913453
      pz      :     0.023820  p :     0.066442
      px      :     0.013426
      py      :     0.029195
  3 H s       :     0.906997  s :     0.906997
      pz      :     0.015821  p :     0.066473
      px      :     0.037226
      py      :     0.013426
  4 H s       :     0.914290  s :     0.914290
      pz      :     0.030402  p :     0.067199
      px      :     0.022844
      py      :     0.013952
  5 C s       :     2.843344  s :     2.843344
      pz      :     1.042375  p :     3.129458
      px      :     1.028362
      py      :     1.058720
      dz2     :     0.007300  d :     0.086845
      dxz     :     0.022844
      dyz     :     0.023641
      dx2y2   :     0.026242
      dxy     :     0.006817
  6 H s       :     0.914215  s :     0.914215
      pz      :     0.025084  p :     0.066038
      px      :     0.013189
      py      :     0.027765
  7 H s       :     0.912513  s :     0.912513
      pz      :     0.025940  p :     0.066049
      px      :     0.026523
      py      :     0.013586
  8 C s       :     2.830025  s :     2.830025
      pz      :     1.055862  p :     3.039701
      px      :     1.035718
      py      :     0.948121
      dz2     :     0.018796  d :     0.118955
      dxz     :     0.025494
      dyz     :     0.020566
      dx2y2   :     0.024579
      dxy     :     0.029520
  9 H s       :     0.910634  s :     0.910634
      pz      :     0.019980  p :     0.067138
      px      :     0.014007
      py      :     0.033150
 10 H s       :     0.920203  s :     0.920203
      pz      :     0.026036  p :     0.066714
      px      :     0.013636
      py      :     0.027042
 11 N s       :     3.115282  s :     3.115282
      pz      :     1.363112  p :     3.956241
      px      :     1.466004
      py      :     1.127125
      dz2     :     0.010013  d :     0.044398
      dxz     :     0.003534
      dyz     :     0.010604
      dx2y2   :     0.005173
      dxy     :     0.015076
 12 H s       :     0.919271  s :     0.919271
      pz      :     0.035276  p :     0.064040
      px      :     0.013575
      py      :     0.015188
 13 H s       :     0.916275  s :     0.916275
      pz      :     0.015726  p :     0.063767
      px      :     0.028708
      py      :     0.019333
 14 H s       :     0.829307  s :     0.829307
      pz      :     0.057709  p :     0.121962
      px      :     0.037982
      py      :     0.026271
 15 H s       :     0.833353  s :     0.833353
      pz      :     0.036012  p :     0.124014
      px      :     0.052490
      py      :     0.035513


                      *****************************
                      * MAYER POPULATION ANALYSIS *
                      *****************************

  NA   - Mulliken gross atomic population
  ZA   - Total nuclear charge
  QA   - Mulliken gross atomic charge
  VA   - Mayer's total valence
  BVA  - Mayer's bonded valence
  FA   - Mayer's free valence

  ATOM       NA         ZA         QA         VA         BVA        FA
  0 C      6.0481     6.0000    -0.0481     4.0060     4.0060    -0.0000
  1 C      6.0558     6.0000    -0.0558     4.0982     4.0982    -0.0000
  2 H      0.9805     1.0000     0.0195     0.9928     0.9928     0.0000
  3 H      0.9703     1.0000     0.0297     0.9879     0.9879    -0.0000
  4 H      0.9726     1.0000     0.0274     0.9888     0.9888    -0.0000
  5 C      6.0422     6.0000    -0.0422     3.9982     3.9982    -0.0000
  6 H      0.9821     1.0000     0.0179     0.9789     0.9789     0.0000
  7 H      0.9806     1.0000     0.0194     0.9767     0.9767    -0.0000
  8 C      5.9395     6.0000     0.0605     4.0574     4.0574    -0.0000
  9 H      0.9866     1.0000     0.0134     0.9809     0.9809    -0.0000
 10 H      1.0032     1.0000    -0.0032     0.9990     0.9990    -0.0000
 11 N      7.2431     7.0000    -0.2431     3.0827     3.0827     0.0000
 12 H      0.9857     1.0000     0.0143     0.9893     0.9893     0.0000
 13 H      0.9819     1.0000     0.0181     0.9824     0.9824     0.0000
 14 H      0.9076     1.0000     0.0924     1.0000     1.0000    -0.0000
 15 H      0.9201     1.0000     0.0799     1.0210     1.0210     0.0000

  Mayer bond orders larger than 0.100000
B(  0-C ,  1-C ) :   1.0783 B(  0-C ,  2-H ) :   0.9758 B(  0-C ,  3-H ) :   0.9716 
B(  0-C ,  4-H ) :   0.9704 B(  1-C ,  5-C ) :   1.0806 B(  1-C ,  6-H ) :   0.9561 
B(  1-C ,  7-H ) :   0.9577 B(  5-C ,  8-C ) :   1.0233 B(  5-C ,  9-H ) :   0.9471 
B(  5-C , 10-H ) :   0.9532 B(  8-C , 11-N ) :   1.0869 B(  8-C , 12-H ) :   0.9634 
B(  8-C , 13-H ) :   0.9629 B( 11-N , 14-H ) :   0.9788 B( 11-N , 15-H ) :   0.9869 


-------
TIMINGS
-------

Total SCF time: 0 days 0 hours 0 min 26 sec 

Total time                  ....      26.665 sec
Sum of individual times     ....      26.038 sec  ( 97.6%)

Fock matrix formation       ....      24.845 sec  ( 93.2%)
  Split-RI-J                ....       1.181 sec  (  4.8% of F)
  Chain of spheres X        ....      18.425 sec  ( 74.2% of F)
  XC integration            ....       4.575 sec  ( 18.4% of F)
    Basis function eval.    ....       1.348 sec  ( 29.5% of XC)
    Density eval.           ....       0.682 sec  ( 14.9% of XC)
    XC-Functional eval.     ....       0.631 sec  ( 13.8% of XC)
    XC-Potential eval.      ....       0.802 sec  ( 17.5% of XC)
Diagonalization             ....       0.112 sec  (  0.4%)
Density matrix formation    ....       0.005 sec  (  0.0%)
Population analysis         ....       0.046 sec  (  0.2%)
Initial guess               ....       0.147 sec  (  0.6%)
Orbital Transformation      ....       0.000 sec  (  0.0%)
Orbital Orthonormalization  ....       0.000 sec  (  0.0%)
DIIS solution               ....       0.047 sec  (  0.2%)
SOSCF solution              ....       0.040 sec  (  0.2%)
Grid generation             ....       0.795 sec  (  3.0%)

Maximum memory used throughout the entire SCF-calculation: 49.8 MB


-------------------------------------------------------------------------------
                          DFT DISPERSION CORRECTION                            
                                                                               
                                 DFTD4 V2.5                                    
-------------------------------------------------------------------------------
The WB97X functional is recognized
Active option DFTDOPT                   ...         5   

Starting D4
-------------------------   ----------------
Dispersion correction           -0.001455398
-------------------------   ----------------


-------------------------   --------------------
FINAL SINGLE POINT ENERGY      -213.585872480186
-------------------------   --------------------



           ************************************************************
           *        Program running with 4 parallel MPI-processes     *
           *              working on a common directory               *
           ************************************************************
------------------------------------------------------------------------------
                         ORCA SCF GRADIENT CALCULATION
------------------------------------------------------------------------------

 ... reading COSX grid (gridx3)
Gradient of the Kohn-Sham DFT energy:
Kohn-Sham wavefunction type      ... RKS
Hartree-Fock exchange scaling    ...    0.158
Number of operators              ...    1
Number of atoms                  ...   16
Basis set dimensions             ...  125
Integral neglect threshold       ... 2.5e-11
Integral primitive cutoff        ... 2.5e-12
SHARK Integral package           ... ON

Nuc. rep. gradient       (SHARK) ... done (  0.0 sec)
HCore & Overlap gradient (SHARK) ... done (  0.0 sec)
RI-J gradient            (SHARK) ... done (  0.2 sec)
COSX-gradient                    ... done (  3.5 sec)
Exchange-correlation gradient    ... done
Dispersion correction            ... Starting D4
Starting D4
Starting D4
Starting D4


------------------- 
Dispersion Gradient 
------------------- 
   1  :   -0.000019434    0.000015190   -0.000009434
   2  :   -0.000017498   -0.000010682    0.000002231
   3  :   -0.000006296   -0.000001454   -0.000002237
   4  :   -0.000007421    0.000001843   -0.000001375
   5  :   -0.000006121   -0.000000433    0.000002328
   6  :    0.000001825   -0.000008258    0.000014104
   7  :   -0.000003384    0.000002379    0.000002578
   8  :   -0.000003609    0.000000205   -0.000000731
   9  :    0.000009943   -0.000015398    0.000000150
  10  :    0.000000147   -0.000001418    0.000000553
  11  :    0.000000614   -0.000003506   -0.000004316
  12  :    0.000031824    0.000011943   -0.000010630
  13  :    0.000005335    0.000003932    0.000004017
  14  :    0.000004879    0.000002575   -0.000000670
  15  :    0.000005842    0.000002365    0.000002680
  16  :    0.000003354    0.000000716    0.000000752

  |G| =    0.000052642

done

------------------
CARTESIAN GRADIENT
------------------

   1   C   :    0.000003071    0.011388151   -0.004526689
   2   C   :   -0.007512902   -0.010137716   -0.003676415
   3   H   :   -0.001214630   -0.008128680   -0.004706371
   4   H   :    0.007760242   -0.002171608    0.004074631
   5   H   :   -0.005175660   -0.003151574    0.008034260
   6   C   :    0.001062295    0.004380798    0.013721534
   7   H   :    0.001991669    0.006612930    0.003809655
   8   H   :    0.005660685    0.002747276   -0.003339569
   9   C   :    0.001515256   -0.011143306   -0.008458294
  10   H   :   -0.000275145    0.005813136   -0.005333858
  11   H   :   -0.001606287   -0.004221367   -0.006254835
  12   N   :   -0.000593351    0.003168964    0.002976398
  13   H   :    0.000812694    0.005803059    0.005361559
  14   H   :   -0.003299445    0.005517063   -0.000061987
  15   H   :   -0.000360233   -0.002944241   -0.001865981
  16   H   :    0.001246602   -0.003552257    0.000267418

Difference to translation invariance:
           :    0.0000148647   -0.0000193718    0.0000214558

Difference to rotation invariance:
           :   -0.0001066502    0.0012506894    0.0005012282

Norm of the cartesian gradient     ...    0.0372427187
RMS gradient                       ...    0.0053755234
MAX gradient                       ...    0.0137215338

-------
TIMINGS
-------

Total SCF gradient time            ...        5.175 sec

One electron gradient       ....       0.040 sec  (  0.8%)
RI-J Coulomb gradient       ....       0.230 sec  (  4.5%)
COSX gradient               ....       3.507 sec  ( 67.8%)
XC gradient                 ....       1.036 sec  ( 20.0%)

Maximum memory used throughout the entire SCFGRAD-calculation: 38.4 MB
------------------------------------------------------------------------------
                         ORCA GEOMETRY RELAXATION STEP
------------------------------------------------------------------------------

Reading the OPT-File                    .... done
Getting information on internals        .... done
Copying old internal coords+grads       .... done
Making the new internal coordinates     .... (new redundants).... done
Validating the new internal coordinates .... (new redundants).... done
Calculating the B-matrix                .... done
Calculating the G,G- and P matrices     .... done
Transforming gradient to internals      .... done
Projecting the internal gradient        .... done
Number of atoms                         ....  16
Number of internal coordinates          ....  75
Current Energy                          ....  -213.585872480 Eh
Current gradient norm                   ....     0.037242719 Eh/bohr
Maximum allowed component of the step   ....  0.300
Current trust radius                    ....  0.300
Evaluating the initial hessian          ....  (Almloef) done
Projecting the Hessian                  .... done
Forming the augmented Hessian           .... done
Diagonalizing the augmented Hessian     .... done
Last element of RFO vector              ....  0.987617918
Lowest eigenvalues of augmented Hessian:
 -0.002359865  0.010412507  0.011178004  0.011554787  0.016597337
Length of the computed step             ....  0.158845282
The final length of the internal step   ....  0.158845282
Converting the step to cartesian space:
 Initial RMS(Int)=    0.0183418733
Transforming coordinates:
 Iter   0:  RMS(Cart)=    0.0304818117 RMS(Int)=    0.0183024701
 Iter   1:  RMS(Cart)=    0.0004443429 RMS(Int)=    0.0002469636
 Iter   2:  RMS(Cart)=    0.0000141785 RMS(Int)=    0.0000069733
 Iter   3:  RMS(Cart)=    0.0000003716 RMS(Int)=    0.0000002455
 Iter   4:  RMS(Cart)=    0.0000000118 RMS(Int)=    0.0000000064
done
Storing new coordinates                 .... done

                                .--------------------.
          ----------------------|Geometry convergence|-------------------------
          Item                value                   Tolerance       Converged
          ---------------------------------------------------------------------
          RMS gradient        0.0030130392            0.0001000000      NO
          MAX gradient        0.0098243119            0.0003000000      NO
          RMS step            0.0183418733            0.0020000000      NO
          MAX step            0.0544154875            0.0040000000      NO
          ........................................................
          Max(Bonds)      0.0142      Max(Angles)    0.99
          Max(Dihed)        3.12      Max(Improp)    0.00
          ---------------------------------------------------------------------

The optimization has not yet converged - more geometry cycles are needed


    ---------------------------------------------------------------------------
                         Redundant Internal Coordinates
                            (Angstroem and degrees)

        Definition                    Value    dE/dq     Step     New-Value
    ----------------------------------------------------------------------------
     1. B(C   1,C   0)                1.5249 -0.003300  0.0046    1.5294   
     2. B(H   2,C   0)                1.0885 -0.009346  0.0136    1.1021   
     3. B(H   3,C   0)                1.0879 -0.008720  0.0126    1.1006   
     4. B(H   4,C   0)                1.0876 -0.009824  0.0142    1.1018   
     5. B(C   5,C   1)                1.5302 -0.001317  0.0019    1.5321   
     6. B(H   6,C   1)                1.0926 -0.007591  0.0112    1.1038   
     7. B(H   7,C   1)                1.0932 -0.006710  0.0099    1.1031   
     8. B(C   8,C   5)                1.5420  0.000347 -0.0005    1.5415   
     9. B(H   9,C   5)                1.0921 -0.007681  0.0113    1.1034   
    10. B(H  10,C   5)                1.0940 -0.007464  0.0111    1.1050   
    11. B(N  11,C   8)                1.4547 -0.003180  0.0038    1.4585   
    12. B(H  12,C   8)                1.0934 -0.007197  0.0106    1.1041   
    13. B(H  13,C   8)                1.0940 -0.005544  0.0082    1.1022   
    14. B(H  14,N  11)                1.0144 -0.002873  0.0036    1.0180   
    15. B(H  15,N  11)                1.0135 -0.003131  0.0039    1.0173   
    16. A(H   3,C   0,H   4)          107.80  0.002293   -0.40    107.40   
    17. A(C   1,C   0,H   4)          111.01 -0.002007    0.34    111.35   
    18. A(C   1,C   0,H   2)          110.66 -0.001170    0.21    110.87   
    19. A(H   2,C   0,H   3)          108.18  0.001720   -0.25    107.92   
    20. A(H   2,C   0,H   4)          108.99  0.001996   -0.45    108.54   
    21. A(C   1,C   0,H   3)          110.11 -0.002609    0.51    110.62   
    22. A(C   0,C   1,C   5)          114.06 -0.001215    0.41    114.48   
    23. A(H   6,C   1,H   7)          107.48  0.001025   -0.73    106.75   
    24. A(C   5,C   1,H   7)          108.15 -0.000399    0.31    108.46   
    25. A(C   0,C   1,H   7)          108.79  0.000020    0.21    109.00   
    26. A(C   5,C   1,H   6)          108.94  0.000541   -0.17    108.77   
    27. A(C   0,C   1,H   6)          109.20  0.000156   -0.09    109.11   
    28. A(C   8,C   5,H   9)          108.52 -0.000746    0.45    108.96   
    29. A(C   1,C   5,H   9)          107.88 -0.000328    0.39    108.27   
    30. A(C   1,C   5,C   8)          114.48 -0.000463    0.23    114.72   
    31. A(H   9,C   5,H  10)          107.32  0.000891   -0.57    106.76   
    32. A(C   8,C   5,H  10)          108.95  0.000928   -0.42    108.53   
    33. A(C   1,C   5,H  10)          109.44 -0.000209   -0.12    109.32   
    34. A(H  12,C   8,H  13)          107.58  0.001553   -0.99    106.59   
    35. A(N  11,C   8,H  13)          106.40 -0.001217    0.62    107.03   
    36. A(C   5,C   8,H  13)          109.10  0.000391    0.04    109.14   
    37. A(N  11,C   8,H  12)          107.62 -0.000418    0.13    107.75   
    38. A(C   5,C   8,H  12)          109.58  0.000922   -0.36    109.22   
    39. A(C   5,C   8,N  11)          116.21 -0.001076    0.45    116.66   
    40. A(H  14,N  11,H  15)          107.22  0.002257   -0.43    106.79   
    41. A(C   8,N  11,H  15)          110.25 -0.002471    0.42    110.66   
    42. A(C   8,N  11,H  14)          109.55 -0.002091    0.35    109.90   
    43. D(H   6,C   1,C   0,H   4)    -54.83  0.000695   -0.69    -55.51   
    44. D(C   5,C   1,C   0,H   3)   -173.38  0.000567   -0.65   -174.04   
    45. D(H   7,C   1,C   0,H   3)    -52.56 -0.000735    0.17    -52.39   
    46. D(H   6,C   1,C   0,H   2)   -175.98  0.000313   -0.49   -176.48   
    47. D(C   5,C   1,C   0,H   4)     67.32  0.000671   -0.70     66.62   
    48. D(H   6,C   1,C   0,H   3)     64.47  0.000590   -0.64     63.83   
    49. D(H   7,C   1,C   0,H   4)   -171.86 -0.000631    0.12   -171.74   
    50. D(C   5,C   1,C   0,H   2)    -53.84  0.000289   -0.51    -54.35   
    51. D(H   7,C   1,C   0,H   2)     66.98 -0.001013    0.32     67.30   
    52. D(H   9,C   5,C   1,H   6)    -62.46 -0.000008    0.84    -61.62   
    53. D(C   8,C   5,C   1,H   7)    174.99 -0.000209    1.04    176.03   
    54. D(C   8,C   5,C   1,H   6)     58.45 -0.001496    1.84     60.29   
    55. D(C   8,C   5,C   1,C   0)    -63.84 -0.001265    1.80    -62.03   
    56. D(H   9,C   5,C   1,H   7)     54.08  0.001280    0.05     54.13   
    57. D(H  10,C   5,C   1,H   7)    -62.39  0.000516    0.57    -61.82   
    58. D(H  10,C   5,C   1,H   6)   -178.92 -0.000772    1.36   -177.56   
    59. D(H  10,C   5,C   1,C   0)     58.79 -0.000540    1.33     60.12   
    60. D(H   9,C   5,C   1,C   0)    175.26  0.000224    0.81    176.07   
    61. D(H  13,C   8,C   5,H   9)    -27.12 -0.001886   -0.78    -27.90   
    62. D(H  13,C   8,C   5,C   1)   -147.68 -0.000620   -1.74   -149.43   
    63. D(H  12,C   8,C   5,H  10)   -153.03  0.001902   -2.80   -155.84   
    64. D(H  12,C   8,C   5,H   9)     90.42  0.000747   -2.15     88.27   
    65. D(H  12,C   8,C   5,C   1)    -30.14  0.002013   -3.12    -33.26   
    66. D(N  11,C   8,C   5,H  10)    -30.81  0.001302   -2.59    -33.40   
    67. D(N  11,C   8,C   5,H   9)   -147.36  0.000147   -1.94   -149.30   
    68. D(H  13,C   8,C   5,H  10)     89.43 -0.000731   -1.43     87.99   
    69. D(N  11,C   8,C   5,C   1)     92.08  0.001412   -2.90     89.18   
    70. D(H  15,N  11,C   8,C   5)    -58.94 -0.000404    0.25    -58.68   
    71. D(H  14,N  11,C   8,H  13)    -62.85  0.000738   -0.63    -63.48   
    72. D(H  14,N  11,C   8,H  12)   -177.93 -0.000256    0.14   -177.79   
    73. D(H  14,N  11,C   8,C   5)     58.82 -0.000382    0.19     59.02   
    74. D(H  15,N  11,C   8,H  13)    179.39  0.000717   -0.57    178.82   
    75. D(H  15,N  11,C   8,H  12)     64.31 -0.000278    0.20     64.51   
    ----------------------------------------------------------------------------

         *************************************************************
         *                GEOMETRY OPTIMIZATION CYCLE   2            *
         *************************************************************
---------------------------------
CARTESIAN COORDINATES (ANGSTROEM)
---------------------------------
  C     -1.633615    0.784798   -0.511324
  C     -1.366391   -0.549632    0.186522
  H     -1.478195    1.627996    0.181064
  H     -2.671609    0.831438   -0.874152
  H     -0.973498    0.920855   -1.382918
  C      0.009350   -0.653165    0.852724
  H     -1.468137   -1.367888   -0.547225
  H     -2.140077   -0.714066    0.955372
  C      1.204050   -0.540833   -0.114885
  H      0.065797   -1.620151    1.381231
  H      0.103978    0.135675    1.620730
  N      1.714815    0.801109   -0.370992
  H      0.928134   -0.987110   -1.086312
  H      2.044268   -1.136418    0.277809
  H      2.014085    1.230476    0.502111
  H      0.984530    1.395767   -0.755744

----------------------------
CARTESIAN COORDINATES (A.U.)
----------------------------
  NO LB      ZA    FRAG     MASS         X           Y           Z
   0 C     6.0000    0    12.011   -3.087085    1.483054   -0.966263
   1 C     6.0000    0    12.011   -2.582104   -1.038654    0.352476
   2 H     1.0000    0     1.008   -2.793384    3.076466    0.342162
   3 H     1.0000    0     1.008   -5.048609    1.571191   -1.651907
   4 H     1.0000    0     1.008   -1.839644    1.740164   -2.613336
   5 C     6.0000    0    12.011    0.017670   -1.234303    1.611414
   6 H     1.0000    0     1.008   -2.774376   -2.584935   -1.034104
   7 H     1.0000    0     1.008   -4.044160   -1.349390    1.805392
   8 C     6.0000    0    12.011    2.275324   -1.022026   -0.217101
   9 H     1.0000    0     1.008    0.124338   -3.061641    2.610148
  10 H     1.0000    0     1.008    0.196489    0.256389    3.062737
  11 N     7.0000    0    14.007    3.240531    1.513877   -0.701073
  12 H     1.0000    0     1.008    1.753920   -1.865368   -2.052833
  13 H     1.0000    0     1.008    3.863107   -2.147520    0.524983
  14 H     1.0000    0     1.008    3.806068    2.325263    0.948852
  15 H     1.0000    0     1.008    1.860492    2.637618   -1.428149

--------------------------------
INTERNAL COORDINATES (ANGSTROEM)
--------------------------------
 C      0   0   0     0.000000000000     0.00000000     0.00000000
 C      1   0   0     1.529412332695     0.00000000     0.00000000
 H      1   2   0     1.102061307577   110.87057935     0.00000000
 H      1   2   3     1.100568306069   110.62127355   240.30843033
 H      1   2   3     1.101790208867   111.34695166   120.96033019
 C      2   1   3     1.532059788775   114.47328673   305.65441238
 H      2   1   3     1.103757225825   109.11071819   183.52470133
 H      2   1   3     1.103068438205   108.99888781    67.30171873
 C      6   2   1     1.541489812923   114.71301778   297.96999936
 H      6   2   1     1.103434659636   108.26610022   176.06599785
 H      6   2   1     1.105014706572   109.32206699    60.12302570
 N      9   6   2     1.458520049694   116.65906359    89.17780137
 H      9   6   2     1.104067343584   109.21757763   326.74336352
 H      9   6   2     1.102223842599   109.13448970   210.57322218
 H     12   9   6     1.017952085847   109.90291768    59.01982556
 H     12   9   6     1.017334012089   110.66050585   301.31866878

---------------------------
INTERNAL COORDINATES (A.U.)
---------------------------
 C      0   0   0     0.000000000000     0.00000000     0.00000000
 C      1   0   0     2.890170454636     0.00000000     0.00000000
 H      1   2   0     2.082594054111   110.87057935     0.00000000
 H      1   2   3     2.079772690143   110.62127355   240.30843033
 H      1   2   3     2.082081751794   111.34695166   120.96033019
 C      2   1   3     2.895173421577   114.47328673   305.65441238
 H      2   1   3     2.085798875145   109.11071819   183.52470133
 H      2   1   3     2.084497255180   108.99888781    67.30171873
 C      6   2   1     2.912993584653   114.71301778   297.96999936
 H      6   2   1     2.085189313389   108.26610022   176.06599785
 H      6   2   1     2.088175169377   109.32206699    60.12302570
 N      9   6   2     2.756203454755   116.65906359    89.17780137
 H      9   6   2     2.086384912780   109.21757763   326.74336352
 H      9   6   2     2.082901200790   109.13448970   210.57322218
 H     12   9   6     1.923650659705   109.90291768    59.01982556
 H     12   9   6     1.922482669572   110.66050585   301.31866878



           ************************************************************
           *        Program running with 4 parallel MPI-processes     *
           *              working on a common directory               *
           ************************************************************
------------------------------------------------------------------------------
                   ___                                                        
                  /   \      - P O W E R E D   B Y -                         
                 /     \                                                     
                 |  |  |   _    _      __       _____    __    __             
                 |  |  |  | |  | |    /  \     |  _  \  |  |  /  |          
                  \  \/   | |  | |   /    \    | | | |  |  | /  /          
                 / \  \   | |__| |  /  /\  \   | |_| |  |  |/  /          
                |  |  |   |  __  | /  /__\  \  |    /   |      \           
                |  |  |   | |  | | |   __   |  |    \   |  |\   \          
                \     /   | |  | | |  |  |  |  | |\  \  |  | \   \       
                 \___/    |_|  |_| |__|  |__|  |_| \__\ |__|  \__/        
[...]
     37       0.019906   0.084680   0.296696  -0.322099   0.085789   0.006909
     38      -0.004446  -0.045635  -0.157774   0.162490  -0.042545  -0.007434
     39       0.150253  -0.057148   0.038824  -0.058249  -0.017496   0.028968
     40       0.184223  -0.055146   0.316567  -0.388328   0.059756  -0.007766
     41      -0.082087   0.078273   0.303687  -0.364710   0.113364  -0.049203
     42      -0.010655  -0.023600   0.007961  -0.006952   0.005285   0.004966
     43       0.071715  -0.043168   0.009404  -0.034058  -0.034916  -0.024191
     44      -0.033426   0.023888  -0.006930   0.021185   0.019493   0.013989
     45      -0.028573   0.019865  -0.005200  -0.008691   0.002448   0.019259
     46      -0.036262   0.047366  -0.006267  -0.002565  -0.004497   0.017577
     47       0.030648  -0.001970   0.005341   0.000768  -0.014566  -0.021098
                 36         37         38         39         40         41    
      0      -0.000614   0.000487  -0.001613  -0.007175  -0.000575  -0.004202
      1      -0.001181   0.001586   0.011890   0.033901   0.035112   0.000209
      2       0.003480  -0.000604  -0.004173  -0.013101  -0.008969   0.005112
      3      -0.000631  -0.007095   0.006762   0.027363  -0.030467   0.021956
      4       0.000728  -0.004515   0.008556   0.033397  -0.043221  -0.001585
      5      -0.000206   0.006611   0.001519   0.007458  -0.008862  -0.029088
      6       0.023114  -0.004416  -0.029968  -0.084722  -0.084254  -0.004528
      7       0.002010  -0.013170  -0.115816  -0.328501  -0.334667  -0.018067
      8      -0.004451  -0.014388  -0.100028  -0.285672  -0.289174  -0.013850
      9       0.008258   0.010263   0.126132   0.390459   0.292274   0.020069
     10      -0.009227   0.000582  -0.006623  -0.019874  -0.019416  -0.000487
     11      -0.030116   0.002563   0.035611   0.110133   0.084065   0.006851
     12      -0.025211  -0.013119  -0.078873  -0.228562  -0.206779   0.036101
     13       0.019541  -0.002915  -0.017810  -0.049057  -0.045327   0.008421
     14      -0.010394   0.019654   0.112371   0.325529   0.300352  -0.051542
     15      -0.004709  -0.006853  -0.000734  -0.000923   0.002103   0.001424
     16      -0.000506  -0.004936   0.010549  -0.011408   0.009617   0.082730
     17       0.003546  -0.070354   0.003821  -0.005015   0.007313  -0.001067
     18       0.003910   0.000971  -0.009454  -0.049631   0.058240   0.014184
     19      -0.001658   0.022400  -0.086368  -0.349740   0.428174   0.092491
     20       0.001782   0.023733  -0.084624  -0.343901   0.415139   0.084877
     21       0.002458   0.092673  -0.067418  -0.263802   0.298813  -0.271914
     22      -0.000434   0.023875  -0.014475  -0.055623   0.066137  -0.065834
     23       0.003609  -0.097608   0.069676   0.262057  -0.299486   0.263031
     24       0.028707   0.005907   0.027207  -0.007706  -0.002194   0.001333
     25       0.007720  -0.004415  -0.052562   0.014718   0.004018   0.007248
     26      -0.020981   0.005658  -0.032886   0.009557   0.000864   0.011543
     27       0.003940   0.012400   0.006277  -0.001421  -0.004034   0.020232
     28      -0.003361  -0.482266  -0.064080   0.063383  -0.030557  -0.710080
     29      -0.001880   0.209887   0.026882  -0.029155   0.014195   0.330833
     30      -0.004186   0.070902  -0.009442   0.008898  -0.012580  -0.036077
     31       0.003812   0.549368  -0.060821   0.074365  -0.085558  -0.277809
     32      -0.000561   0.614990  -0.071101   0.086292  -0.100424  -0.327657
     33      -0.002098  -0.000023  -0.000520   0.000551   0.000339   0.000123
     34      -0.078807   0.000205   0.000443  -0.000341  -0.000361  -0.000555
     35       0.004370   0.000158   0.000666  -0.000064   0.000110  -0.000464
     36      -0.039135  -0.000253   0.128390  -0.035179  -0.008610  -0.024373
     37      -0.052108  -0.007246   0.372144  -0.106042  -0.020383  -0.074436
     38       0.028320  -0.010500   0.645170  -0.184617  -0.033987  -0.130641
     39      -0.041399  -0.082013  -0.439910   0.122226   0.035255   0.003621
     40      -0.055647   0.050227   0.253478  -0.070412  -0.021817  -0.001927
     41       0.033505  -0.051805  -0.259149   0.071098   0.022717   0.001436
     42      -0.318272   0.001884   0.000566   0.000078   0.000125  -0.002189
     43       0.549744   0.003396  -0.004975   0.002137   0.000599  -0.000641
     44      -0.298379   0.000222  -0.007808   0.002801   0.000999   0.003645
     45       0.144558   0.001020   0.004127  -0.003734  -0.002180  -0.001242
     46       0.561851  -0.000771  -0.003830   0.002749   0.001983   0.000319
     47       0.386580   0.000379   0.001709  -0.000554  -0.000890   0.000324
                 42         43         44         45         46         47    
      0       0.006233  -0.003693  -0.013265   0.090470  -0.000026   0.000170
      1      -0.004937   0.002116  -0.037203   0.008627   0.000122  -0.000054
      2      -0.015312   0.007737  -0.082940  -0.016371  -0.000174   0.000236
      3      -0.031952   0.014520   0.005673   0.007204   0.000094  -0.000167
      4       0.023139  -0.008787  -0.007538   0.000032  -0.000044   0.000050
      5       0.066553  -0.027459  -0.015419  -0.008665  -0.000054   0.000048
      6       0.022811  -0.010874   0.140453  -0.007155   0.000224   0.000001
      7       0.078212  -0.035931   0.554254  -0.080077  -0.000698  -0.000047
      8       0.068483  -0.031398   0.466313  -0.072597  -0.000784   0.000013
      9      -0.010305   0.009044   0.327121  -0.746112  -0.001188   0.000901
     10      -0.000903   0.000151  -0.027619   0.052987  -0.000149   0.000031
     11      -0.007527   0.005124   0.082318  -0.223654  -0.000530   0.000399
     12      -0.086178   0.046598  -0.314057  -0.327474  -0.005007   0.006278
     13      -0.019989   0.009873  -0.079466  -0.078886  -0.001174   0.001888
     14       0.121119  -0.064646   0.437743   0.490854   0.002942  -0.002684
     15       0.000988  -0.001141   0.000054  -0.000417   0.000007  -0.000031
     16       0.036357  -0.007213  -0.001826   0.000235  -0.000395  -0.000098
     17       0.003848  -0.010113  -0.000805  -0.000857  -0.000154  -0.000142
     18      -0.061691   0.027062   0.014293   0.003281  -0.000350   0.000064
     19      -0.382225   0.151678   0.105373   0.023125   0.000172  -0.000194
     20      -0.363541   0.144261   0.098034   0.022097   0.000186   0.000023
     21       0.442076  -0.193621  -0.083092  -0.084585  -0.000402   0.000427
     22       0.107267  -0.045666  -0.021020  -0.021775   0.000057  -0.000277
     23      -0.428650   0.187132   0.081988   0.082329   0.000031  -0.000106
     24      -0.023321  -0.055427  -0.000575  -0.000870  -0.002142   0.001556
     25       0.005408   0.003972  -0.000263   0.000551  -0.000466   0.000207
     26      -0.024132  -0.066871  -0.001082  -0.000687   0.002242   0.001210
     27       0.008094   0.000180  -0.000921   0.000349  -0.000914   0.000255
     28      -0.282164  -0.008046   0.010897  -0.005821  -0.002095   0.000324
     29       0.130814   0.004165  -0.004016   0.002784   0.000754  -0.000522
     30      -0.022245   0.010724   0.004084   0.000342   0.002124   0.000668
     31      -0.151104   0.091772   0.012332   0.004302   0.001094   0.000901
     32      -0.177188   0.104674   0.016614   0.004312  -0.001012   0.000424
     33       0.000659   0.001160   0.000335   0.000622  -0.011545   0.048917
     34      -0.000285   0.000181  -0.000002  -0.000312   0.050413  -0.010006
     35       0.000373   0.001338   0.000411   0.000237   0.028007   0.062025
     36       0.028435   0.085368   0.000871  -0.000028  -0.001930  -0.002497
     37       0.086852   0.280069   0.005518   0.001168  -0.002915  -0.003866
     38       0.145344   0.478246   0.009840   0.002218  -0.009659  -0.006880
     39       0.249003   0.564112   0.004287   0.008815   0.005375  -0.009314
     40      -0.147025  -0.329832  -0.002328  -0.005517  -0.000890   0.005282
     41       0.140826   0.319059   0.002659   0.005213   0.002140  -0.006336
     42      -0.000577   0.001288   0.001638   0.000787  -0.185272  -0.093207
     43      -0.001257  -0.000670  -0.000341   0.000612  -0.433785  -0.281034
     44      -0.002483  -0.010136  -0.000036   0.001331  -0.697721  -0.436024
     45      -0.006003  -0.010974  -0.002677  -0.005375   0.372383  -0.601515
     46       0.001743   0.002188   0.000430   0.001676  -0.250830   0.414777
     47      -0.001237  -0.002752  -0.002659  -0.001457   0.292311  -0.426303


-----------
IR SPECTRUM
-----------

 Mode   freq       eps      Int      T**2         TX        TY        TZ
       cm**-1   L/(mol*cm) km/mol    a.u.
----------------------------------------------------------------------------
  6:     68.63   0.000394    1.99  0.001793  (-0.021313  0.009865 -0.035239)
  7:    144.30   0.000671    3.39  0.001451  (-0.020930 -0.010358 -0.030097)
  8:    261.84   0.005553   28.06  0.006619  ( 0.043666  0.003160  0.068570)
  9:    286.67   0.000782    3.95  0.000851  ( 0.013002 -0.000614  0.026102)
 10:    320.79   0.000725    3.66  0.000705  (-0.004256  0.011652 -0.023477)
 11:    365.15   0.001420    7.18  0.001213  ( 0.025980  0.019438  0.012672)
 12:    486.68   0.000904    4.57  0.000579  (-0.008076 -0.017436  0.014496)
 13:    768.84   0.001245    6.29  0.000505  (-0.011435 -0.019355  0.000126)
 14:    794.26   0.003045   15.39  0.001196  (-0.027819 -0.016404  0.012389)
 15:    833.52   0.028205  142.54  0.010560  ( 0.081435  0.043470 -0.045149)
 16:    879.40   0.009096   45.97  0.003228  (-0.047116 -0.021578  0.023285)
 17:    916.73   0.001125    5.69  0.000383  (-0.018697 -0.005464  0.001893)
 18:    983.79   0.002097   10.60  0.000665  (-0.022840 -0.000411  0.011971)
 19:   1061.22   0.000691    3.49  0.000203  (-0.000779  0.010498 -0.009609)
 20:   1074.31   0.001924    9.72  0.000559  ( 0.015742  0.007674 -0.015883)
 21:   1127.37   0.000788    3.98  0.000218  ( 0.013147 -0.000406 -0.006710)
 22:   1170.50   0.002266   11.45  0.000604  ( 0.007383  0.023010 -0.004485)
 23:   1213.01   0.000042    0.21  0.000011  ( 0.000136  0.003091 -0.001128)
 24:   1270.65   0.000914    4.62  0.000224  ( 0.014570 -0.003137  0.001524)
 25:   1309.35   0.000170    0.86  0.000040  ( 0.003397  0.002387 -0.004821)
 26:   1366.93   0.000788    3.98  0.000180  ( 0.009692  0.009181 -0.001314)
 27:   1383.58   0.000291    1.47  0.000066  ( 0.001385 -0.007404  0.002992)
 28:   1396.07   0.000875    4.42  0.000196  ( 0.011322  0.007939 -0.002115)
 29:   1405.48   0.001133    5.72  0.000251  ( 0.005736  0.011213 -0.009636)
 30:   1420.06   0.001382    6.98  0.000304  ( 0.003684 -0.015120  0.007842)
 31:   1455.16   0.000708    3.58  0.000152  (-0.004260 -0.000003 -0.011563)
 32:   1467.07   0.000156    0.79  0.000033  (-0.004232 -0.003390  0.001926)
 33:   1474.19   0.001386    7.00  0.000293  ( 0.009424 -0.011266 -0.008813)
 34:   1478.81   0.001161    5.87  0.000245  ( 0.011035  0.000906 -0.011065)
 35:   1490.90   0.002045   10.33  0.000428  (-0.010111 -0.008849 -0.015731)
 36:   1651.33   0.003280   16.58  0.000620  (-0.004607  0.024466  0.000331)
 37:   3044.26   0.005451   27.55  0.000559  (-0.005015 -0.003323 -0.022860)
 38:   3057.69   0.004682   23.66  0.000478  ( 0.014906 -0.011883 -0.010700)
 39:   3058.49   0.008774   44.34  0.000895  ( 0.004322  0.029471 -0.002828)
 40:   3061.29   0.001781    9.00  0.000182  (-0.012827  0.001814 -0.003707)
 41:   3105.33   0.007148   36.12  0.000718  ( 0.006284  0.025651 -0.004569)
 42:   3111.84   0.004916   24.85  0.000493  (-0.012885  0.016403  0.007612)
 43:   3114.84   0.007939   40.12  0.000795  (-0.014167 -0.001044 -0.024363)
 44:   3154.43   0.005935   29.99  0.000587  (-0.000030 -0.009565 -0.022264)
 45:   3157.93   0.006547   33.09  0.000647  ( 0.024887  0.001351 -0.005081)
 46:   3573.31   0.000174    0.88  0.000015  ( 0.003362 -0.001166 -0.001580)
 47:   3665.18   0.000913    4.61  0.000078  (-0.007669  0.000769 -0.004281)

* The epsilon (eps) is given for a Dirac delta lineshape.
** The dipole moment derivative (T) already includes vibrational overlap.

The first frequency considered to be a vibration is 6
The total number of vibrations considered is 42


--------------------------
THERMOCHEMISTRY AT 298.15K
--------------------------

Temperature         ... 298.15 K
Pressure            ... 1.00 atm
Total Mass          ... 73.14 AMU

Throughout the following assumptions are being made:
  (1) The electronic state is orbitally nondegenerate
  (2) There are no thermally accessible electronically excited states
  (3) Hindered rotations indicated by low frequency modes are not
      treated as such but are treated as vibrations and this may
      cause some error
  (4) All equations used are the standard statistical mechanics
      equations for an ideal gas
  (5) All vibrations are strictly harmonic

freq.      68.63  E(vib)   ...       0.50 
freq.     144.30  E(vib)   ...       0.41 
freq.     261.84  E(vib)   ...       0.29 
freq.     286.67  E(vib)   ...       0.27 
freq.     320.79  E(vib)   ...       0.25 
freq.     365.15  E(vib)   ...       0.22 
freq.     486.68  E(vib)   ...       0.15 
freq.     768.84  E(vib)   ...       0.06 
freq.     794.26  E(vib)   ...       0.05 
freq.     833.52  E(vib)   ...       0.04 
freq.     879.40  E(vib)   ...       0.04 
freq.     916.73  E(vib)   ...       0.03 
freq.     983.79  E(vib)   ...       0.02 
freq.    1061.22  E(vib)   ...       0.02 
freq.    1074.31  E(vib)   ...       0.02 
freq.    1127.37  E(vib)   ...       0.01 
freq.    1170.50  E(vib)   ...       0.01 
freq.    1213.01  E(vib)   ...       0.01 
freq.    1270.65  E(vib)   ...       0.01 
freq.    1309.35  E(vib)   ...       0.01 
freq.    1366.93  E(vib)   ...       0.01 
freq.    1383.58  E(vib)   ...       0.00 
freq.    1396.07  E(vib)   ...       0.00 
freq.    1405.48  E(vib)   ...       0.00 
freq.    1420.06  E(vib)   ...       0.00 
freq.    1455.16  E(vib)   ...       0.00 
freq.    1467.07  E(vib)   ...       0.00 
freq.    1474.19  E(vib)   ...       0.00 
freq.    1478.81  E(vib)   ...       0.00 
freq.    1490.90  E(vib)   ...       0.00 
freq.    1651.33  E(vib)   ...       0.00 
freq.    3044.26  E(vib)   ...       0.00 
freq.    3057.69  E(vib)   ...       0.00 
freq.    3058.49  E(vib)   ...       0.00 
freq.    3061.29  E(vib)   ...       0.00 
freq.    3105.33  E(vib)   ...       0.00 
freq.    3111.84  E(vib)   ...       0.00 
freq.    3114.84  E(vib)   ...       0.00 
freq.    3154.43  E(vib)   ...       0.00 
freq.    3157.93  E(vib)   ...       0.00 
freq.    3573.31  E(vib)   ...       0.00 
freq.    3665.18  E(vib)   ...       0.00 

------------
INNER ENERGY
------------

The inner energy is: U= E(el) + E(ZPE) + E(vib) + E(rot) + E(trans)
    E(el)   - is the total energy from the electronic structure calculation
              = E(kin-el) + E(nuc-el) + E(el-el) + E(nuc-nuc)
    E(ZPE)  - the the zero temperature vibrational energy from the frequency calculation
    E(vib)  - the the finite temperature correction to E(ZPE) due to population
              of excited vibrational states
    E(rot)  - is the rotational thermal energy
    E(trans)- is the translational thermal energy

Summary of contributions to the inner energy U:
Electronic energy                ...   -213.58780868 Eh
Zero point energy                ...      0.15134136 Eh      94.97 kcal/mol
Thermal vibrational correction   ...      0.00392179 Eh       2.46 kcal/mol
Thermal rotational correction    ...      0.00141627 Eh       0.89 kcal/mol
Thermal translational correction ...      0.00141627 Eh       0.89 kcal/mol
-----------------------------------------------------------------------
Total thermal energy                   -213.42971298 Eh


Summary of corrections to the electronic energy:
(perhaps to be used in another calculation)
Total thermal correction                  0.00675434 Eh       4.24 kcal/mol
Non-thermal (ZPE) correction              0.15134136 Eh      94.97 kcal/mol
-----------------------------------------------------------------------
Total correction                          0.15809569 Eh      99.21 kcal/mol


--------
ENTHALPY
--------

The enthalpy is H = U + kB*T
                kB is Boltzmann's constant
Total free energy                 ...   -213.42971298 Eh 
Thermal Enthalpy correction       ...      0.00094421 Eh       0.59 kcal/mol
-----------------------------------------------------------------------
Total Enthalpy                    ...   -213.42876878 Eh


Note: Only C1 symmetry has been detected, increase convergence thresholds 
      if your molecule has a higher symmetry. Symmetry factor of 1.0 is   
      used for the rotational entropy correction. 
 

Note: Rotational entropy computed according to Herzberg 
Infrared and Raman Spectra, Chapter V,1, Van Nostrand Reinhold, 1945 
Point Group:  C1, Symmetry Number:   1  
Rotational constants in cm-1:     0.240708     0.112261     0.085796 

Vibrational entropy computed according to the QRRHO of S. Grimme
Chem.Eur.J. 2012 18 9955


-------
ENTROPY
-------

The entropy contributions are T*S = T*(S(el)+S(vib)+S(rot)+S(trans))
     S(el)   - electronic entropy
     S(vib)  - vibrational entropy
     S(rot)  - rotational entropy
     S(trans)- translational entropy
The entropies will be listed as multiplied by the temperature to get
units of energy

Electronic entropy                ...      0.00000000 Eh      0.00 kcal/mol
Vibrational entropy               ...      0.00659363 Eh      4.14 kcal/mol
Rotational entropy                ...      0.01237493 Eh      7.77 kcal/mol
Translational entropy             ...      0.01842822 Eh     11.56 kcal/mol
-----------------------------------------------------------------------
Final entropy term                ...      0.03739678 Eh     23.47 kcal/mol

In case the symmetry of your molecule has not been determined correctly
or in case you have a reason to use a different symmetry number we print 
out the resulting rotational entropy values for sn=1,12 :
 --------------------------------------------------------
|  sn= 1 | S(rot)=       0.01237493 Eh      7.77 kcal/mol|
|  sn= 2 | S(rot)=       0.01172048 Eh      7.35 kcal/mol|
|  sn= 3 | S(rot)=       0.01133764 Eh      7.11 kcal/mol|
|  sn= 4 | S(rot)=       0.01106602 Eh      6.94 kcal/mol|
|  sn= 5 | S(rot)=       0.01085533 Eh      6.81 kcal/mol|
|  sn= 6 | S(rot)=       0.01068319 Eh      6.70 kcal/mol|
|  sn= 7 | S(rot)=       0.01053764 Eh      6.61 kcal/mol|
|  sn= 8 | S(rot)=       0.01041156 Eh      6.53 kcal/mol|
|  sn= 9 | S(rot)=       0.01030035 Eh      6.46 kcal/mol|
|  sn=10 | S(rot)=       0.01020087 Eh      6.40 kcal/mol|
|  sn=11 | S(rot)=       0.01011088 Eh      6.34 kcal/mol|
|  sn=12 | S(rot)=       0.01002873 Eh      6.29 kcal/mol|
 --------------------------------------------------------


-------------------
GIBBS FREE ENERGY
-------------------

The Gibbs free energy is G = H - T*S

Total enthalpy                    ...   -213.42876878 Eh 
Total entropy correction          ...     -0.03739678 Eh    -23.47 kcal/mol
-----------------------------------------------------------------------
Final Gibbs free energy         ...   -213.46616556 Eh

For completeness - the Gibbs free energy minus the electronic energy
G-E(el)                           ...      0.12164312 Eh     76.33 kcal/mol


Timings for individual modules:

Sum of individual times         ...      288.151 sec (=   4.803 min)
GTO integral calculation        ...        6.367 sec (=   0.106 min)   2.2 %
SCF iterations                  ...      162.513 sec (=   2.709 min)  56.4 %
SCF Gradient evaluation         ...       43.781 sec (=   0.730 min)  15.2 %
Geometry relaxation             ...        0.572 sec (=   0.010 min)   0.2 %
Analytical frequency calculation...       74.918 sec (=   1.249 min)  26.0 %
                             ****ORCA TERMINATED NORMALLY****
TOTAL RUN TIME: 0 days 0 hours 4 minutes 51 seconds 836 msec
