
                                 *****************
                                 * O   R   C   A *
                                 *****************

                                            #,                                       
                                            ###                                      
                                            ####                                     
                                            #####                                    
                                            ######                                   
                                           ########,                                 
                                     ,,################,,,,,                         
                               ,,#################################,,                 
                          ,,##########################################,,             
                       ,#########################################, ''#####,          
                    ,#############################################,,   '####,        
                  ,##################################################,,,,####,       
                ,###########''''           ''''###############################       
              ,#####''   ,,,,##########,,,,          '''####'''          '####       
            ,##' ,,,,###########################,,,                        '##       
           ' ,,###''''                  '''############,,,                           
         ,,##''                                '''############,,,,        ,,,,,,###''
      ,#''                                            '''#######################'''  
     '                                                          ''''####''''         
             ,#######,   #######,   ,#######,      ##                                
            ,#'     '#,  ##    ##  ,#'     '#,    #''#        ######   ,####,        
            ##       ##  ##   ,#'  ##            #'  '#       #        #'  '#        
            ##       ##  #######   ##           ,######,      #####,   #    #        
            '#,     ,#'  ##    ##  '#,     ,#' ,#      #,         ##   #,  ,#        
             '#######'   ##     ##  '#######'  #'      '#     #####' # '####'        



                  #######################################################
                  #                        -***-                        #
                  #          Department of theory and spectroscopy      #
                  #    Directorship and core code : Frank Neese         #
                  #        Max Planck Institute fuer Kohlenforschung    #
                  #                Kaiser Wilhelm Platz 1               #
                  #                 D-45470 Muelheim/Ruhr               #
                  #                      Germany                        #
                  #                                                     #
                  #                  All rights reserved                #
                  #                        -***-                        #
                  #######################################################


                         Program Version 5.0.4 -  RELEASE  -


 With contributions from (in alphabetic order):
   Daniel Aravena         : Magnetic Suceptibility
   Michael Atanasov       : Ab Initio Ligand Field Theory (pilot matlab implementation)
   Alexander A. Auer      : GIAO ZORA, VPT2 properties, NMR spectrum
   Ute Becker             : Parallelization
   Giovanni Bistoni       : ED, misc. LED, open-shell LED, HFLD
   Martin Brehm           : Molecular dynamics
   Dmytro Bykov           : SCF Hessian
   Vijay G. Chilkuri      : MRCI spin determinant printing, contributions to CSF-ICE
   Dipayan Datta          : RHF DLPNO-CCSD density
   Achintya Kumar Dutta   : EOM-CC, STEOM-CC
   Dmitry Ganyushin       : Spin-Orbit,Spin-Spin,Magnetic field MRCI
   Miquel Garcia          : C-PCM and meta-GGA Hessian, CC/C-PCM, Gaussian charge scheme
   Yang Guo               : DLPNO-NEVPT2, F12-NEVPT2, CIM, IAO-localization
   Andreas Hansen         : Spin unrestricted coupled pair/coupled cluster methods
   Benjamin Helmich-Paris : MC-RPA, TRAH-SCF, COSX integrals
   Lee Huntington         : MR-EOM, pCC
   Robert Izsak           : Overlap fitted RIJCOSX, COSX-SCS-MP3, EOM
   Marcus Kettner         : VPT2
   Christian Kollmar      : KDIIS, OOCD, Brueckner-CCSD(T), CCSD density, CASPT2, CASPT2-K
   Simone Kossmann        : Meta GGA functionals, TD-DFT gradient, OOMP2, MP2 Hessian
   Martin Krupicka        : Initial AUTO-CI
   Lucas Lang             : DCDCAS
   Marvin Lechner         : AUTO-CI (C++ implementation), FIC-MRCC
   Dagmar Lenk            : GEPOL surface, SMD
   Dimitrios Liakos       : Extrapolation schemes; Compound Job, initial MDCI parallelization
   Dimitrios Manganas     : Further ROCIS development; embedding schemes
   Dimitrios Pantazis     : SARC Basis sets
   Anastasios Papadopoulos: AUTO-CI, single reference methods and gradients
   Taras Petrenko         : DFT Hessian,TD-DFT gradient, ASA, ECA, R-Raman, ABS, FL, XAS/XES, NRVS
   Peter Pinski           : DLPNO-MP2, DLPNO-MP2 Gradient
   Christoph Reimann      : Effective Core Potentials
   Marius Retegan         : Local ZFS, SOC
   Christoph Riplinger    : Optimizer, TS searches, QM/MM, DLPNO-CCSD(T), (RO)-DLPNO pert. Triples
   Tobias Risthaus        : Range-separated hybrids, TD-DFT gradient, RPA, STAB
   Michael Roemelt        : Original ROCIS implementation
   Masaaki Saitow         : Open-shell DLPNO-CCSD energy and density
   Barbara Sandhoefer     : DKH picture change effects
   Avijit Sen             : IP-ROCIS
   Kantharuban Sivalingam : CASSCF convergence, NEVPT2, FIC-MRCI
   Bernardo de Souza      : ESD, SOC TD-DFT
   Georgi Stoychev        : AutoAux, RI-MP2 NMR, DLPNO-MP2 response
   Willem Van den Heuvel  : Paramagnetic NMR
   Boris Wezisla          : Elementary symmetry handling
   Frank Wennmohs         : Technical directorship


 We gratefully acknowledge several colleagues who have allowed us to
 interface, adapt or use parts of their codes:
   Stefan Grimme, W. Hujo, H. Kruse, P. Pracht,  : VdW corrections, initial TS optimization,
                  C. Bannwarth, S. Ehlert          DFT functionals, gCP, sTDA/sTD-DF
   Ed Valeev, F. Pavosevic, A. Kumar             : LibInt (2-el integral package), F12 methods
   Garnet Chan, S. Sharma, J. Yang, R. Olivares  : DMRG
   Ulf Ekstrom                                   : XCFun DFT Library
   Mihaly Kallay                                 : mrcc  (arbitrary order and MRCC methods)
   Jiri Pittner, Ondrej Demel                    : Mk-CCSD
   Frank Weinhold                                : gennbo (NPA and NBO analysis)
   Christopher J. Cramer and Donald G. Truhlar   : smd solvation model
   Lars Goerigk                                  : TD-DFT with DH, B97 family of functionals
   V. Asgeirsson, H. Jonsson                     : NEB implementation
   FAccTs GmbH                                   : IRC, NEB, NEB-TS, DLPNO-Multilevel, CI-OPT
                                                   MM, QMMM, 2- and 3-layer-ONIOM, Crystal-QMMM,
                                                   LR-CPCM, SF, NACMEs, symmetry and pop. for TD-DFT,
                                                   nearIR, NL-DFT gradient (VV10), updates on ESD,
                                                   ML-optimized integration grids
   S Lehtola, MJT Oliveira, MAL Marques          : LibXC Library
   Liviu Ungur et al                             : ANISO software


 Your calculation uses the libint2 library for the computation of 2-el integrals
 For citations please refer to: http://libint.valeyev.net

 Your ORCA version has been built with support for libXC version: 5.1.0
 For citations please refer to: https://tddft.org/programs/libxc/

 This ORCA versions uses:
   CBLAS   interface :  Fast vector & matrix operations
   LAPACKE interface :  Fast linear algebra routines
   SCALAPACK package :  Parallel linear algebra routines
   Shared memory     :  Shared parallel matrices
   BLAS/LAPACK       :  OpenBLAS 0.3.15  USE64BITINT DYNAMIC_ARCH NO_AFFINITY SkylakeX SINGLE_THREADED
        Core in use  :  SkylakeX
   Copyright (c) 2011-2014, The OpenBLAS Project




***************************************
The coordinates will be read from file: butylamine_deprot_aq_0.xyz
***************************************


Your calculation utilizes the atom-pairwise dispersion correction
based on tight binding partial charges (D4)
Cite in your paper:
E.Caldeweyher, C.Bannwarth, S.Grimme, J.Chem.Phys., (2017), 147, 034112.
E.Caldeweyher, S.Ehlert, A.Hansen, H.Neugebauer, S.Grimme, J.Chem.Phys., (2018), in progress.
   

XCFun DFT library Copyright 2009-2010 Ulf Ekstrom and contributors.
See http://admol.org/xcfun for more information.
This is free software; see the source code for copying conditions.
There is ABSOLUTELY NO WARRANTY; not even for MERCHANTABILITY or FITNESS FOR A PARTICULAR PURPOSE.
For details see the documentation.
Scientific users of this library should cite U. Ekstrom, L. Visscher, R. Bast, A. J. Thorvaldsen and K. Ruud;
J.Chem.Theor.Comp. 2010, DOI: 10.1021/ct100117s
XCFun Version 0.99 

================================================================================

----- Orbital basis set information -----
Your calculation utilizes the basis: def2-SVP
   F. Weigend and R. Ahlrichs, Phys. Chem. Chem. Phys. 7, 3297 (2005).

----- AuxJ basis set information -----
Your calculation utilizes the auxiliary basis: def2/J
   F. Weigend, Phys. Chem. Chem. Phys. 8, 1057 (2006).

================================================================================
                                        WARNINGS
                       Please study these warnings very carefully!
================================================================================


WARNING: Geometry Optimization
  ===> : Switching off AutoStart
         For restart on a previous wavefunction, please use MOREAD

INFO   : the flag for use of the SHARK integral package has been found!

================================================================================
                                       INPUT FILE
================================================================================
NAME = butylamine_deprot_aq_0.inp
|  1> # ORCA 5.0.4 - /users/bwb16179/postgrad/2024_06/pKa_Reviewer_Comments/CREST_Confs/butylamine/butylamine_deprot_aq_0.inp # write input file
|  2> # Basic Mode
|  3> #
|  4> ! Opt Freq wB97X Def2-SVP D4 SlowConv TightSCF Defgrid2 Def2/J RIJCOSX 
|  5> 
|  6> %PAL NPROCS 4 END
|  7> 
|  8> %maxcore 4500
|  9> 
| 10> %geom
| 11> Maxiter 150
| 12> END
| 13> 
| 14> * xyzfile 0 1 butylamine_deprot_aq_0.xyz
| 15> 
| 16>                          ****END OF INPUT****
================================================================================

                       *****************************
                       * Geometry Optimization Run *
                       *****************************

Geometry optimization settings:
Update method            Update   .... BFGS
Choice of coordinates    CoordSys .... Z-matrix Internals
Initial Hessian          InHess   .... Almoef's Model

Convergence Tolerances:
Energy Change            TolE     ....  5.0000e-06 Eh
Max. Gradient            TolMAXG  ....  3.0000e-04 Eh/bohr
RMS Gradient             TolRMSG  ....  1.0000e-04 Eh/bohr
Max. Displacement        TolMAXD  ....  4.0000e-03 bohr
RMS Displacement         TolRMSD  ....  2.0000e-03 bohr
Strict Convergence                ....  False
------------------------------------------------------------------------------
                        ORCA OPTIMIZATION COORDINATE SETUP
------------------------------------------------------------------------------

The optimization will be done in new redundant internal coordinates
Making redundant internal coordinates   ...  (new redundants) done
Evaluating the initial hessian          ...  (Almloef) done
Evaluating the coordinates              ...  done
Calculating the B-matrix                .... done
Calculating the G-matrix                .... done
Diagonalizing the G-matrix              .... done
Small eigenvalue found = 2.796e-02
The first mode is                       ....   33
The number of degrees of freedom        ....   42

    -----------------------------------------------------------------
                    Redundant Internal Coordinates


    -----------------------------------------------------------------
         Definition                    Initial Value    Approx d2E/dq
    -----------------------------------------------------------------
      1. B(C   1,C   0)                  1.5244         0.381381   
      2. B(H   2,C   0)                  1.0873         0.363707   
      3. B(H   3,C   0)                  1.0879         0.362887   
      4. B(H   4,C   0)                  1.0879         0.362905   
      5. B(C   5,C   1)                  1.5262         0.378784   
      6. B(H   6,C   1)                  1.0924         0.356992   
      7. B(H   7,C   1)                  1.0924         0.356998   
      8. B(C   8,C   5)                  1.5345         0.367390   
      9. B(H   9,C   5)                  1.0940         0.354813   
     10. B(H  10,C   5)                  1.0940         0.354820   
     11. B(N  11,C   8)                  1.4551         0.440643   
     12. B(H  12,C   8)                  1.0940         0.354888   
     13. B(H  13,C   8)                  1.0940         0.354896   
     14. B(H  14,N  11)                  1.0147         0.425349   
     15. B(H  15,N  11)                  1.0146         0.425392   
     16. A(H   3,C   0,H   4)          108.3283         0.291547   
     17. A(C   1,C   0,H   4)          110.5352         0.325839   
     18. A(C   1,C   0,H   2)          110.5523         0.325957   
     19. A(H   2,C   0,H   3)          108.4064         0.291649   
     20. A(H   2,C   0,H   4)          108.4065         0.291651   
     21. A(C   1,C   0,H   3)          110.5360         0.325836   
     22. A(C   0,C   1,C   5)          111.8829         0.365504   
     23. A(H   6,C   1,H   7)          107.5937         0.290050   
     24. A(C   5,C   1,H   7)          109.1618         0.324596   
     25. A(C   0,C   1,H   7)          109.4693         0.324960   
     26. A(C   5,C   1,H   6)          109.1647         0.324595   
     27. A(C   0,C   1,H   6)          109.4699         0.324959   
     28. A(C   8,C   5,H   9)          109.1355         0.322648   
     29. A(C   1,C   5,H   9)          109.3459         0.324269   
     30. A(C   1,C   5,C   8)          112.0777         0.363175   
     31. A(H   9,C   5,H  10)          107.6942         0.289493   
     32. A(C   8,C   5,H  10)          109.1374         0.322649   
     33. A(C   1,C   5,H  10)          109.3490         0.324270   
     34. A(H  12,C   8,H  13)          107.8124         0.289513   
     35. A(N  11,C   8,H  13)          107.4844         0.330473   
     36. A(C   5,C   8,H  13)          109.4756         0.322660   
     37. A(N  11,C   8,H  12)          107.4838         0.330471   
     38. A(C   5,C   8,H  12)          109.4772         0.322659   
     39. A(C   5,C   8,N  11)          114.8670         0.370390   
     40. A(H  14,N  11,H  15)          107.1962         0.301605   
     41. A(C   8,N  11,H  15)          109.5697         0.337649   
     42. A(C   8,N  11,H  14)          109.5691         0.337644   
     43. D(H   6,C   1,C   0,H   4)    178.9341         0.011588   
     44. D(C   5,C   1,C   0,H   3)     60.0082         0.011588   
     45. D(H   7,C   1,C   0,H   3)   -178.8496         0.011588   
     46. D(H   6,C   1,C   0,H   2)     58.8982         0.011588   
     47. D(C   5,C   1,C   0,H   4)    -59.9195         0.011588   
     48. D(H   6,C   1,C   0,H   3)    -61.1382         0.011588   
     49. D(H   7,C   1,C   0,H   4)     61.2227         0.011588   
     50. D(C   5,C   1,C   0,H   2)   -179.9555         0.011588   
     51. D(H   7,C   1,C   0,H   2)    -58.8132         0.011588   
     52. D(H   9,C   5,C   1,H   6)   -179.8353         0.011439   
     53. D(C   8,C   5,C   1,H   7)     58.6744         0.011439   
     54. D(C   8,C   5,C   1,H   6)    -58.6828         0.011439   
     55. D(C   8,C   5,C   1,C   0)    179.9944         0.011439   
     56. D(H   9,C   5,C   1,H   7)    -62.4780         0.011439   
     57. D(H  10,C   5,C   1,H   7)    179.8314         0.011439   
     58. D(H  10,C   5,C   1,H   6)     62.4741         0.011439   
     59. D(H  10,C   5,C   1,C   0)    -58.8486         0.011439   
     60. D(H   9,C   5,C   1,C   0)     58.8420         0.011439   
     61. D(H  13,C   8,C   5,H   9)     62.3130         0.010799   
     62. D(H  13,C   8,C   5,C   1)    -58.9605         0.010799   
     63. D(H  12,C   8,C   5,H  10)    -62.2548         0.010799   
     64. D(H  12,C   8,C   5,H   9)   -179.7024         0.010799   
     65. D(H  12,C   8,C   5,C   1)     59.0240         0.010799   
     66. D(N  11,C   8,C   5,H  10)     58.7531         0.010799   
     67. D(N  11,C   8,C   5,H   9)    -58.6945         0.010799   
     68. D(H  13,C   8,C   5,H  10)    179.7607         0.010799   
     69. D(N  11,C   8,C   5,C   1)   -179.9681         0.010799   
     70. D(H  15,N  11,C   8,C   5)    -58.6363         0.016557   
     71. D(H  14,N  11,C   8,H  13)    -63.3812         0.016557   
     72. D(H  14,N  11,C   8,H  12)   -179.1967         0.016557   
     73. D(H  14,N  11,C   8,C   5)     58.7102         0.016557   
     74. D(H  15,N  11,C   8,H  13)    179.2722         0.016557   
     75. D(H  15,N  11,C   8,H  12)     63.4567         0.016557   
    -----------------------------------------------------------------

Number of atoms                         .... 16
Number of degrees of freedom            .... 75

         *************************************************************
         *                GEOMETRY OPTIMIZATION CYCLE   1            *
         *************************************************************
---------------------------------
CARTESIAN COORDINATES (ANGSTROEM)
---------------------------------
  C     -2.551791    0.323106    0.000106
  C     -1.282849   -0.521578    0.000112
  H     -3.433677   -0.312873    0.001201
  H     -2.587430    0.958278   -0.882400
  H     -2.586372    0.959845    0.881506
  C     -0.024545    0.342163   -0.000311
  H     -1.275079   -1.166982   -0.881162
  H     -1.274767   -1.166478    0.881745
  C      1.255750   -0.503810   -0.000167
  H     -0.027862    0.987820    0.882871
  H     -0.028039    0.987310   -0.883859
  N      2.494023    0.260298    0.000180
  H      1.267348   -1.148067   -0.884229
  H      1.266971   -1.148280    0.883736
  H      2.522328    0.861231    0.817268
  H      2.522108    0.862330   -0.816071

----------------------------
CARTESIAN COORDINATES (A.U.)
----------------------------
  NO LB      ZA    FRAG     MASS         X           Y           Z
   0 C     6.0000    0    12.011   -4.822187    0.610581    0.000200
   1 C     6.0000    0    12.011   -2.424233   -0.985639    0.000211
   2 H     1.0000    0     1.008   -6.488710   -0.591244    0.002270
   3 H     1.0000    0     1.008   -4.889533    1.810883   -1.667494
   4 H     1.0000    0     1.008   -4.887534    1.813843    1.665806
   5 C     6.0000    0    12.011   -0.046383    0.646595   -0.000588
   6 H     1.0000    0     1.008   -2.409550   -2.205277   -1.665154
   7 H     1.0000    0     1.008   -2.408961   -2.204324    1.666257
   8 C     6.0000    0    12.011    2.373024   -0.952062   -0.000316
   9 H     1.0000    0     1.008   -0.052651    1.866709    1.668384
  10 H     1.0000    0     1.008   -0.052986    1.865746   -1.670251
  11 N     7.0000    0    14.007    4.713021    0.491892    0.000341
  12 H     1.0000    0     1.008    2.394941   -2.169532   -1.670951
  13 H     1.0000    0     1.008    2.394229   -2.169934    1.670020
  14 H     1.0000    0     1.008    4.766509    1.627491    1.544413
  15 H     1.0000    0     1.008    4.766094    1.629568   -1.542151

--------------------------------
INTERNAL COORDINATES (ANGSTROEM)
--------------------------------
 C      0   0   0     0.000000000000     0.00000000     0.00000000
 C      1   0   0     1.524370393636     0.00000000     0.00000000
 H      1   2   0     1.087287066792   110.55234311     0.00000000
 H      1   2   3     1.087901610593   110.53600622   239.96364849
 H      1   2   3     1.087887615517   110.53518691   120.03594809
 C      2   1   3     1.526230213798   111.88291198   180.04453006
 H      2   1   3     1.092359668048   109.46988272    58.89817684
 H      2   1   3     1.092354746682   109.46925139   301.18678809
 C      6   2   1     1.534544140195   112.07771664   179.99438107
 H      6   2   1     1.094026345192   109.34586285    58.84196156
 H      6   2   1     1.094021215233   109.34899428   301.15135130
 N      9   6   2     1.455053579368   114.86699437   180.03191687
 H      9   6   2     1.093968638397   109.47719631    59.02398014
 H      9   6   2     1.093962469872   109.47557650   301.03947720
 H     12   9   6     1.014669516192   109.56911559    58.71024203
 H     12   9   6     1.014642050435   109.56966953   301.36366965

---------------------------
INTERNAL COORDINATES (A.U.)
---------------------------
 C      0   0   0     0.000000000000     0.00000000     0.00000000
 C      1   0   0     2.880642570630     0.00000000     0.00000000
 H      1   2   0     2.054674785192   110.55234311     0.00000000
 H      1   2   3     2.055836104672   110.53600622   239.96364849
 H      1   2   3     2.055809657812   110.53518691   120.03594809
 C      2   1   3     2.884157121394   111.88291198   180.04453006
 H      2   1   3     2.064260612353   109.46988272    58.89817684
 H      2   1   3     2.064251312318   109.46925139   301.18678809
 C      6   2   1     2.899868165382   112.07771664   179.99438107
 H      6   2   1     2.067410175708   109.34586285    58.84196156
 H      6   2   1     2.067400481489   109.34899428   301.15135130
 N      9   6   2     2.749652775187   114.86699437   180.03191687
 H      9   6   2     2.067301125669   109.47719631    59.02398014
 H      9   6   2     2.067289468846   109.47557650   301.03947720
 H     12   9   6     1.917447502042   109.56911559    58.71024203
 H     12   9   6     1.917395599283   109.56966953   301.36366965

---------------------
BASIS SET INFORMATION
---------------------
There are 3 groups of distinct atoms

 Group   1 Type C   : 7s4p1d contracted to 3s2p1d pattern {511/31/1}
 Group   2 Type H   : 4s1p contracted to 2s1p pattern {31/1}
 Group   3 Type N   : 7s4p1d contracted to 3s2p1d pattern {511/31/1}

Atom   0C    basis set group =>   1
Atom   1C    basis set group =>   1
Atom   2H    basis set group =>   2
Atom   3H    basis set group =>   2
Atom   4H    basis set group =>   2
Atom   5C    basis set group =>   1
Atom   6H    basis set group =>   2
Atom   7H    basis set group =>   2
Atom   8C    basis set group =>   1
Atom   9H    basis set group =>   2
Atom  10H    basis set group =>   2
Atom  11N    basis set group =>   3
Atom  12H    basis set group =>   2
Atom  13H    basis set group =>   2
Atom  14H    basis set group =>   2
Atom  15H    basis set group =>   2
---------------------------------
AUXILIARY/J BASIS SET INFORMATION
---------------------------------
There are 3 groups of distinct atoms

 Group   1 Type C   : 12s5p4d2f1g contracted to 6s4p3d1f1g pattern {711111/2111/211/2/1}
 Group   2 Type H   : 5s2p1d contracted to 3s1p1d pattern {311/2/1}
 Group   3 Type N   : 12s5p4d2f1g contracted to 6s4p3d1f1g pattern {711111/2111/211/2/1}

Atom   0C    basis set group =>   1
Atom   1C    basis set group =>   1
Atom   2H    basis set group =>   2
Atom   3H    basis set group =>   2
Atom   4H    basis set group =>   2
Atom   5C    basis set group =>   1
Atom   6H    basis set group =>   2
Atom   7H    basis set group =>   2
Atom   8C    basis set group =>   1
Atom   9H    basis set group =>   2
Atom  10H    basis set group =>   2
Atom  11N    basis set group =>   3
Atom  12H    basis set group =>   2
Atom  13H    basis set group =>   2
Atom  14H    basis set group =>   2
Atom  15H    basis set group =>   2


           ************************************************************
           *        Program running with 4 parallel MPI-processes     *
           *              working on a common directory               *
           ************************************************************
------------------------------------------------------------------------------
                           ORCA GTO INTEGRAL CALCULATION
                           -- RI-GTO INTEGRALS CHOSEN --
------------------------------------------------------------------------------
------------------------------------------------------------------------------
                   ___                                                        
                  /   \      - P O W E R E D   B Y -                         
                 /     \                                                     
                 |  |  |   _    _      __       _____    __    __             
                 |  |  |  | |  | |    /  \     |  _  \  |  |  /  |          
                  \  \/   | |  | |   /    \    | | | |  |  | /  /          
                 / \  \   | |__| |  /  /\  \   | |_| |  |  |/  /          
                |  |  |   |  __  | /  /__\  \  |    /   |      \           
                |  |  |   | |  | | |   __   |  |    \   |  |\   \          
                \     /   | |  | | |  |  |  |  | |\  \  |  | \   \       
                 \___/    |_|  |_| |__|  |__|  |_| \__\ |__|  \__/        
                                                                              
                      - O R C A' S   B I G   F R I E N D -                    
                                      &                                       
                       - I N T E G R A L  F E E D E R -                       
                                                                              
 v1 FN, 2020, v2 2021                                                         
------------------------------------------------------------------------------


Reading SHARK input file butylamine_deprot_aq_0.SHARKINP.tmp ... ok
----------------------
SHARK INTEGRAL PACKAGE
----------------------

Number of atoms                             ...     16
Number of basis functions                   ...    125
Number of shells                            ...     63
Maximum angular momentum                    ...      2
Integral batch strategy                     ... SHARK/LIBINT Hybrid
RI-J (if used) integral strategy            ... SPLIT-RIJ (Revised 2003 algorithm where possible)
Printlevel                                  ...      1
Contraction scheme used                     ... SEGMENTED contraction
Coulomb Range Separation                    ... NOT USED
Exchange Range Separation                   ... Long Range
   Mu parameter                             ...  0.300000
   Scaling (regular/separated)              ...  0.157706  0.842294
Finite Nucleus Model                        ... NOT USED
Auxiliary Coulomb fitting basis             ... AVAILABLE
   # of basis functions in Aux-J            ...    366
   # of shells in Aux-J                     ...    130
   Maximum angular momentum in Aux-J        ...      4
Auxiliary J/K fitting basis                 ... NOT available
Auxiliary Correlation fitting basis         ... NOT available
Auxiliary 'external' fitting basis          ... NOT available
Integral threshold                          ...     2.500000e-11
Primitive cut-off                           ...     2.500000e-12
Primitive pair pre-selection threshold      ...     2.500000e-12

Calculating pre-screening integrals         ... done (  0.0 sec) Dimension = 63
Organizing shell pair data                  ... done (  0.0 sec)
Shell pair information
Total number of shell pairs                 ...      2016
Shell pairs after pre-screening             ...      1933
Total number of primitive shell pairs       ...      6768
Primitive shell pairs kept                  ...      5137
          la=0 lb=0:    685 shell pairs
          la=1 lb=0:    747 shell pairs
          la=1 lb=1:    214 shell pairs
          la=2 lb=0:    175 shell pairs
          la=2 lb=1:     98 shell pairs
          la=2 lb=2:     14 shell pairs

Calculating one electron integrals          ... done (  0.0 sec)
Calculating RI/J V-Matrix + Cholesky decomp.... done (  0.0 sec)
Calculating Nuclear repulsion               ... done (  0.0 sec) ENN=    186.292587698404 Eh

SHARK setup successfully completed in   0.2 seconds

Maximum memory used throughout the entire GTOINT-calculation: 10.6 MB


           ************************************************************
           *        Program running with 4 parallel MPI-processes     *
           *              working on a common directory               *
           ************************************************************
-------------------------------------------------------------------------------
                                 ORCA SCF
-------------------------------------------------------------------------------

------------
SCF SETTINGS
------------
Hamiltonian:
 Density Functional     Method          .... DFT(GTOs)
 Exchange Functional    Exchange        .... WB97X
 Correlation Functional Correlation     .... WB97X
 Gradients option       PostSCFGGA      .... off
 Hybrid DFT is turned on
   Fraction HF Exchange ScalHFX         ....  0.157706
   Scaling of DF-GGA-X  ScalDFX         ....  0.000000
   Scaling of DF-GGA-C  ScalDFC         ....  1.000000
   Scaling of DF-LDA-C  ScalLDAC        ....  1.000000
   Perturbative correction              ....  0.000000
   Density functional embedding theory  .... OFF
 Long-range corrected/Screened/Range-Separated Hybrid DFT is turned on
   Amount of maximum screened exact exchange              ....  0.842294
   Range separation parameter mu (erf(mu*r12)/r12)        ....  0.300000
 RI-approximation to the Coulomb term is turned on
   Number of AuxJ basis functions       .... 366
   RIJ-COSX (HFX calculated with COS-X)).... on


General Settings:
 Integral files         IntName         .... butylamine_deprot_aq_0
 Hartree-Fock type      HFTyp           .... RHF
 Total Charge           Charge          ....    0
 Multiplicity           Mult            ....    1
 Number of Electrons    NEL             ....   42
 Basis Dimension        Dim             ....  125
 Nuclear Repulsion      ENuc            ....    186.2925876984 Eh

Convergence Acceleration:
 DIIS                   CNVDIIS         .... on
   Start iteration      DIISMaxIt       ....     0
   Startup error        DIISStart       ....  0.200000
   # of expansion vecs  DIISMaxEq       ....     5
   Bias factor          DIISBfac        ....   1.050
   Max. coefficient     DIISMaxC        ....  10.000
 Trust-Rad. Augm. Hess. CNVTRAH         .... auto
   Auto Start mean grad. ratio tolernc. ....  1.125000
   Auto Start start iteration           ....    20
   Auto Start num. interpolation iter.  ....    10
   Max. Number of Micro iterations      ....    16
   Max. Number of Macro iterations      .... Maxiter - #DIIS iter
   Number of Davidson start vectors     ....     2
   Converg. threshold I  (grad. norm)   ....   1.000e-05
   Converg. threshold II (energy diff.) ....   1.000e-08
   Grad. Scal. Fac. for Micro threshold ....   0.100
   Minimum threshold for Micro iter.    ....   0.010
   NR start threshold (gradient norm)   ....   0.001
   Initial trust radius                 ....   0.400
   Minimum AH scaling param. (alpha)    ....   1.000
   Maximum AH scaling param. (alpha)    .... 1000.000
   Orbital update algorithm             .... Taylor
   White noise on init. David. guess    .... on
   Maximum white noise                  ....   0.010
   Quad. conv. algorithm                .... NR
 SOSCF                  CNVSOSCF        .... on
   Start iteration      SOSCFMaxIt      ....   150
   Startup grad/error   SOSCFStart      ....  0.001000
 Level Shifting         CNVShift        .... on
   Level shift para.    LevelShift      ....    0.2500
   Turn off err/grad.   ShiftErr        ....    0.0000
 Zerner damping         CNVZerner       .... off
 Static damping         CNVDamp         .... on
   Fraction old density DampFac         ....    0.8500
   Max. Damping (<1)    DampMax         ....    0.9800
   Min. Damping (>=0)   DampMin         ....    0.0000
   Turn off err/grad.   DampErr         ....    0.0300
 Fernandez-Rico         CNVRico         .... off

SCF Procedure:
 Maximum # iterations   MaxIter         ....   125
 SCF integral mode      SCFMode         .... Direct
   Integral package                     .... SHARK and LIBINT hybrid scheme
 Reset frequency        DirectResetFreq ....    20
 Integral Threshold     Thresh          ....  2.500e-11 Eh
 Primitive CutOff       TCut            ....  2.500e-12 Eh

Convergence Tolerance:
 Convergence Check Mode ConvCheckMode   .... Total+1el-Energy
 Convergence forced     ConvForced      .... 0
 Energy Change          TolE            ....  1.000e-08 Eh
 1-El. energy change                    ....  1.000e-05 Eh
 Orbital Gradient       TolG            ....  1.000e-05
 Orbital Rotation angle TolX            ....  1.000e-05
 DIIS Error             TolErr          ....  5.000e-07


Diagonalization of the overlap matrix:
Smallest eigenvalue                        ... 1.541e-03
Time for diagonalization                   ...    0.004 sec
Threshold for overlap eigenvalues          ... 1.000e-08
Number of eigenvalues below threshold      ... 0
Time for construction of square roots      ...    0.003 sec
Total time needed                          ...    0.007 sec

Time for model grid setup =    0.067 sec

------------------------------
INITIAL GUESS: MODEL POTENTIAL
------------------------------
Loading Hartree-Fock densities                     ... done
Calculating cut-offs                               ... done
Initializing the effective Hamiltonian             ... done
Setting up the integral package (SHARK)            ... done
Starting the Coulomb interaction                   ... done (   0.0 sec)
Reading the grid                                   ... done
Mapping shells                                     ... done
Starting the XC term evaluation                    ... done (   0.0 sec)
  promolecular density results
     # of electrons  =     42.000756830
     EX              =    -30.245633889
     EC              =     -1.355066429
     EX+EC           =    -31.600700318
Transforming the Hamiltonian                       ... done (   0.0 sec)
Diagonalizing the Hamiltonian                      ... done (   0.0 sec)
Back transforming the eigenvectors                 ... done (   0.0 sec)
Now organizing SCF variables                       ... done
                      ------------------
                      INITIAL GUESS DONE (   0.2 sec)
                      ------------------
-------------------
DFT GRID GENERATION
-------------------

General Integration Accuracy     IntAcc      ... 4.388
Radial Grid Type                 RadialGrid  ... OptM3 with GC (2021)
Angular Grid (max. ang.)         AngularGrid ... 4 (Lebedev-302)
Angular grid pruning method      GridPruning ... 4 (adaptive)
Weight generation scheme         WeightScheme... Becke
Basis function cutoff            BFCut       ... 1.0000e-11
Integration weight cutoff        WCut        ... 1.0000e-14
Angular grids for H and He will be reduced by one unit
Partially contracted basis set               ... off
Rotationally invariant grid construction     ... off

Total number of grid points                  ...    65490
Total number of batches                      ...     1031
Average number of points per batch           ...       63
Average number of grid points per atom       ...     4093
Time for grid setup =    0.337 sec

--------------------
COSX GRID GENERATION
--------------------

GRIDX 1
-------
General Integration Accuracy     IntAcc      ... 3.816
Radial Grid Type                 RadialGrid  ... OptM3 with GC (2021)
Angular Grid (max. ang.)         AngularGrid ... 1 (Lebedev-50)
Angular grid pruning method      GridPruning ... 4 (adaptive)
Weight generation scheme         WeightScheme... Becke
Basis function cutoff            BFCut       ... 1.0000e-11
Integration weight cutoff        WCut        ... 1.0000e-14
Angular grids for H and He will be reduced by one unit
Partially contracted basis set               ... on
Rotationally invariant grid construction     ... off

Total number of grid points                  ...     8431
Total number of batches                      ...      141
Average number of points per batch           ...       59
Average number of grid points per atom       ...      527
UseSFitting                                  ... on

GRIDX 2
-------
General Integration Accuracy     IntAcc      ... 4.020
Radial Grid Type                 RadialGrid  ... OptM3 with GC (2021)
Angular Grid (max. ang.)         AngularGrid ... 2 (Lebedev-110)
Angular grid pruning method      GridPruning ... 4 (adaptive)
Weight generation scheme         WeightScheme... Becke
Basis function cutoff            BFCut       ... 1.0000e-11
Integration weight cutoff        WCut        ... 1.0000e-14
Angular grids for H and He will be reduced by one unit
Partially contracted basis set               ... on
Rotationally invariant grid construction     ... off

Total number of grid points                  ...    17430
Total number of batches                      ...      281
Average number of points per batch           ...       62
Average number of grid points per atom       ...     1089
UseSFitting                                  ... on

GRIDX 3
-------
General Integration Accuracy     IntAcc      ... 4.338
Radial Grid Type                 RadialGrid  ... OptM3 with GC (2021)
Angular Grid (max. ang.)         AngularGrid ... 3 (Lebedev-194)
Angular grid pruning method      GridPruning ... 4 (adaptive)
Weight generation scheme         WeightScheme... Becke
Basis function cutoff            BFCut       ... 1.0000e-11
Integration weight cutoff        WCut        ... 1.0000e-14
Angular grids for H and He will be reduced by one unit
Partially contracted basis set               ... on
Rotationally invariant grid construction     ... off

Total number of grid points                  ...    38098
Total number of batches                      ...      605
Average number of points per batch           ...       62
Average number of grid points per atom       ...     2381
UseSFitting                                  ... on

Time for X-Grid setup             =    0.312 sec

--------------
SCF ITERATIONS
--------------
ITER       Energy         Delta-E        Max-DP      RMS-DP      [F,P]     Damp
               ***  Starting incremental Fock matrix formation  ***
  0   -213.3834548305   0.000000000000 0.03897816  0.00117430  0.2358460 0.8500
  1   -213.4281255325  -0.044670701998 0.03353970  0.00112339  0.1831318 0.8500
                               ***Turning on DIIS***
  2   -213.4611010094  -0.032975476902 0.02502310  0.00090272  0.1348295 0.8500
  3   -213.4849665949  -0.023865585534 0.01435961  0.00058879  0.0979735 0.8500
  4   -213.5030713150  -0.018104720117 0.00953272  0.00041968  0.0771050 0.8500
  5   -213.5171739030  -0.014102587939 0.00711284  0.00033114  0.0638340 0.8500
  6   -213.5285791812  -0.011405278231 0.00566590  0.00027470  0.0538311 0.8500
  7   -213.5379912785  -0.009412097256 0.00474991  0.00023655  0.0456653 0.8500
  8   -213.5458520485  -0.007860770023 0.00403500  0.00020385  0.0385257 0.8500
  9   -213.5524327027  -0.006580654246 0.00341658  0.00017440  0.0324185 0.8500
 10   -213.5579493077  -0.005516605003 0.01917044  0.00098997  0.0272938 0.0000
 11   -213.5879443758  -0.029995068041 0.00111590  0.00003982  0.0014196 0.0000
                      *** Initiating the SOSCF procedure ***
                           *** Shutting down DIIS ***
                      *** Re-Reading the Fockian *** 
                      *** Removing any level shift *** 
ITER      Energy       Delta-E        Grad      Rot      Max-DP    RMS-DP
 12   -213.58795421  -0.0000098304  0.000123  0.000123  0.000343  0.000015
               *** Restarting incremental Fock matrix formation ***
 13   -213.58809019  -0.0001359888  0.000038  0.000047  0.000239  0.000010
 14   -213.58809031  -0.0000001101  0.000015  0.000027  0.000081  0.000003
 15   -213.58809031  -0.0000000087  0.000010  0.000005  0.000029  0.000001
                  ***Gradient check signals convergence***
              ***Rediagonalizing the Fockian in SOSCF/NRSCF***

               *****************************************************
               *                     SUCCESS                       *
               *           SCF CONVERGED AFTER  16 CYCLES          *
               *****************************************************

Old exchange energy                            =    -10.443561031 Eh
New exchange energy                            =    -10.443527393 Eh
Exchange energy change after final integration =      0.000033638 Eh
Total energy after final integration           =   -213.588056681 Eh
Final COS-X integration done in                =     3.064 sec

----------------
TOTAL SCF ENERGY
----------------

Total Energy       :         -213.58805668 Eh           -5812.02650 eV

Components:
Nuclear Repulsion  :          186.29258770 Eh            5069.27903 eV
Electronic Energy  :         -399.88064438 Eh          -10881.30553 eV
One Electron Energy:         -655.24901414 Eh          -17830.23215 eV
Two Electron Energy:          255.36836976 Eh            6948.92662 eV
Max COSX asymmetry :            0.00000201 Eh               0.00005 eV

Virial components:
Potential Energy   :         -424.62598701 Eh          -11554.66053 eV
Kinetic Energy     :          211.03793033 Eh            5742.63403 eV
Virial Ratio       :            2.01208373


DFT components:
N(Alpha)           :       21.000082668218 electrons
N(Beta)            :       21.000082668218 electrons
N(Total)           :       42.000165336437 electrons
E(XC)              :      -22.249683153597 Eh       
DFET-embed. en.    :        0.000000000000 Eh       

---------------
SCF CONVERGENCE
---------------

  Last Energy change         ...   -5.1498e-09  Tolerance :   1.0000e-08
  Last MAX-Density change    ...    3.5527e-15  Tolerance :   1.0000e-07
  Last RMS-Density change    ...    4.8432e-17  Tolerance :   5.0000e-09
  Last Orbital Gradient      ...    1.0749e-06  Tolerance :   1.0000e-05
  Last Orbital Rotation      ...    9.3793e-07  Tolerance :   1.0000e-05

             **** THE GBW FILE WAS UPDATED (butylamine_deprot_aq_0.gbw) ****
             **** DENSITY butylamine_deprot_aq_0.scfp WAS UPDATED ****
             **** ENERGY FILE WAS UPDATED (butylamine_deprot_aq_0.en.tmp) ****
             **** THE GBW FILE WAS UPDATED (butylamine_deprot_aq_0.gbw) ****
             **** DENSITY butylamine_deprot_aq_0.scfp WAS UPDATED ****
----------------
ORBITAL ENERGIES
----------------

  NO   OCC          E(Eh)            E(eV) 
   0   2.0000     -14.373668      -391.1274 
   1   2.0000     -10.282321      -279.7962 
   2   2.0000     -10.262735      -279.2632 
   3   2.0000     -10.258609      -279.1509 
   4   2.0000     -10.256999      -279.1071 
   5   2.0000      -0.997569       -27.1452 
   6   2.0000      -0.912669       -24.8350 
   7   2.0000      -0.824401       -22.4331 
   8   2.0000      -0.732925       -19.9439 
   9   2.0000      -0.697926       -18.9915 
  10   2.0000      -0.614707       -16.7270 
  11   2.0000      -0.570284       -15.5182 
  12   2.0000      -0.546965       -14.8837 
  13   2.0000      -0.536970       -14.6117 
  14   2.0000      -0.503278       -13.6949 
  15   2.0000      -0.480250       -13.0683 
  16   2.0000      -0.455036       -12.3821 
  17   2.0000      -0.447717       -12.1830 
  18   2.0000      -0.435419       -11.8484 
  19   2.0000      -0.428091       -11.6490 
  20   2.0000      -0.329157        -8.9568 
  21   0.0000       0.142990         3.8910 
  22   0.0000       0.159456         4.3390 
  23   0.0000       0.175174         4.7667 
  24   0.0000       0.180886         4.9222 
  25   0.0000       0.211425         5.7532 
  26   0.0000       0.229179         6.2363 
  27   0.0000       0.237100         6.4518 
  28   0.0000       0.246872         6.7177 
  29   0.0000       0.255463         6.9515 
  30   0.0000       0.266325         7.2471 
  31   0.0000       0.282959         7.6997 
  32   0.0000       0.309283         8.4160 
  33   0.0000       0.324964         8.8427 
  34   0.0000       0.353312         9.6141 
  35   0.0000       0.384336        10.4583 
  36   0.0000       0.518737        14.1156 
  37   0.0000       0.524634        14.2760 
  38   0.0000       0.542085        14.7509 
  39   0.0000       0.555233        15.1086 
  40   0.0000       0.569774        15.5043 
  41   0.0000       0.601095        16.3566 
  42   0.0000       0.603514        16.4224 
  43   0.0000       0.711089        19.3497 
  44   0.0000       0.727536        19.7973 
  45   0.0000       0.736464        20.0402 
  46   0.0000       0.750026        20.4093 
  47   0.0000       0.757611        20.6156 
  48   0.0000       0.776068        21.1179 
  49   0.0000       0.776726        21.1358 
  50   0.0000       0.795088        21.6354 
  51   0.0000       0.800031        21.7700 
  52   0.0000       0.804320        21.8867 
  53   0.0000       0.804889        21.9021 
  54   0.0000       0.815641        22.1947 
  55   0.0000       0.817597        22.2479 
  56   0.0000       0.833801        22.6889 
  57   0.0000       0.834441        22.7063 
  58   0.0000       0.859478        23.3876 
  59   0.0000       0.931650        25.3515 
  60   0.0000       0.950190        25.8560 
  61   0.0000       1.039915        28.2975 
  62   0.0000       1.079778        29.3823 
  63   0.0000       1.103679        30.0326 
  64   0.0000       1.114900        30.3380 
  65   0.0000       1.147333        31.2205 
  66   0.0000       1.275622        34.7114 
  67   0.0000       1.280269        34.8379 
  68   0.0000       1.330953        36.2171 
  69   0.0000       1.379186        37.5296 
  70   0.0000       1.455499        39.6062 
  71   0.0000       1.473569        40.0978 
  72   0.0000       1.491152        40.5763 
  73   0.0000       1.537643        41.8414 
  74   0.0000       1.592807        43.3425 
  75   0.0000       1.658828        45.1390 
  76   0.0000       1.779669        48.4273 
  77   0.0000       1.812683        49.3256 
  78   0.0000       1.850519        50.3552 
  79   0.0000       1.857533        50.5460 
  80   0.0000       1.876050        51.0499 
  81   0.0000       1.878294        51.1110 
  82   0.0000       1.905133        51.8413 
  83   0.0000       1.918218        52.1974 
  84   0.0000       1.923355        52.3371 
  85   0.0000       1.948354        53.0174 
  86   0.0000       1.948873        53.0315 
  87   0.0000       1.967623        53.5417 
  88   0.0000       1.983466        53.9729 
  89   0.0000       1.988513        54.1102 
  90   0.0000       2.011664        54.7402 
  91   0.0000       2.035434        55.3870 
  92   0.0000       2.045283        55.6550 
  93   0.0000       2.050132        55.7869 
  94   0.0000       2.099012        57.1170 
  95   0.0000       2.117363        57.6164 
  96   0.0000       2.159863        58.7729 
  97   0.0000       2.221703        60.4556 
  98   0.0000       2.244497        61.0759 
  99   0.0000       2.259726        61.4903 
 100   0.0000       2.387268        64.9609 
 101   0.0000       2.423011        65.9335 
 102   0.0000       2.505934        68.1899 
 103   0.0000       2.521216        68.6058 
 104   0.0000       2.531088        68.8744 
 105   0.0000       2.570378        69.9436 
 106   0.0000       2.577489        70.1370 
 107   0.0000       2.620126        71.2973 
 108   0.0000       2.698498        73.4299 
 109   0.0000       2.723282        74.1043 
 110   0.0000       2.741680        74.6049 
 111   0.0000       2.809193        76.4420 
 112   0.0000       2.893565        78.7379 
 113   0.0000       2.909081        79.1601 
 114   0.0000       2.960038        80.5467 
 115   0.0000       2.982340        81.1536 
 116   0.0000       3.021197        82.2109 
 117   0.0000       3.056862        83.1814 
 118   0.0000       3.104965        84.4904 
 119   0.0000       3.132119        85.2293 
 120   0.0000       3.164626        86.1139 
 121   0.0000       3.204430        87.1970 
 122   0.0000       3.229300        87.8737 
 123   0.0000       3.358529        91.3902 
 124   0.0000       3.518669        95.7478 

                    ********************************
                    * MULLIKEN POPULATION ANALYSIS *
                    ********************************

-----------------------
MULLIKEN ATOMIC CHARGES
-----------------------
   0 C :   -0.003841
   1 C :   -0.074632
   2 H :    0.024640
   3 H :    0.018382
   4 H :    0.018358
   5 C :   -0.064561
   6 H :    0.015701
   7 H :    0.015686
   8 C :    0.079606
   9 H :    0.000100
  10 H :    0.000135
  11 N :   -0.239211
  12 H :    0.013886
  13 H :    0.013868
  14 H :    0.090947
  15 H :    0.090938
Sum of atomic charges:   -0.0000000

--------------------------------
MULLIKEN REDUCED ORBITAL CHARGES
--------------------------------
  0 C s       :     2.979846  s :     2.979846
      pz      :     1.015800  p :     2.995441
      px      :     0.982414
      py      :     0.997228
      dz2     :     0.005279  d :     0.028555
      dxz     :     0.001792
      dyz     :     0.009260
      dx2y2   :     0.004335
      dxy     :     0.007889
  1 C s       :     3.044860  s :     3.044860
      pz      :     1.012508  p :     2.992925
      px      :     0.965383
      py      :     1.015034
      dz2     :     0.005608  d :     0.036847
      dxz     :     0.003756
      dyz     :     0.011124
      dx2y2   :     0.007036
      dxy     :     0.009324
  2 H s       :     0.951403  s :     0.951403
      pz      :     0.004970  p :     0.023957
      px      :     0.010947
      py      :     0.008041
  3 H s       :     0.957483  s :     0.957483
      pz      :     0.011645  p :     0.024134
      px      :     0.004331
      py      :     0.008158
  4 H s       :     0.957507  s :     0.957507
      pz      :     0.011629  p :     0.024135
      px      :     0.004330
      py      :     0.008176
  5 C s       :     3.032345  s :     3.032345
      pz      :     0.999065  p :     2.996932
      px      :     0.969478
      py      :     1.028390
      dz2     :     0.005389  d :     0.035284
      dxz     :     0.003677
      dyz     :     0.011237
      dx2y2   :     0.006006
      dxy     :     0.008976
  6 H s       :     0.961602  s :     0.961602
      pz      :     0.011379  p :     0.022697
      px      :     0.003660
      py      :     0.007659
  7 H s       :     0.961617  s :     0.961617
      pz      :     0.011384  p :     0.022698
      px      :     0.003660
      py      :     0.007654
  8 C s       :     3.000952  s :     3.000952
      pz      :     1.045926  p :     2.867129
      px      :     0.851804
      py      :     0.969399
      dz2     :     0.007539  d :     0.052313
      dxz     :     0.005016
      dyz     :     0.011558
      dx2y2   :     0.013547
      dxy     :     0.014653
  9 H s       :     0.977347  s :     0.977347
      pz      :     0.011347  p :     0.022553
      px      :     0.003590
      py      :     0.007616
 10 H s       :     0.977311  s :     0.977311
      pz      :     0.011353  p :     0.022553
      px      :     0.003591
      py      :     0.007610
 11 N s       :     3.396250  s :     3.396250
      pz      :     1.051758  p :     3.822890
      px      :     1.490201
      py      :     1.280931
      dz2     :     0.002025  d :     0.020072
      dxz     :     0.001579
      dyz     :     0.008683
      dx2y2   :     0.004796
      dxy     :     0.002988
 12 H s       :     0.964514  s :     0.964514
      pz      :     0.011358  p :     0.021601
      px      :     0.002828
      py      :     0.007414
 13 H s       :     0.964530  s :     0.964530
      pz      :     0.011356  p :     0.021602
      px      :     0.002828
      py      :     0.007418
 14 H s       :     0.863213  s :     0.863213
      pz      :     0.019544  p :     0.045841
      px      :     0.011575
      py      :     0.014721
 15 H s       :     0.863219  s :     0.863219
      pz      :     0.019529  p :     0.045843
      px      :     0.011575
      py      :     0.014739


                     *******************************
                     * LOEWDIN POPULATION ANALYSIS *
                     *******************************

----------------------
LOEWDIN ATOMIC CHARGES
----------------------
   0 C :   -0.058009
   1 C :   -0.042118
   2 H :    0.023646
   3 H :    0.021439
   4 H :    0.021430
   5 C :   -0.059663
   6 H :    0.019727
   7 H :    0.019720
   8 C :    0.011115
   9 H :    0.013720
  10 H :    0.013730
  11 N :   -0.116835
  12 H :    0.017171
  13 H :    0.017170
  14 H :    0.048884
  15 H :    0.048872

-------------------------------
LOEWDIN REDUCED ORBITAL CHARGES
-------------------------------
  0 C s       :     2.826374  s :     2.826374
      pz      :     1.067359  p :     3.158149
      px      :     1.035563
      py      :     1.055228
      dz2     :     0.014706  d :     0.073487
      dxz     :     0.003186
      dyz     :     0.023457
      dx2y2   :     0.010588
      dxy     :     0.021550
  1 C s       :     2.828753  s :     2.828753
      pz      :     1.062677  p :     3.123065
      px      :     1.015033
      py      :     1.045354
      dz2     :     0.015604  d :     0.090301
      dxz     :     0.006683
      dyz     :     0.027422
      dx2y2   :     0.016079
      dxy     :     0.024513
  2 H s       :     0.909788  s :     0.909788
      pz      :     0.012961  p :     0.066566
      px      :     0.031293
      py      :     0.022312
  3 H s       :     0.912302  s :     0.912302
      pz      :     0.030633  p :     0.066260
      px      :     0.013192
      py      :     0.022434
  4 H s       :     0.912308  s :     0.912308
      pz      :     0.030590  p :     0.066262
      px      :     0.013189
      py      :     0.022482
  5 C s       :     2.843479  s :     2.843479
      pz      :     1.057582  p :     3.127507
      px      :     1.022634
      py      :     1.047290
      dz2     :     0.015385  d :     0.088677
      dxz     :     0.006563
      dyz     :     0.027778
      dx2y2   :     0.014935
      dxy     :     0.024016
  6 H s       :     0.914076  s :     0.914076
      pz      :     0.030198  p :     0.066197
      px      :     0.013348
      py      :     0.022651
  7 H s       :     0.914083  s :     0.914083
      pz      :     0.030213  p :     0.066197
      px      :     0.013347
      py      :     0.022638
  8 C s       :     2.829413  s :     2.829413
      pz      :     1.074759  p :     3.039281
      px      :     0.953144
      py      :     1.011379
      dz2     :     0.019465  d :     0.120191
      dxz     :     0.007813
      dyz     :     0.027854
      dx2y2   :     0.030270
      dxy     :     0.034789
  9 H s       :     0.919879  s :     0.919879
      pz      :     0.029899  p :     0.066401
      px      :     0.013339
      py      :     0.023163
 10 H s       :     0.919867  s :     0.919867
      pz      :     0.029914  p :     0.066402
      px      :     0.013341
      py      :     0.023147
 11 N s       :     3.119410  s :     3.119410
      pz      :     1.140634  p :     3.953096
      px      :     1.476407
      py      :     1.336055
      dz2     :     0.006853  d :     0.044329
      dxz     :     0.002676
      dyz     :     0.020219
      dx2y2   :     0.008478
      dxy     :     0.006103
 12 H s       :     0.919095  s :     0.919095
      pz      :     0.030437  p :     0.063735
      px      :     0.010509
      py      :     0.022788
 13 H s       :     0.919094  s :     0.919094
      pz      :     0.030431  p :     0.063735
      px      :     0.010508
      py      :     0.022796
 14 H s       :     0.829071  s :     0.829071
      pz      :     0.046250  p :     0.122044
      px      :     0.034397
      py      :     0.041397
 15 H s       :     0.829075  s :     0.829075
      pz      :     0.046201  p :     0.122053
      px      :     0.034398
      py      :     0.041454


                      *****************************
                      * MAYER POPULATION ANALYSIS *
                      *****************************

  NA   - Mulliken gross atomic population
  ZA   - Total nuclear charge
  QA   - Mulliken gross atomic charge
  VA   - Mayer's total valence
  BVA  - Mayer's bonded valence
  FA   - Mayer's free valence

  ATOM       NA         ZA         QA         VA         BVA        FA
  0 C      6.0038     6.0000    -0.0038     4.0003     4.0003    -0.0000
  1 C      6.0746     6.0000    -0.0746     4.0770     4.0770    -0.0000
  2 H      0.9754     1.0000     0.0246     0.9871     0.9871    -0.0000
  3 H      0.9816     1.0000     0.0184     0.9913     0.9913    -0.0000
  4 H      0.9816     1.0000     0.0184     0.9914     0.9914    -0.0000
  5 C      6.0646     6.0000    -0.0646     3.9991     3.9991    -0.0000
  6 H      0.9843     1.0000     0.0157     0.9793     0.9793     0.0000
  7 H      0.9843     1.0000     0.0157     0.9793     0.9793     0.0000
  8 C      5.9204     6.0000     0.0796     4.0632     4.0632     0.0000
  9 H      0.9999     1.0000     0.0001     0.9895     0.9895    -0.0000
 10 H      0.9999     1.0000     0.0001     0.9895     0.9895     0.0000
 11 N      7.2392     7.0000    -0.2392     3.0840     3.0840    -0.0000
 12 H      0.9861     1.0000     0.0139     0.9853     0.9853    -0.0000
 13 H      0.9861     1.0000     0.0139     0.9854     0.9854     0.0000
 14 H      0.9091     1.0000     0.0909     1.0009     1.0009     0.0000
 15 H      0.9091     1.0000     0.0909     1.0009     1.0009     0.0000

  Mayer bond orders larger than 0.100000
B(  0-C ,  1-C ) :   1.0855 B(  0-C ,  2-H ) :   0.9727 B(  0-C ,  3-H ) :   0.9752 
B(  0-C ,  4-H ) :   0.9752 B(  1-C ,  5-C ) :   1.0521 B(  1-C ,  6-H ) :   0.9565 
B(  1-C ,  7-H ) :   0.9565 B(  5-C ,  8-C ) :   1.0476 B(  5-C ,  9-H ) :   0.9501 
B(  5-C , 10-H ) :   0.9501 B(  8-C , 11-N ) :   1.0909 B(  8-C , 12-H ) :   0.9596 
B(  8-C , 13-H ) :   0.9596 B( 11-N , 14-H ) :   0.9824 B( 11-N , 15-H ) :   0.9824 


-------
TIMINGS
-------

Total SCF time: 0 days 0 hours 0 min 24 sec 

Total time                  ....      24.533 sec
Sum of individual times     ....      24.243 sec  ( 98.8%)

Fock matrix formation       ....      23.185 sec  ( 94.5%)
  Split-RI-J                ....       1.088 sec  (  4.7% of F)
  Chain of spheres X        ....      17.586 sec  ( 75.9% of F)
  XC integration            ....       4.043 sec  ( 17.4% of F)
    Basis function eval.    ....       1.276 sec  ( 31.6% of XC)
    Density eval.           ....       0.646 sec  ( 16.0% of XC)
    XC-Functional eval.     ....       0.601 sec  ( 14.9% of XC)
    XC-Potential eval.      ....       0.762 sec  ( 18.8% of XC)
Diagonalization             ....       0.054 sec  (  0.2%)
Density matrix formation    ....       0.004 sec  (  0.0%)
Population analysis         ....       0.101 sec  (  0.4%)
Initial guess               ....       0.120 sec  (  0.5%)
Orbital Transformation      ....       0.000 sec  (  0.0%)
Orbital Orthonormalization  ....       0.000 sec  (  0.0%)
DIIS solution               ....       0.048 sec  (  0.2%)
SOSCF solution              ....       0.015 sec  (  0.1%)
Grid generation             ....       0.717 sec  (  2.9%)

Maximum memory used throughout the entire SCF-calculation: 49.7 MB


-------------------------------------------------------------------------------
                          DFT DISPERSION CORRECTION                            
                                                                               
                                 DFTD4 V2.5                                    
-------------------------------------------------------------------------------
The WB97X functional is recognized
Active option DFTDOPT                   ...         5   

Starting D4
-------------------------   ----------------
Dispersion correction           -0.001349147
-------------------------   ----------------


-------------------------   --------------------
FINAL SINGLE POINT ENERGY      -213.589405828214
-------------------------   --------------------



           ************************************************************
           *        Program running with 4 parallel MPI-processes     *
           *              working on a common directory               *
           ************************************************************
------------------------------------------------------------------------------
                         ORCA SCF GRADIENT CALCULATION
------------------------------------------------------------------------------

 ... reading COSX grid (gridx3)
Gradient of the Kohn-Sham DFT energy:
Kohn-Sham wavefunction type      ... RKS
Hartree-Fock exchange scaling    ...    0.158
Number of operators              ...    1
Number of atoms                  ...   16
Basis set dimensions             ...  125
Integral neglect threshold       ... 2.5e-11
Integral primitive cutoff        ... 2.5e-12
SHARK Integral package           ... ON

Nuc. rep. gradient       (SHARK) ... done (  0.0 sec)
HCore & Overlap gradient (SHARK) ... done (  0.0 sec)
RI-J gradient            (SHARK) ... done (  0.2 sec)
COSX-gradient                    ... done (  3.4 sec)
Exchange-correlation gradient    ... done
Dispersion correction            ... Starting D4
Starting D4
Starting D4
Starting D4


------------------- 
Dispersion Gradient 
------------------- 
   1  :   -0.000032442    0.000007465    0.000000001
   2  :   -0.000013232   -0.000011328    0.000000003
   3  :   -0.000005754    0.000001035   -0.000000001
   4  :   -0.000007543   -0.000000932    0.000001690
   5  :   -0.000007547   -0.000000936   -0.000001688
   6  :    0.000000987    0.000007673   -0.000000004
   7  :   -0.000005541    0.000002650    0.000002370
   8  :   -0.000005542    0.000002649   -0.000002372
   9  :    0.000007893   -0.000011434   -0.000000003
  10  :    0.000001091   -0.000004080   -0.000003064
  11  :    0.000001089   -0.000004077    0.000003065
  12  :    0.000038909    0.000001129    0.000000001
  13  :    0.000008206    0.000003206    0.000002541
  14  :    0.000008207    0.000003206   -0.000002542
  15  :    0.000005610    0.000001887    0.000000659
  16  :    0.000005609    0.000001887   -0.000000656

  |G| =    0.000060546

done

------------------
CARTESIAN GRADIENT
------------------

   1   C   :   -0.007836235    0.009496545    0.000008354
   2   C   :    0.001006250   -0.015640535    0.000007290
   3   H   :    0.008976798    0.003361160   -0.000004148
   4   H   :    0.001469133   -0.006018287    0.007114422
   5   H   :    0.001464737   -0.006031493   -0.007117742
   6   C   :   -0.002189308    0.019129750   -0.000010103
   7   H   :   -0.000347042    0.006123037    0.005042379
   8   H   :   -0.000349188    0.006120178   -0.005050314
   9   C   :   -0.002495523   -0.016125160    0.000005731
  10   H   :   -0.000464691   -0.005721553   -0.005131673
  11   H   :   -0.000462456   -0.005722941    0.005136581
  12   N   :    0.000300314    0.005580703   -0.000021748
  13   H   :    0.001583136    0.006054115    0.003583739
  14   H   :    0.001576706    0.006054703   -0.003584141
  15   H   :   -0.001039528   -0.003259311   -0.001182377
  16   H   :   -0.001044273   -0.003270628    0.001203085

Difference to translation invariance:
           :    0.0001488289    0.0001302839   -0.0000006659

Difference to rotation invariance:
           :   -0.0000045389    0.0000008371    0.0004504757

Norm of the cartesian gradient     ...    0.0413594268
RMS gradient                       ...    0.0059697191
MAX gradient                       ...    0.0191297496

-------
TIMINGS
-------

Total SCF gradient time            ...        4.931 sec

One electron gradient       ....       0.038 sec  (  0.8%)
RI-J Coulomb gradient       ....       0.218 sec  (  4.4%)
COSX gradient               ....       3.396 sec  ( 68.9%)
XC gradient                 ....       0.977 sec  ( 19.8%)

Maximum memory used throughout the entire SCFGRAD-calculation: 38.3 MB
------------------------------------------------------------------------------
                         ORCA GEOMETRY RELAXATION STEP
------------------------------------------------------------------------------

Reading the OPT-File                    .... done
Getting information on internals        .... done
Copying old internal coords+grads       .... done
Making the new internal coordinates     .... (new redundants).... done
Validating the new internal coordinates .... (new redundants).... done
Calculating the B-matrix                .... done
Calculating the G,G- and P matrices     .... done
Transforming gradient to internals      .... done
Projecting the internal gradient        .... done
Number of atoms                         ....  16
Number of internal coordinates          ....  75
Current Energy                          ....  -213.589405828 Eh
Current gradient norm                   ....     0.041359427 Eh/bohr
Maximum allowed component of the step   ....  0.300
Current trust radius                    ....  0.300
Evaluating the initial hessian          ....  (Almloef) done
Projecting the Hessian                  .... done
Forming the augmented Hessian           .... done
Diagonalizing the augmented Hessian     .... done
Last element of RFO vector              ....  0.995437822
Lowest eigenvalues of augmented Hessian:
 -0.002310399  0.010799494  0.011439000  0.011588140  0.016556996
Length of the computed step             ....  0.095849774
The final length of the internal step   ....  0.095849774
Converting the step to cartesian space:
 Initial RMS(Int)=    0.0110677786
Transforming coordinates:
 Iter   0:  RMS(Cart)=    0.0178576529 RMS(Int)=    0.0110476085
 Iter   1:  RMS(Cart)=    0.0000973940 RMS(Int)=    0.0000686618
 Iter   2:  RMS(Cart)=    0.0000009220 RMS(Int)=    0.0000006231
 Iter   3:  RMS(Cart)=    0.0000000100 RMS(Int)=    0.0000000060
done
Storing new coordinates                 .... done

                                .--------------------.
          ----------------------|Geometry convergence|-------------------------
          Item                value                   Tolerance       Converged
          ---------------------------------------------------------------------
          RMS gradient        0.0031293349            0.0001000000      NO
          MAX gradient        0.0093427553            0.0003000000      NO
          RMS step            0.0110677786            0.0020000000      NO
          MAX step            0.0255814731            0.0040000000      NO
          ........................................................
          Max(Bonds)      0.0135      Max(Angles)    1.00
          Max(Dihed)        1.25      Max(Improp)    0.00
          ---------------------------------------------------------------------

The optimization has not yet converged - more geometry cycles are needed


    ---------------------------------------------------------------------------
                         Redundant Internal Coordinates
                            (Angstroem and degrees)

        Definition                    Value    dE/dq     Step     New-Value
    ----------------------------------------------------------------------------
     1. B(C   1,C   0)                1.5244 -0.002915  0.0040    1.5284   
     2. B(H   2,C   0)                1.0873 -0.009241  0.0134    1.1006   
     3. B(H   3,C   0)                1.0879 -0.009332  0.0135    1.1014   
     4. B(H   4,C   0)                1.0879 -0.009343  0.0135    1.1014   
     5. B(C   5,C   1)                1.5262 -0.002089  0.0029    1.5291   
     6. B(H   6,C   1)                1.0924 -0.007686  0.0113    1.1037   
     7. B(H   7,C   1)                1.0924 -0.007690  0.0113    1.1037   
     8. B(C   8,C   5)                1.5345  0.001808 -0.0026    1.5320   
     9. B(H   9,C   5)                1.0940 -0.007523  0.0111    1.1052   
    10. B(H  10,C   5)                1.0940 -0.007527  0.0112    1.1052   
    11. B(N  11,C   8)                1.4551 -0.002063  0.0025    1.4575   
    12. B(H  12,C   8)                1.0940 -0.006437  0.0095    1.1035   
    13. B(H  13,C   8)                1.0940 -0.006439  0.0095    1.1035   
    14. B(H  14,N  11)                1.0147 -0.002923  0.0036    1.0183   
    15. B(H  15,N  11)                1.0146 -0.002949  0.0036    1.0183   
    16. A(H   3,C   0,H   4)          108.33  0.001409   -0.34    107.98   
    17. A(C   1,C   0,H   4)          110.54 -0.001043    0.18    110.71   
    18. A(C   1,C   0,H   2)          110.55 -0.003100    0.60    111.15   
    19. A(H   2,C   0,H   3)          108.41  0.001989   -0.33    108.08   
    20. A(H   2,C   0,H   4)          108.41  0.001989   -0.33    108.08   
    21. A(C   1,C   0,H   3)          110.54 -0.001042    0.18    110.71   
    22. A(C   0,C   1,C   5)          111.88 -0.003926    0.90    112.78   
    23. A(H   6,C   1,H   7)          107.59  0.000454   -0.73    106.86   
    24. A(C   5,C   1,H   7)          109.16  0.001087   -0.11    109.05   
    25. A(C   0,C   1,H   7)          109.47  0.000729   -0.00    109.47   
    26. A(C   5,C   1,H   6)          109.16  0.001092   -0.12    109.05   
    27. A(C   0,C   1,H   6)          109.47  0.000729   -0.00    109.47   
    28. A(C   8,C   5,H   9)          109.14  0.001460   -0.20    108.93   
    29. A(C   1,C   5,H   9)          109.35  0.000851   -0.00    109.34   
    30. A(C   1,C   5,C   8)          112.08 -0.004608    1.00    113.08   
    31. A(H   9,C   5,H  10)          107.69  0.000158   -0.64    107.05   
    32. A(C   8,C   5,H  10)          109.14  0.001459   -0.21    108.93   
    33. A(C   1,C   5,H  10)          109.35  0.000857   -0.01    109.34   
    34. A(H  12,C   8,H  13)          107.81  0.001196   -0.95    106.87   
    35. A(N  11,C   8,H  13)          107.48 -0.000551    0.37    107.85   
    36. A(C   5,C   8,H  13)          109.48  0.001243   -0.28    109.20   
    37. A(N  11,C   8,H  12)          107.48 -0.000554    0.37    107.85   
    38. A(C   5,C   8,H  12)          109.48  0.001245   -0.28    109.20   
    39. A(C   5,C   8,N  11)          114.87 -0.002426    0.68    115.55   
    40. A(H  14,N  11,H  15)          107.20  0.002341   -0.51    106.69   
    41. A(C   8,N  11,H  15)          109.57 -0.002195    0.34    109.91   
    42. A(C   8,N  11,H  14)          109.57 -0.002194    0.34    109.91   
    43. D(H   6,C   1,C   0,H   4)    178.93  0.000499   -0.35    178.58   
    44. D(C   5,C   1,C   0,H   3)     60.01  0.000209   -0.11     59.90   
    45. D(H   7,C   1,C   0,H   3)   -178.85 -0.000496    0.33   -178.52   
    46. D(H   6,C   1,C   0,H   2)     58.90  0.000704   -0.45     58.45   
    47. D(C   5,C   1,C   0,H   4)    -59.92 -0.000200    0.09    -59.83   
    48. D(H   6,C   1,C   0,H   3)    -61.14  0.000908   -0.55    -61.69   
    49. D(H   7,C   1,C   0,H   4)     61.22 -0.000905    0.53     61.75   
    50. D(C   5,C   1,C   0,H   2)   -179.96  0.000005   -0.01   -179.97   
    51. D(H   7,C   1,C   0,H   2)    -58.81 -0.000700    0.43    -58.38   
    52. D(H   9,C   5,C   1,H   6)   -179.84 -0.000303    0.11   -179.72   
    53. D(C   8,C   5,C   1,H   7)     58.67  0.000895   -0.50     58.17   
    54. D(C   8,C   5,C   1,H   6)    -58.68 -0.000896    0.51    -58.18   
    55. D(C   8,C   5,C   1,C   0)    179.99 -0.000002    0.00    180.00   
    56. D(H   9,C   5,C   1,H   7)    -62.48  0.001488   -0.90    -63.37   
    57. D(H  10,C   5,C   1,H   7)    179.83  0.000304   -0.11    179.72   
    58. D(H  10,C   5,C   1,H   6)     62.47 -0.001487    0.90     63.37   
    59. D(H  10,C   5,C   1,C   0)    -58.85 -0.000593    0.39    -58.45   
    60. D(H   9,C   5,C   1,C   0)     58.84  0.000591   -0.39     58.45   
    61. D(H  13,C   8,C   5,H   9)     62.31 -0.002385    1.23     63.55   
    62. D(H  13,C   8,C   5,C   1)    -58.96 -0.001453    0.73    -58.23   
    63. D(H  12,C   8,C   5,H  10)    -62.25  0.002388   -1.25    -63.51   
    64. D(H  12,C   8,C   5,H   9)   -179.70  0.000530   -0.24   -179.95   
    65. D(H  12,C   8,C   5,C   1)     59.02  0.001462   -0.75     58.27   
    66. D(N  11,C   8,C   5,H  10)     58.75  0.000930   -0.51     58.24   
    67. D(N  11,C   8,C   5,H   9)    -58.69 -0.000928    0.50    -58.20   
    68. D(H  13,C   8,C   5,H  10)    179.76 -0.000527    0.22    179.99   
    69. D(N  11,C   8,C   5,C   1)   -179.97  0.000004   -0.01   -179.98   
    70. D(H  15,N  11,C   8,C   5)    -58.64 -0.000134    0.10    -58.53   
    71. D(H  14,N  11,C   8,H  13)    -63.38  0.000557   -0.48    -63.87   
    72. D(H  14,N  11,C   8,H  12)   -179.20 -0.000278    0.25   -178.95   
    73. D(H  14,N  11,C   8,C   5)     58.71  0.000139   -0.12     58.59   
    74. D(H  15,N  11,C   8,H  13)    179.27  0.000284   -0.26    179.01   
    75. D(H  15,N  11,C   8,H  12)     63.46 -0.000552    0.47     63.93   
    ----------------------------------------------------------------------------

         *************************************************************
         *                GEOMETRY OPTIMIZATION CYCLE   2            *
         *************************************************************
---------------------------------
CARTESIAN COORDINATES (ANGSTROEM)
---------------------------------
  C     -2.565593    0.321011    0.000072
  C     -1.288108   -0.518041    0.000129
  H     -3.461057   -0.318965    0.000902
  H     -2.607650    0.966565   -0.891347
  H     -2.606890    0.967820    0.890616
  C     -0.019301    0.335405   -0.000197
  H     -1.279989   -1.175743   -0.886139
  H     -1.279791   -1.175336    0.886697
  C      1.265492   -0.498979   -0.000099
  H     -0.020005    0.992621    0.888327
  H     -0.020164    0.992202   -0.889032
  N      2.508840    0.261578    0.000089
  H      1.271201   -1.156374   -0.886395
  H      1.270983   -1.156453    0.886136
  H      2.544191    0.868096    0.817275
  H      2.543958    0.868908   -0.816509

----------------------------
CARTESIAN COORDINATES (A.U.)
----------------------------
  NO LB      ZA    FRAG     MASS         X           Y           Z
   0 C     6.0000    0    12.011   -4.848269    0.606623    0.000136
   1 C     6.0000    0    12.011   -2.434172   -0.978956    0.000243
   2 H     1.0000    0     1.008   -6.540449   -0.602756    0.001705
   3 H     1.0000    0     1.008   -4.927744    1.826544   -1.684401
   4 H     1.0000    0     1.008   -4.926308    1.828915    1.683021
   5 C     6.0000    0    12.011   -0.036474    0.633823   -0.000373
   6 H     1.0000    0     1.008   -2.418829   -2.221832   -1.674560
   7 H     1.0000    0     1.008   -2.418454   -2.221064    1.675614
   8 C     6.0000    0    12.011    2.391434   -0.942933   -0.000187
   9 H     1.0000    0     1.008   -0.037803    1.875782    1.678695
  10 H     1.0000    0     1.008   -0.038104    1.874990   -1.680027
  11 N     7.0000    0    14.007    4.741021    0.494310    0.000169
  12 H     1.0000    0     1.008    2.402222   -2.185230   -1.675044
  13 H     1.0000    0     1.008    2.401811   -2.185379    1.674554
  14 H     1.0000    0     1.008    4.807824    1.640463    1.544426
  15 H     1.0000    0     1.008    4.807384    1.641997   -1.542978

--------------------------------
INTERNAL COORDINATES (ANGSTROEM)
--------------------------------
 C      0   0   0     0.000000000000     0.00000000     0.00000000
 C      1   0   0     1.528390614264     0.00000000     0.00000000
 H      1   2   0     1.100647196268   111.15017515     0.00000000
 H      1   2   3     1.101424473965   110.71413795   239.86435014
 H      1   2   3     1.101424748024   110.71344882   120.13547392
 C      2   1   3     1.529130747983   112.77686695   180.03300178
 H      2   1   3     1.103679249906   109.46701936    58.44573475
 H      2   1   3     1.103679671160   109.46748012   301.61964442
 C      6   2   1     1.531956400744   113.07287118   179.99824279
 H      6   2   1     1.105173945376   109.34173210    58.45187508
 H      6   2   1     1.105174419334   109.34245415   301.54643664
 N      9   6   2     1.457518617802   115.54494683   180.02130054
 H      9   6   2     1.103504266541   109.19323293    58.27645040
 H      9   6   2     1.103500839600   109.19186737   301.76500362
 H     12   9   6     1.018285978862   109.90892277    58.59217251
 H     12   9   6     1.018290419226   109.90964101   301.46600046

---------------------------
INTERNAL COORDINATES (A.U.)
---------------------------
 C      0   0   0     0.000000000000     0.00000000     0.00000000
 C      1   0   0     2.888239686614     0.00000000     0.00000000
 H      1   2   0     2.079921771015   111.15017515     0.00000000
 H      1   2   3     2.081390612991   110.71413795   239.86435014
 H      1   2   3     2.081391130888   110.71344882   120.13547392
 C      2   1   3     2.889638336646   112.77686695   180.03300178
 H      2   1   3     2.085651522014   109.46701936    58.44573475
 H      2   1   3     2.085652318068   109.46748012   301.61964442
 C      6   2   1     2.894978046513   113.07287118   179.99824279
 H      6   2   1     2.088476087106   109.34173210    58.45187508
 H      6   2   1     2.088476982756   109.34245415   301.54643664
 N      9   6   2     2.754311022738   115.54494683   180.02130054
 H      9   6   2     2.085320851376   109.19323293    58.27645040
 H      9   6   2     2.085314375396   109.19186737   301.76500362
 H     12   9   6     1.924281626062   109.90892277    58.59217251
 H     12   9   6     1.924290017133   109.90964101   301.46600046



           ************************************************************
           *        Program running with 4 parallel MPI-processes     *
           *              working on a common directory               *
           ************************************************************
------------------------------------------------------------------------------
                   ___                                                        
                  /   \      - P O W E R E D   B Y -                         
                 /     \                                                     
                 |  |  |   _    _      __       _____    __    __             
                 |  |  |  | |  | |    /  \     |  _  \  |  |  /  |          
                  \  \/   | |  | |   /    \    | | | |  |  | /  /          
                 / \  \   | |__| |  /  /\  \   | |_| |  |  |/  /          
                |  |  |   |  __  | /  /__\  \  |    /   |      \           
                |  |  |   | |  | | |   __   |  |    \   |  |\   \          
                \     /   | |  | | |  |  |  |  | |\  \  |  | \   \       
                 \___/    |_|  |_| |__|  |__|  |_| \__\ |__|  \__/        
                                                                              
[...]
     37      -0.068581   0.296520  -0.236574  -0.004234  -0.303794  -0.217681
     38       0.056148  -0.250017   0.201059   0.000291   0.257372   0.186752
     39       0.319797   0.012755  -0.040651  -0.007047  -0.040585  -0.054408
     40      -0.068566   0.296613  -0.236645   0.005417  -0.303874  -0.217751
     41      -0.056141   0.249954  -0.201013   0.001291  -0.257307  -0.186706
     42       0.045899   0.008564  -0.005343   0.002288  -0.005340  -0.011609
     43       0.049718   0.000854   0.000779   0.000681   0.002082  -0.001299
     44      -0.036751  -0.003249   0.000180  -0.000529  -0.000965   0.000827
     45       0.045820   0.008549  -0.005323  -0.002274  -0.005317  -0.011587
     46       0.049674   0.000848   0.000790  -0.000692   0.002092  -0.001290
     47       0.036729   0.003248  -0.000176  -0.000535   0.000967  -0.000823
                 36         37         38         39         40         41    
      0      -0.000389  -0.002149   0.006995  -0.022092   0.032251  -0.000000
      1      -0.000290   0.001756  -0.002180   0.015055  -0.031313   0.000000
      2       0.000000  -0.000000   0.000000  -0.000001   0.000003   0.002360
      3       0.000182   0.001661   0.000221   0.000451  -0.002215  -0.000001
      4       0.000292   0.005284  -0.049170   0.037029   0.033434  -0.000003
      5       0.000000  -0.000001   0.000006  -0.000004  -0.000003  -0.029071
      6      -0.001405   0.021719  -0.086679   0.239684  -0.330660   0.000003
      7       0.001154   0.019312  -0.066401   0.179040  -0.240862   0.000002
      8       0.000000  -0.000006   0.000022  -0.000061   0.000083  -0.000459
      9       0.001055  -0.001070  -0.001021   0.009295  -0.016026  -0.001861
     10      -0.001311  -0.019259   0.047786  -0.180092   0.300120   0.012063
     11      -0.000853   0.027590  -0.065928   0.251005  -0.420870  -0.015620
     12       0.001055  -0.001074  -0.001011   0.009257  -0.015962   0.001859
     13      -0.001311  -0.019273   0.047816  -0.180220   0.300344  -0.012070
     14       0.000854  -0.027581   0.065903  -0.250930   0.420758  -0.015612
     15       0.005480   0.000027   0.001584   0.000285  -0.000378   0.000003
     16      -0.001524  -0.069654   0.000036   0.008148   0.000332   0.000018
     17      -0.000000   0.000018  -0.000002  -0.000005  -0.000001   0.084190
     18      -0.001940  -0.000846  -0.004043  -0.000345   0.003073  -0.003286
     19       0.001852  -0.028909   0.289060  -0.218989  -0.192018   0.135114
     20      -0.000490  -0.039645   0.400669  -0.303662  -0.263769   0.176513
     21      -0.001942  -0.000845  -0.004054  -0.000336   0.003081   0.003291
     22       0.001851  -0.028905   0.288940  -0.218895  -0.191933  -0.135083
     23       0.000489   0.039662  -0.400734   0.303707   0.263803   0.176574
     24      -0.034015  -0.002265  -0.000692  -0.000711  -0.000480  -0.000000
     25       0.015427   0.006019   0.049025   0.045888   0.020443   0.000002
     26       0.000003  -0.000001   0.000001   0.000002   0.000001  -0.027638
     27       0.000178   0.000333  -0.000569  -0.000584   0.001621   0.000033
     28      -0.013193   0.407737  -0.000655  -0.050325  -0.004300  -0.382803
     29       0.008201   0.568950  -0.000643  -0.069613  -0.006660  -0.504816
     30       0.000180   0.000292  -0.000569  -0.000579   0.001621  -0.000070
     31      -0.013192   0.407659  -0.000671  -0.050345  -0.004313   0.382590
     32      -0.008197  -0.569158   0.000664   0.069678   0.006679  -0.504808
     33       0.048805   0.000401   0.000067   0.000220   0.000313  -0.000000
     34       0.061733   0.000232  -0.000676  -0.000875  -0.000450  -0.000000
     35      -0.000005  -0.000000  -0.000000  -0.000000  -0.000000   0.000294
     36       0.073051   0.001583   0.000473   0.003337   0.001576   0.000351
     37       0.010799  -0.035158  -0.289209  -0.270561  -0.118983   0.128206
     38       0.002383  -0.047735  -0.396538  -0.369934  -0.162461   0.167493
     39       0.073037   0.001585   0.000493   0.003356   0.001584  -0.000343
     40       0.010793  -0.035152  -0.289048  -0.270402  -0.118914  -0.128226
     41      -0.002387   0.047751   0.396526   0.369912   0.162453   0.167609
     42      -0.239450   0.002608  -0.000269  -0.001602  -0.000963  -0.001103
     43      -0.510495   0.001545   0.004525   0.004232   0.002151  -0.003029
     44       0.415387   0.001554   0.003802   0.003477   0.001691  -0.003263
     45      -0.239528   0.002609  -0.000269  -0.001602  -0.000964   0.001102
     46      -0.510469   0.001546   0.004525   0.004232   0.002151   0.003031
     47      -0.415351  -0.001556  -0.003803  -0.003477  -0.001691  -0.003262
                 42         43         44         45         46         47    
      0      -0.000001  -0.000001   0.000017  -0.055355  -0.000002   0.000000
      1      -0.000002  -0.000002   0.000033  -0.075292   0.000027   0.000000
      2      -0.015459  -0.012383   0.091440   0.000037   0.000000   0.000009
      3       0.000001   0.000001   0.000000   0.000081   0.000057  -0.000000
      4       0.000009   0.000005   0.000004  -0.004615  -0.000014  -0.000000
      5       0.076370   0.042008   0.019882   0.000005  -0.000000   0.000107
      6      -0.000004  -0.000004  -0.000124   0.696442   0.000242   0.000000
      7      -0.000003  -0.000003  -0.000086   0.495143  -0.000009   0.000000
      8      -0.004211  -0.003306   0.013427  -0.000169  -0.000000   0.000029
      9       0.002320   0.000909  -0.025911  -0.020833  -0.000034  -0.000005
     10      -0.069718  -0.054028   0.409256   0.202642  -0.000076  -0.000002
     11       0.094410   0.073874  -0.552175  -0.295942   0.000082  -0.000109
     12      -0.002305  -0.000898   0.025831  -0.020779  -0.000034   0.000005
     13       0.069752   0.054055  -0.409570   0.202650  -0.000076   0.000002
     14       0.094361   0.073838  -0.552055   0.295669  -0.000081  -0.000109
     15       0.000000   0.000001   0.000000   0.000228   0.000338   0.000000
     16       0.000002   0.000007   0.000001  -0.000003   0.000615  -0.000000
     17       0.010115   0.040282   0.004417   0.000001  -0.000000   0.000278
     18       0.003646  -0.001703   0.002928  -0.001028   0.000341   0.000257
     19      -0.345053  -0.190655  -0.087100   0.023779   0.000138  -0.000166
     20      -0.455070  -0.250807  -0.116037   0.030538   0.000156  -0.000151
     21      -0.003660   0.001696  -0.002930  -0.001030   0.000341  -0.000257
     22       0.344941   0.190595   0.087058   0.023810   0.000137   0.000166
     23      -0.455181  -0.250870  -0.116045  -0.030597  -0.000156  -0.000151
     24      -0.000001   0.000002   0.000000   0.000127   0.002864   0.000000
     25      -0.000002   0.000004   0.000000  -0.000321  -0.001583  -0.000000
     26      -0.052213   0.074002   0.001609   0.000000  -0.000000  -0.002153
     27      -0.003328   0.001099  -0.002606   0.001497  -0.001879  -0.001303
     28      -0.044766  -0.177296  -0.020906   0.001768  -0.000116  -0.000090
     29      -0.059849  -0.235983  -0.026978   0.002292  -0.001119  -0.001086
     30       0.003324  -0.001116   0.002603   0.001498  -0.001879   0.001303
     31       0.044740   0.177215   0.020896   0.001777  -0.000116   0.000090
     32      -0.059848  -0.236004  -0.026980  -0.002304   0.001120  -0.001086
     33      -0.000000   0.000000   0.000000  -0.000053  -0.008167  -0.000009
     34      -0.000000  -0.000000  -0.000000   0.000040  -0.057059  -0.000002
     35       0.000979  -0.001786  -0.000071  -0.000000   0.000004  -0.080750
     36      -0.001221   0.007074   0.001170  -0.000521  -0.002008   0.000415
     37       0.233301  -0.330670  -0.008073   0.002086   0.003497   0.005277
     38       0.308992  -0.437247  -0.010284   0.002610   0.007242   0.009717
     39       0.001237  -0.007097  -0.001170  -0.000521  -0.002007  -0.000415
     40      -0.233280   0.330626   0.008070   0.002089   0.003495  -0.005276
     41       0.309125  -0.437413  -0.010286  -0.002615  -0.007241   0.009721
     42       0.002259  -0.005677  -0.000361   0.000206   0.040854   0.029219
     43      -0.004070   0.004135  -0.000132  -0.000143   0.398654   0.422666
     44      -0.005249   0.006985   0.000067  -0.000010   0.581039   0.563180
     45      -0.002259   0.005677   0.000361   0.000206   0.040739  -0.029098
     46       0.004069  -0.004133   0.000132  -0.000143   0.398727  -0.422639
     47      -0.005248   0.006983   0.000067   0.000010  -0.581099   0.563099


-----------
IR SPECTRUM
-----------

 Mode   freq       eps      Int      T**2         TX        TY        TZ
       cm**-1   L/(mol*cm) km/mol    a.u.
----------------------------------------------------------------------------
  6:    126.67   0.000483    2.44  0.001191  (-0.000004 -0.000001 -0.034508)
  7:    147.78   0.000165    0.83  0.000348  (-0.000003  0.000001 -0.018668)
  8:    188.41   0.000451    2.28  0.000748  ( 0.022658  0.015307 -0.000013)
  9:    284.59   0.000153    0.77  0.000168  ( 0.000007  0.000005  0.012954)
 10:    302.31   0.009352   47.26  0.009654  (-0.000008 -0.000002 -0.098254)
 11:    402.08   0.000088    0.44  0.000068  ( 0.005158  0.006450 -0.000000)
 12:    439.19   0.001293    6.53  0.000919  (-0.026840 -0.014076  0.000001)
 13:    750.43   0.000715    3.62  0.000298  (-0.000003 -0.000003 -0.017249)
 14:    796.77   0.000094    0.47  0.000037  (-0.000003  0.000001  0.006061)
 15:    853.74   0.035312  178.45  0.012908  (-0.113026  0.011521  0.000008)
 16:    928.63   0.000001    0.01  0.000000  ( 0.000047  0.000002  0.000652)
 17:    932.18   0.004664   23.57  0.001561  (-0.039492 -0.001254  0.000003)
 18:   1045.76   0.002225   11.24  0.000664  (-0.022170  0.013128 -0.000006)
 19:   1052.34   0.000113    0.57  0.000034  (-0.000029  0.000014  0.005793)
 20:   1097.96   0.000493    2.49  0.000140  (-0.011830  0.000542  0.000001)
 21:   1135.78   0.003758   18.99  0.001033  (-0.031817  0.004506 -0.000000)
 22:   1165.97   0.001663    8.40  0.000445  ( 0.012031  0.017330  0.000001)
 23:   1227.78   0.000007    0.03  0.000002  (-0.000002  0.000001 -0.001314)
 24:   1284.12   0.000796    4.02  0.000193  (-0.013900 -0.000436 -0.000000)
 25:   1305.21   0.000000    0.00  0.000000  (-0.000007 -0.000001  0.000313)
 26:   1327.55   0.000087    0.44  0.000020  (-0.000001  0.000001  0.004512)
 27:   1381.09   0.000903    4.56  0.000204  (-0.014285 -0.000068 -0.000005)
 28:   1389.75   0.000202    1.02  0.000045  ( 0.000011 -0.000002 -0.006742)
 29:   1415.40   0.000670    3.38  0.000148  ( 0.007197  0.009790 -0.000003)
 30:   1435.95   0.002273   11.49  0.000494  (-0.022200 -0.001028 -0.000001)
 31:   1470.53   0.000028    0.14  0.000006  ( 0.002397 -0.000344 -0.000003)
 32:   1473.32   0.000074    0.37  0.000016  (-0.003548 -0.001725 -0.000010)
 33:   1481.40   0.001635    8.26  0.000344  (-0.000009 -0.000010 -0.018558)
 34:   1484.13   0.000190    0.96  0.000040  ( 0.006148  0.001456 -0.000035)
 35:   1493.11   0.001057    5.34  0.000221  (-0.000592 -0.014848  0.000008)
 36:   1651.15   0.004334   21.90  0.000819  (-0.006778 -0.027805  0.000001)
 37:   3036.62   0.004456   22.52  0.000458  (-0.004034 -0.021017  0.000005)
 38:   3054.21   0.000190    0.96  0.000019  ( 0.004382  0.000508  0.000002)
 39:   3057.82   0.018136   91.65  0.001851  (-0.009505  0.041958 -0.000003)
 40:   3059.95   0.003265   16.50  0.000333  ( 0.015721  0.009267 -0.000001)
 41:   3084.01   0.000834    4.21  0.000084  ( 0.000000  0.000006  0.009186)
 42:   3106.54   0.000235    1.19  0.000024  (-0.000001  0.000002  0.004855)
 43:   3117.39   0.013844   69.96  0.001386  ( 0.000002  0.000004  0.037227)
 44:   3153.18   0.007459   37.70  0.000738  ( 0.000004  0.000009  0.027170)
 45:   3162.25   0.005067   25.61  0.000500  (-0.014055 -0.017392  0.000009)
 46:   3553.75   0.000025    0.12  0.000002  (-0.001205  0.000845  0.000001)
 47:   3636.12   0.000221    1.12  0.000019  ( 0.000001 -0.000000  0.004360)

* The epsilon (eps) is given for a Dirac delta lineshape.
** The dipole moment derivative (T) already includes vibrational overlap.

The first frequency considered to be a vibration is 6
The total number of vibrations considered is 42


--------------------------
THERMOCHEMISTRY AT 298.15K
--------------------------

Temperature         ... 298.15 K
Pressure            ... 1.00 atm
Total Mass          ... 73.14 AMU

Throughout the following assumptions are being made:
  (1) The electronic state is orbitally nondegenerate
  (2) There are no thermally accessible electronically excited states
  (3) Hindered rotations indicated by low frequency modes are not
      treated as such but are treated as vibrations and this may
      cause some error
  (4) All equations used are the standard statistical mechanics
      equations for an ideal gas
  (5) All vibrations are strictly harmonic

freq.     126.67  E(vib)   ...       0.43 
freq.     147.78  E(vib)   ...       0.41 
freq.     188.41  E(vib)   ...       0.36 
freq.     284.59  E(vib)   ...       0.28 
freq.     302.31  E(vib)   ...       0.26 
freq.     402.08  E(vib)   ...       0.19 
freq.     439.19  E(vib)   ...       0.17 
freq.     750.43  E(vib)   ...       0.06 
freq.     796.77  E(vib)   ...       0.05 
freq.     853.74  E(vib)   ...       0.04 
freq.     928.63  E(vib)   ...       0.03 
freq.     932.18  E(vib)   ...       0.03 
freq.    1045.76  E(vib)   ...       0.02 
freq.    1052.34  E(vib)   ...       0.02 
freq.    1097.96  E(vib)   ...       0.02 
freq.    1135.78  E(vib)   ...       0.01 
freq.    1165.97  E(vib)   ...       0.01 
freq.    1227.78  E(vib)   ...       0.01 
freq.    1284.12  E(vib)   ...       0.01 
freq.    1305.21  E(vib)   ...       0.01 
freq.    1327.55  E(vib)   ...       0.01 
freq.    1381.09  E(vib)   ...       0.01 
freq.    1389.75  E(vib)   ...       0.00 
freq.    1415.40  E(vib)   ...       0.00 
freq.    1435.95  E(vib)   ...       0.00 
freq.    1470.53  E(vib)   ...       0.00 
freq.    1473.32  E(vib)   ...       0.00 
freq.    1481.40  E(vib)   ...       0.00 
freq.    1484.13  E(vib)   ...       0.00 
freq.    1493.11  E(vib)   ...       0.00 
freq.    1651.15  E(vib)   ...       0.00 
freq.    3036.62  E(vib)   ...       0.00 
freq.    3054.21  E(vib)   ...       0.00 
freq.    3057.82  E(vib)   ...       0.00 
freq.    3059.95  E(vib)   ...       0.00 
freq.    3084.01  E(vib)   ...       0.00 
freq.    3106.54  E(vib)   ...       0.00 
freq.    3117.39  E(vib)   ...       0.00 
freq.    3153.18  E(vib)   ...       0.00 
freq.    3162.25  E(vib)   ...       0.00 
freq.    3553.75  E(vib)   ...       0.00 
freq.    3636.12  E(vib)   ...       0.00 

------------
INNER ENERGY
------------

The inner energy is: U= E(el) + E(ZPE) + E(vib) + E(rot) + E(trans)
    E(el)   - is the total energy from the electronic structure calculation
              = E(kin-el) + E(nuc-el) + E(el-el) + E(nuc-nuc)
    E(ZPE)  - the the zero temperature vibrational energy from the frequency calculation
    E(vib)  - the the finite temperature correction to E(ZPE) due to population
              of excited vibrational states
    E(rot)  - is the rotational thermal energy
    E(trans)- is the translational thermal energy

Summary of contributions to the inner energy U:
Electronic energy                ...   -213.59089392 Eh
Zero point energy                ...      0.15148206 Eh      95.06 kcal/mol
Thermal vibrational correction   ...      0.00391593 Eh       2.46 kcal/mol
Thermal rotational correction    ...      0.00141627 Eh       0.89 kcal/mol
Thermal translational correction ...      0.00141627 Eh       0.89 kcal/mol
-----------------------------------------------------------------------
Total thermal energy                   -213.43266338 Eh


Summary of corrections to the electronic energy:
(perhaps to be used in another calculation)
Total thermal correction                  0.00674847 Eh       4.23 kcal/mol
Non-thermal (ZPE) correction              0.15148206 Eh      95.06 kcal/mol
-----------------------------------------------------------------------
Total correction                          0.15823054 Eh      99.29 kcal/mol


--------
ENTHALPY
--------

The enthalpy is H = U + kB*T
                kB is Boltzmann's constant
Total free energy                 ...   -213.43266338 Eh 
Thermal Enthalpy correction       ...      0.00094421 Eh       0.59 kcal/mol
-----------------------------------------------------------------------
Total Enthalpy                    ...   -213.43171917 Eh


Note: Only C1 symmetry has been detected, increase convergence thresholds 
      if your molecule has a higher symmetry. Symmetry factor of 1.0 is   
      used for the rotational entropy correction. 
 

Note: Rotational entropy computed according to Herzberg 
Infrared and Raman Spectra, Chapter V,1, Van Nostrand Reinhold, 1945 
Point Group:  C1, Symmetry Number:   1  
Rotational constants in cm-1:     0.595532     0.064970     0.061857 

Vibrational entropy computed according to the QRRHO of S. Grimme
Chem.Eur.J. 2012 18 9955


-------
ENTROPY
-------

The entropy contributions are T*S = T*(S(el)+S(vib)+S(rot)+S(trans))
     S(el)   - electronic entropy
     S(vib)  - vibrational entropy
     S(rot)  - rotational entropy
     S(trans)- translational entropy
The entropies will be listed as multiplied by the temperature to get
units of energy

Electronic entropy                ...      0.00000000 Eh      0.00 kcal/mol
Vibrational entropy               ...      0.00662956 Eh      4.16 kcal/mol
Rotational entropy                ...      0.01235990 Eh      7.76 kcal/mol
Translational entropy             ...      0.01842822 Eh     11.56 kcal/mol
-----------------------------------------------------------------------
Final entropy term                ...      0.03741768 Eh     23.48 kcal/mol

In case the symmetry of your molecule has not been determined correctly
or in case you have a reason to use a different symmetry number we print 
out the resulting rotational entropy values for sn=1,12 :
 --------------------------------------------------------
|  sn= 1 | S(rot)=       0.01235990 Eh      7.76 kcal/mol|
|  sn= 2 | S(rot)=       0.01170544 Eh      7.35 kcal/mol|
|  sn= 3 | S(rot)=       0.01132261 Eh      7.11 kcal/mol|
|  sn= 4 | S(rot)=       0.01105099 Eh      6.93 kcal/mol|
|  sn= 5 | S(rot)=       0.01084030 Eh      6.80 kcal/mol|
|  sn= 6 | S(rot)=       0.01066816 Eh      6.69 kcal/mol|
|  sn= 7 | S(rot)=       0.01052261 Eh      6.60 kcal/mol|
|  sn= 8 | S(rot)=       0.01039653 Eh      6.52 kcal/mol|
|  sn= 9 | S(rot)=       0.01028532 Eh      6.45 kcal/mol|
|  sn=10 | S(rot)=       0.01018584 Eh      6.39 kcal/mol|
|  sn=11 | S(rot)=       0.01009585 Eh      6.34 kcal/mol|
|  sn=12 | S(rot)=       0.01001370 Eh      6.28 kcal/mol|
 --------------------------------------------------------


-------------------
GIBBS FREE ENERGY
-------------------

The Gibbs free energy is G = H - T*S

Total enthalpy                    ...   -213.43171917 Eh 
Total entropy correction          ...     -0.03741768 Eh    -23.48 kcal/mol
-----------------------------------------------------------------------
Final Gibbs free energy         ...   -213.46913685 Eh

For completeness - the Gibbs free energy minus the electronic energy
G-E(el)                           ...      0.12175707 Eh     76.40 kcal/mol


Timings for individual modules:

Sum of individual times         ...      175.592 sec (=   2.927 min)
GTO integral calculation        ...        2.379 sec (=   0.040 min)   1.4 %
SCF iterations                  ...       82.723 sec (=   1.379 min)  47.1 %
SCF Gradient evaluation         ...       21.000 sec (=   0.350 min)  12.0 %
Geometry relaxation             ...        0.179 sec (=   0.003 min)   0.1 %
Analytical frequency calculation...       69.312 sec (=   1.155 min)  39.5 %
                             ****ORCA TERMINATED NORMALLY****
TOTAL RUN TIME: 0 days 0 hours 2 minutes 57 seconds 255 msec
