
                                 *****************
                                 * O   R   C   A *
                                 *****************

                                            #,                                       
                                            ###                                      
                                            ####                                     
                                            #####                                    
                                            ######                                   
                                           ########,                                 
                                     ,,################,,,,,                         
                               ,,#################################,,                 
                          ,,##########################################,,             
                       ,#########################################, ''#####,          
                    ,#############################################,,   '####,        
                  ,##################################################,,,,####,       
                ,###########''''           ''''###############################       
              ,#####''   ,,,,##########,,,,          '''####'''          '####       
            ,##' ,,,,###########################,,,                        '##       
           ' ,,###''''                  '''############,,,                           
         ,,##''                                '''############,,,,        ,,,,,,###''
      ,#''                                            '''#######################'''  
     '                                                          ''''####''''         
             ,#######,   #######,   ,#######,      ##                                
            ,#'     '#,  ##    ##  ,#'     '#,    #''#        ######   ,####,        
            ##       ##  ##   ,#'  ##            #'  '#       #        #'  '#        
            ##       ##  #######   ##           ,######,      #####,   #    #        
            '#,     ,#'  ##    ##  '#,     ,#' ,#      #,         ##   #,  ,#        
             '#######'   ##     ##  '#######'  #'      '#     #####' # '####'        



                  #######################################################
                  #                        -***-                        #
                  #          Department of theory and spectroscopy      #
                  #    Directorship and core code : Frank Neese         #
                  #        Max Planck Institute fuer Kohlenforschung    #
                  #                Kaiser Wilhelm Platz 1               #
                  #                 D-45470 Muelheim/Ruhr               #
                  #                      Germany                        #
                  #                                                     #
                  #                  All rights reserved                #
                  #                        -***-                        #
                  #######################################################


                         Program Version 5.0.4 -  RELEASE  -


 With contributions from (in alphabetic order):
   Daniel Aravena         : Magnetic Suceptibility
   Michael Atanasov       : Ab Initio Ligand Field Theory (pilot matlab implementation)
   Alexander A. Auer      : GIAO ZORA, VPT2 properties, NMR spectrum
   Ute Becker             : Parallelization
   Giovanni Bistoni       : ED, misc. LED, open-shell LED, HFLD
   Martin Brehm           : Molecular dynamics
   Dmytro Bykov           : SCF Hessian
   Vijay G. Chilkuri      : MRCI spin determinant printing, contributions to CSF-ICE
   Dipayan Datta          : RHF DLPNO-CCSD density
   Achintya Kumar Dutta   : EOM-CC, STEOM-CC
   Dmitry Ganyushin       : Spin-Orbit,Spin-Spin,Magnetic field MRCI
   Miquel Garcia          : C-PCM and meta-GGA Hessian, CC/C-PCM, Gaussian charge scheme
   Yang Guo               : DLPNO-NEVPT2, F12-NEVPT2, CIM, IAO-localization
   Andreas Hansen         : Spin unrestricted coupled pair/coupled cluster methods
   Benjamin Helmich-Paris : MC-RPA, TRAH-SCF, COSX integrals
   Lee Huntington         : MR-EOM, pCC
   Robert Izsak           : Overlap fitted RIJCOSX, COSX-SCS-MP3, EOM
   Marcus Kettner         : VPT2
   Christian Kollmar      : KDIIS, OOCD, Brueckner-CCSD(T), CCSD density, CASPT2, CASPT2-K
   Simone Kossmann        : Meta GGA functionals, TD-DFT gradient, OOMP2, MP2 Hessian
   Martin Krupicka        : Initial AUTO-CI
   Lucas Lang             : DCDCAS
   Marvin Lechner         : AUTO-CI (C++ implementation), FIC-MRCC
   Dagmar Lenk            : GEPOL surface, SMD
   Dimitrios Liakos       : Extrapolation schemes; Compound Job, initial MDCI parallelization
   Dimitrios Manganas     : Further ROCIS development; embedding schemes
   Dimitrios Pantazis     : SARC Basis sets
   Anastasios Papadopoulos: AUTO-CI, single reference methods and gradients
   Taras Petrenko         : DFT Hessian,TD-DFT gradient, ASA, ECA, R-Raman, ABS, FL, XAS/XES, NRVS
   Peter Pinski           : DLPNO-MP2, DLPNO-MP2 Gradient
   Christoph Reimann      : Effective Core Potentials
   Marius Retegan         : Local ZFS, SOC
   Christoph Riplinger    : Optimizer, TS searches, QM/MM, DLPNO-CCSD(T), (RO)-DLPNO pert. Triples
   Tobias Risthaus        : Range-separated hybrids, TD-DFT gradient, RPA, STAB
   Michael Roemelt        : Original ROCIS implementation
   Masaaki Saitow         : Open-shell DLPNO-CCSD energy and density
   Barbara Sandhoefer     : DKH picture change effects
   Avijit Sen             : IP-ROCIS
   Kantharuban Sivalingam : CASSCF convergence, NEVPT2, FIC-MRCI
   Bernardo de Souza      : ESD, SOC TD-DFT
   Georgi Stoychev        : AutoAux, RI-MP2 NMR, DLPNO-MP2 response
   Willem Van den Heuvel  : Paramagnetic NMR
   Boris Wezisla          : Elementary symmetry handling
   Frank Wennmohs         : Technical directorship


 We gratefully acknowledge several colleagues who have allowed us to
 interface, adapt or use parts of their codes:
   Stefan Grimme, W. Hujo, H. Kruse, P. Pracht,  : VdW corrections, initial TS optimization,
                  C. Bannwarth, S. Ehlert          DFT functionals, gCP, sTDA/sTD-DF
   Ed Valeev, F. Pavosevic, A. Kumar             : LibInt (2-el integral package), F12 methods
   Garnet Chan, S. Sharma, J. Yang, R. Olivares  : DMRG
   Ulf Ekstrom                                   : XCFun DFT Library
   Mihaly Kallay                                 : mrcc  (arbitrary order and MRCC methods)
   Jiri Pittner, Ondrej Demel                    : Mk-CCSD
   Frank Weinhold                                : gennbo (NPA and NBO analysis)
   Christopher J. Cramer and Donald G. Truhlar   : smd solvation model
   Lars Goerigk                                  : TD-DFT with DH, B97 family of functionals
   V. Asgeirsson, H. Jonsson                     : NEB implementation
   FAccTs GmbH                                   : IRC, NEB, NEB-TS, DLPNO-Multilevel, CI-OPT
                                                   MM, QMMM, 2- and 3-layer-ONIOM, Crystal-QMMM,
                                                   LR-CPCM, SF, NACMEs, symmetry and pop. for TD-DFT,
                                                   nearIR, NL-DFT gradient (VV10), updates on ESD,
                                                   ML-optimized integration grids
   S Lehtola, MJT Oliveira, MAL Marques          : LibXC Library
   Liviu Ungur et al                             : ANISO software


 Your calculation uses the libint2 library for the computation of 2-el integrals
 For citations please refer to: http://libint.valeyev.net

 Your ORCA version has been built with support for libXC version: 5.1.0
 For citations please refer to: https://tddft.org/programs/libxc/

 This ORCA versions uses:
   CBLAS   interface :  Fast vector & matrix operations
   LAPACKE interface :  Fast linear algebra routines
   SCALAPACK package :  Parallel linear algebra routines
   Shared memory     :  Shared parallel matrices
   BLAS/LAPACK       :  OpenBLAS 0.3.15  USE64BITINT DYNAMIC_ARCH NO_AFFINITY SkylakeX SINGLE_THREADED
        Core in use  :  SkylakeX
   Copyright (c) 2011-2014, The OpenBLAS Project




***************************************
The coordinates will be read from file: butylamine_deprot_aq_2.xyz
***************************************


Your calculation utilizes the atom-pairwise dispersion correction
based on tight binding partial charges (D4)
Cite in your paper:
E.Caldeweyher, C.Bannwarth, S.Grimme, J.Chem.Phys., (2017), 147, 034112.
E.Caldeweyher, S.Ehlert, A.Hansen, H.Neugebauer, S.Grimme, J.Chem.Phys., (2018), in progress.
   

XCFun DFT library Copyright 2009-2010 Ulf Ekstrom and contributors.
See http://admol.org/xcfun for more information.
This is free software; see the source code for copying conditions.
There is ABSOLUTELY NO WARRANTY; not even for MERCHANTABILITY or FITNESS FOR A PARTICULAR PURPOSE.
For details see the documentation.
Scientific users of this library should cite U. Ekstrom, L. Visscher, R. Bast, A. J. Thorvaldsen and K. Ruud;
J.Chem.Theor.Comp. 2010, DOI: 10.1021/ct100117s
XCFun Version 0.99 

================================================================================

----- Orbital basis set information -----
Your calculation utilizes the basis: def2-SVP
   F. Weigend and R. Ahlrichs, Phys. Chem. Chem. Phys. 7, 3297 (2005).

----- AuxJ basis set information -----
Your calculation utilizes the auxiliary basis: def2/J
   F. Weigend, Phys. Chem. Chem. Phys. 8, 1057 (2006).

================================================================================
                                        WARNINGS
                       Please study these warnings very carefully!
================================================================================


WARNING: Geometry Optimization
  ===> : Switching off AutoStart
         For restart on a previous wavefunction, please use MOREAD

INFO   : the flag for use of the SHARK integral package has been found!

================================================================================
                                       INPUT FILE
================================================================================
NAME = butylamine_deprot_aq_2.inp
|  1> # ORCA 5.0.4 - /users/bwb16179/postgrad/2024_06/pKa_Reviewer_Comments/CREST_Confs/butylamine/butylamine_deprot_aq_2.inp # write input file
|  2> # Basic Mode
|  3> #
|  4> ! Opt Freq wB97X Def2-SVP D4 SlowConv TightSCF Defgrid2 Def2/J RIJCOSX 
|  5> 
|  6> %PAL NPROCS 4 END
|  7> 
|  8> %maxcore 4500
|  9> 
| 10> %geom
| 11> Maxiter 150
| 12> END
| 13> 
| 14> * xyzfile 0 1 butylamine_deprot_aq_2.xyz
| 15> 
| 16>                          ****END OF INPUT****
================================================================================

                       *****************************
                       * Geometry Optimization Run *
                       *****************************

Geometry optimization settings:
Update method            Update   .... BFGS
Choice of coordinates    CoordSys .... Z-matrix Internals
Initial Hessian          InHess   .... Almoef's Model

Convergence Tolerances:
Energy Change            TolE     ....  5.0000e-06 Eh
Max. Gradient            TolMAXG  ....  3.0000e-04 Eh/bohr
RMS Gradient             TolRMSG  ....  1.0000e-04 Eh/bohr
Max. Displacement        TolMAXD  ....  4.0000e-03 bohr
RMS Displacement         TolRMSD  ....  2.0000e-03 bohr
Strict Convergence                ....  False
------------------------------------------------------------------------------
                        ORCA OPTIMIZATION COORDINATE SETUP
------------------------------------------------------------------------------

The optimization will be done in new redundant internal coordinates
Making redundant internal coordinates   ...  (new redundants) done
Evaluating the initial hessian          ...  (Almloef) done
Evaluating the coordinates              ...  done
Calculating the B-matrix                .... done
Calculating the G-matrix                .... done
Diagonalizing the G-matrix              .... done
Small eigenvalue found = 2.939e-02
The first mode is                       ....   33
The number of degrees of freedom        ....   42

    -----------------------------------------------------------------
                    Redundant Internal Coordinates


    -----------------------------------------------------------------
         Definition                    Initial Value    Approx d2E/dq
    -----------------------------------------------------------------
      1. B(C   1,C   0)                  1.5246         0.381095   
      2. B(H   2,C   0)                  1.0875         0.363367   
      3. B(H   3,C   0)                  1.0879         0.362855   
      4. B(H   4,C   0)                  1.0867         0.364558   
      5. B(C   5,C   1)                  1.5286         0.375475   
      6. B(H   6,C   1)                  1.0928         0.356400   
      7. B(H   7,C   1)                  1.0924         0.356923   
      8. B(C   8,C   5)                  1.5350         0.366777   
      9. B(H   9,C   5)                  1.0939         0.355025   
     10. B(H  10,C   5)                  1.0946         0.354060   
     11. B(N  11,C   8)                  1.4556         0.439698   
     12. B(H  12,C   8)                  1.0941         0.354720   
     13. B(H  13,C   8)                  1.0924         0.356984   
     14. B(H  14,N  11)                  1.0147         0.425319   
     15. B(H  15,N  11)                  1.0148         0.425076   
     16. A(H   3,C   0,H   4)          108.5318         0.291752   
     17. A(C   1,C   0,H   4)          111.0409         0.326042   
     18. A(C   1,C   0,H   2)          110.1866         0.325866   
     19. A(H   2,C   0,H   3)          108.3487         0.291602   
     20. A(H   2,C   0,H   4)          108.1704         0.291816   
     21. A(C   1,C   0,H   3)          110.4808         0.325791   
     22. A(C   0,C   1,C   5)          113.2233         0.364908   
     23. A(H   6,C   1,H   7)          107.6117         0.289965   
     24. A(C   5,C   1,H   7)          109.1261         0.324117   
     25. A(C   0,C   1,H   7)          109.4314         0.324909   
     26. A(C   5,C   1,H   6)          108.4751         0.324039   
     27. A(C   0,C   1,H   6)          108.8178         0.324831   
     28. A(C   8,C   5,H   9)          109.2042         0.322591   
     29. A(C   1,C   5,H   9)          109.3566         0.323834   
     30. A(C   1,C   5,C   8)          113.3744         0.362527   
     31. A(H   9,C   5,H  10)          107.6490         0.289423   
     32. A(C   8,C   5,H  10)          108.3767         0.322447   
     33. A(C   1,C   5,H  10)          108.7193         0.323689   
     34. A(H  12,C   8,H  13)          108.0571         0.289758   
     35. A(N  11,C   8,H  13)          107.1010         0.330676   
     36. A(C   5,C   8,H  13)          110.0697         0.322882   
     37. A(N  11,C   8,H  12)          107.4585         0.330328   
     38. A(C   5,C   8,H  12)          109.4061         0.322546   
     39. A(C   5,C   8,N  11)          114.5265         0.370147   
     40. A(H  14,N  11,H  15)          107.1573         0.301566   
     41. A(C   8,N  11,H  15)          109.6073         0.337487   
     42. A(C   8,N  11,H  14)          109.5354         0.337519   
     43. D(H   6,C   1,C   0,H   4)    174.7408         0.011572   
     44. D(C   5,C   1,C   0,H   3)     55.9168         0.011572   
     45. D(H   7,C   1,C   0,H   3)    177.8843         0.011572   
     46. D(H   6,C   1,C   0,H   2)     54.9112         0.011572   
     47. D(C   5,C   1,C   0,H   4)    -64.5604         0.011572   
     48. D(H   6,C   1,C   0,H   3)    -64.7820         0.011572   
     49. D(H   7,C   1,C   0,H   4)     57.4071         0.011572   
     50. D(C   5,C   1,C   0,H   2)    175.6101         0.011572   
     51. D(H   7,C   1,C   0,H   2)    -62.4225         0.011572   
     52. D(H   9,C   5,C   1,H   6)     66.7547         0.011251   
     53. D(C   8,C   5,C   1,H   7)    -54.1592         0.011251   
     54. D(C   8,C   5,C   1,H   6)   -171.1284         0.011251   
     55. D(C   8,C   5,C   1,C   0)     67.9788         0.011251   
     56. D(H   9,C   5,C   1,H   7)   -176.2762         0.011251   
     57. D(H  10,C   5,C   1,H   7)     66.4438         0.011251   
     58. D(H  10,C   5,C   1,H   6)    -50.5253         0.011251   
     59. D(H  10,C   5,C   1,C   0)   -171.4182         0.011251   
     60. D(H   9,C   5,C   1,C   0)    -54.1382         0.011251   
     61. D(H  13,C   8,C   5,H   9)     58.1484         0.010766   
     62. D(H  13,C   8,C   5,C   1)    -64.0533         0.010766   
     63. D(H  12,C   8,C   5,H  10)    -66.2570         0.010766   
     64. D(H  12,C   8,C   5,H   9)    176.7414         0.010766   
     65. D(H  12,C   8,C   5,C   1)     54.5397         0.010766   
     66. D(N  11,C   8,C   5,H  10)     54.4315         0.010766   
     67. D(N  11,C   8,C   5,H   9)    -62.5700         0.010766   
     68. D(H  13,C   8,C   5,H  10)    175.1500         0.010766   
     69. D(N  11,C   8,C   5,C   1)    175.2282         0.010766   
     70. D(H  15,N  11,C   8,C   5)    -58.3384         0.016486   
     71. D(H  14,N  11,C   8,H  13)    -63.3823         0.016486   
     72. D(H  14,N  11,C   8,H  12)   -179.2773         0.016486   
     73. D(H  14,N  11,C   8,C   5)     58.9633         0.016486   
     74. D(H  15,N  11,C   8,H  13)    179.3159         0.016486   
     75. D(H  15,N  11,C   8,H  12)     63.4210         0.016486   
    -----------------------------------------------------------------

Number of atoms                         .... 16
Number of degrees of freedom            .... 75

         *************************************************************
         *                GEOMETRY OPTIMIZATION CYCLE   1            *
         *************************************************************
---------------------------------
CARTESIAN COORDINATES (ANGSTROEM)
---------------------------------
  C     -2.125555    0.324813    0.602002
  C     -1.387393   -0.487211   -0.456328
  H     -3.145319   -0.037540    0.709380
  H     -2.163142    1.374537    0.318722
  H     -1.634146    0.245130    1.567909
  C      0.021897    0.032338   -0.740314
  H     -1.960926   -0.458596   -1.386100
  H     -1.326815   -1.530247   -0.137313
  C      0.990002   -0.159255    0.435393
  H     -0.028014    1.094763   -0.995850
  H      0.423967   -0.499296   -1.608568
  N      2.365285    0.226355    0.154705
  H      0.998327   -1.212481    0.731524
  H      0.659563    0.431022    1.293091
  H      2.395543    1.204757   -0.112512
  H      2.715445   -0.309948   -0.632490

----------------------------
CARTESIAN COORDINATES (A.U.)
----------------------------
  NO LB      ZA    FRAG     MASS         X           Y           Z
   0 C     6.0000    0    12.011   -4.016717    0.613807    1.137618
   1 C     6.0000    0    12.011   -2.621792   -0.920696   -0.862335
   2 H     1.0000    0     1.008   -5.943791   -0.070941    1.340535
   3 H     1.0000    0     1.008   -4.087745    2.597499    0.602297
   4 H     1.0000    0     1.008   -3.088089    0.463228    2.962919
   5 C     6.0000    0    12.011    0.041380    0.061109   -1.398990
   6 H     1.0000    0     1.008   -3.705614   -0.866621   -2.619350
   7 H     1.0000    0     1.008   -2.507318   -2.891748   -0.259483
   8 C     6.0000    0    12.011    1.870833   -0.300948    0.822774
   9 H     1.0000    0     1.008   -0.052939    2.068801   -1.881885
  10 H     1.0000    0     1.008    0.801182   -0.943533   -3.039752
  11 N     7.0000    0    14.007    4.469740    0.427748    0.292351
  12 H     1.0000    0     1.008    1.886565   -2.291257    1.382381
  13 H     1.0000    0     1.008    1.246394    0.814514    2.443588
  14 H     1.0000    0     1.008    4.526919    2.276661   -0.212617
  15 H     1.0000    0     1.008    5.131446   -0.585716   -1.195233

--------------------------------
INTERNAL COORDINATES (ANGSTROEM)
--------------------------------
 C      0   0   0     0.000000000000     0.00000000     0.00000000
 C      1   0   0     1.524574921605     0.00000000     0.00000000
 H      1   2   0     1.087541814661   110.18661074     0.00000000
 H      1   2   3     1.087925472410   110.48083390   240.30670663
 H      1   2   3     1.086650475838   111.04089045   119.82957668
 C      2   1   3     1.528619207114   113.22326557   175.61006689
 H      2   1   3     1.092811118844   108.81781622    54.91124859
 H      2   1   3     1.092412258129   109.43136453   297.57754657
 C      6   2   1     1.534998699302   113.37436378    67.97879407
 H      6   2   1     1.093863253940   109.35656084   305.86184572
 H      6   2   1     1.094604885089   108.71931340   188.58184985
 N      9   6   2     1.455637814488   114.52649854   175.22822797
 H      9   6   2     1.094097316495   109.40610526    54.53968648
 H      9   6   2     1.092365489121   110.06971159   295.94669628
 H     12   9   6     1.014688206664   109.53540144    58.96332752
 H     12   9   6     1.014844116460   109.60730296   301.66161092

---------------------------
INTERNAL COORDINATES (A.U.)
---------------------------
 C      0   0   0     0.000000000000     0.00000000     0.00000000
 C      1   0   0     2.881029072478     0.00000000     0.00000000
 H      1   2   0     2.055156188898   110.18661074     0.00000000
 H      1   2   3     2.055881196972   110.48083390   240.30670663
 H      1   2   3     2.053471802628   111.04089045   119.82957668
 C      2   1   3     2.888671664498   113.22326557   175.61006689
 H      2   1   3     2.065113730718   108.81781622    54.91124859
 H      2   1   3     2.064359993202   109.43136453   297.57754657
 C      6   2   1     2.900727157606   113.37436378    67.97879407
 H      6   2   1     2.067101977906   109.35656084   305.86184572
 H      6   2   1     2.068503457671   108.71931340   188.58184985
 N      9   6   2     2.750756819561   114.52649854   175.22822797
 H      9   6   2     2.067544292034   109.40610526    54.53968648
 H      9   6   2     2.064271612586   110.06971159   295.94669628
 H     12   9   6     1.917482821915   109.53540144    58.96332752
 H     12   9   6     1.917777448731   109.60730296   301.66161092

---------------------
BASIS SET INFORMATION
---------------------
There are 3 groups of distinct atoms

 Group   1 Type C   : 7s4p1d contracted to 3s2p1d pattern {511/31/1}
 Group   2 Type H   : 4s1p contracted to 2s1p pattern {31/1}
 Group   3 Type N   : 7s4p1d contracted to 3s2p1d pattern {511/31/1}

Atom   0C    basis set group =>   1
Atom   1C    basis set group =>   1
Atom   2H    basis set group =>   2
Atom   3H    basis set group =>   2
Atom   4H    basis set group =>   2
Atom   5C    basis set group =>   1
Atom   6H    basis set group =>   2
Atom   7H    basis set group =>   2
Atom   8C    basis set group =>   1
Atom   9H    basis set group =>   2
Atom  10H    basis set group =>   2
Atom  11N    basis set group =>   3
Atom  12H    basis set group =>   2
Atom  13H    basis set group =>   2
Atom  14H    basis set group =>   2
Atom  15H    basis set group =>   2
---------------------------------
AUXILIARY/J BASIS SET INFORMATION
---------------------------------
There are 3 groups of distinct atoms

 Group   1 Type C   : 12s5p4d2f1g contracted to 6s4p3d1f1g pattern {711111/2111/211/2/1}
 Group   2 Type H   : 5s2p1d contracted to 3s1p1d pattern {311/2/1}
 Group   3 Type N   : 12s5p4d2f1g contracted to 6s4p3d1f1g pattern {711111/2111/211/2/1}

Atom   0C    basis set group =>   1
Atom   1C    basis set group =>   1
Atom   2H    basis set group =>   2
Atom   3H    basis set group =>   2
Atom   4H    basis set group =>   2
Atom   5C    basis set group =>   1
Atom   6H    basis set group =>   2
Atom   7H    basis set group =>   2
Atom   8C    basis set group =>   1
Atom   9H    basis set group =>   2
Atom  10H    basis set group =>   2
Atom  11N    basis set group =>   3
Atom  12H    basis set group =>   2
Atom  13H    basis set group =>   2
Atom  14H    basis set group =>   2
Atom  15H    basis set group =>   2


           ************************************************************
           *        Program running with 4 parallel MPI-processes     *
           *              working on a common directory               *
           ************************************************************
------------------------------------------------------------------------------
                           ORCA GTO INTEGRAL CALCULATION
                           -- RI-GTO INTEGRALS CHOSEN --
------------------------------------------------------------------------------
------------------------------------------------------------------------------
                   ___                                                        
                  /   \      - P O W E R E D   B Y -                         
                 /     \                                                     
                 |  |  |   _    _      __       _____    __    __             
                 |  |  |  | |  | |    /  \     |  _  \  |  |  /  |          
                  \  \/   | |  | |   /    \    | | | |  |  | /  /          
                 / \  \   | |__| |  /  /\  \   | |_| |  |  |/  /          
                |  |  |   |  __  | /  /__\  \  |    /   |      \           
                |  |  |   | |  | | |   __   |  |    \   |  |\   \          
                \     /   | |  | | |  |  |  |  | |\  \  |  | \   \       
                 \___/    |_|  |_| |__|  |__|  |_| \__\ |__|  \__/        
                                                                              
                      - O R C A' S   B I G   F R I E N D -                    
                                      &                                       
                       - I N T E G R A L  F E E D E R -                       
                                                                              
 v1 FN, 2020, v2 2021                                                         
------------------------------------------------------------------------------


Reading SHARK input file butylamine_deprot_aq_2.SHARKINP.tmp ... ok
----------------------
SHARK INTEGRAL PACKAGE
----------------------

Number of atoms                             ...     16
Number of basis functions                   ...    125
Number of shells                            ...     63
Maximum angular momentum                    ...      2
Integral batch strategy                     ... SHARK/LIBINT Hybrid
RI-J (if used) integral strategy            ... SPLIT-RIJ (Revised 2003 algorithm where possible)
Printlevel                                  ...      1
Contraction scheme used                     ... SEGMENTED contraction
Coulomb Range Separation                    ... NOT USED
Exchange Range Separation                   ... Long Range
   Mu parameter                             ...  0.300000
   Scaling (regular/separated)              ...  0.157706  0.842294
Finite Nucleus Model                        ... NOT USED
Auxiliary Coulomb fitting basis             ... AVAILABLE
   # of basis functions in Aux-J            ...    366
   # of shells in Aux-J                     ...    130
   Maximum angular momentum in Aux-J        ...      4
Auxiliary J/K fitting basis                 ... NOT available
Auxiliary Correlation fitting basis         ... NOT available
Auxiliary 'external' fitting basis          ... NOT available
Integral threshold                          ...     2.500000e-11
Primitive cut-off                           ...     2.500000e-12
Primitive pair pre-selection threshold      ...     2.500000e-12

Calculating pre-screening integrals         ... done (  0.0 sec) Dimension = 63
Organizing shell pair data                  ... done (  0.0 sec)
Shell pair information
Total number of shell pairs                 ...      2016
Shell pairs after pre-screening             ...      1956
Total number of primitive shell pairs       ...      6768
Primitive shell pairs kept                  ...      5205
          la=0 lb=0:    686 shell pairs
          la=1 lb=0:    753 shell pairs
          la=1 lb=1:    221 shell pairs
          la=2 lb=0:    180 shell pairs
          la=2 lb=1:    101 shell pairs
          la=2 lb=2:     15 shell pairs

Calculating one electron integrals          ... done (  0.0 sec)
Calculating RI/J V-Matrix + Cholesky decomp.... done (  0.2 sec)
Calculating Nuclear repulsion               ... done (  0.0 sec) ENN=    188.808142610455 Eh

SHARK setup successfully completed in   0.6 seconds

Maximum memory used throughout the entire GTOINT-calculation: 10.6 MB


           ************************************************************
           *        Program running with 4 parallel MPI-processes     *
           *              working on a common directory               *
           ************************************************************
-------------------------------------------------------------------------------
                                 ORCA SCF
-------------------------------------------------------------------------------

------------
SCF SETTINGS
------------
Hamiltonian:
 Density Functional     Method          .... DFT(GTOs)
 Exchange Functional    Exchange        .... WB97X
 Correlation Functional Correlation     .... WB97X
 Gradients option       PostSCFGGA      .... off
 Hybrid DFT is turned on
   Fraction HF Exchange ScalHFX         ....  0.157706
   Scaling of DF-GGA-X  ScalDFX         ....  0.000000
   Scaling of DF-GGA-C  ScalDFC         ....  1.000000
   Scaling of DF-LDA-C  ScalLDAC        ....  1.000000
   Perturbative correction              ....  0.000000
   Density functional embedding theory  .... OFF
 Long-range corrected/Screened/Range-Separated Hybrid DFT is turned on
   Amount of maximum screened exact exchange              ....  0.842294
   Range separation parameter mu (erf(mu*r12)/r12)        ....  0.300000
 RI-approximation to the Coulomb term is turned on
   Number of AuxJ basis functions       .... 366
   RIJ-COSX (HFX calculated with COS-X)).... on


General Settings:
 Integral files         IntName         .... butylamine_deprot_aq_2
 Hartree-Fock type      HFTyp           .... RHF
 Total Charge           Charge          ....    0
 Multiplicity           Mult            ....    1
 Number of Electrons    NEL             ....   42
 Basis Dimension        Dim             ....  125
 Nuclear Repulsion      ENuc            ....    188.8081426105 Eh

Convergence Acceleration:
 DIIS                   CNVDIIS         .... on
   Start iteration      DIISMaxIt       ....     0
   Startup error        DIISStart       ....  0.200000
   # of expansion vecs  DIISMaxEq       ....     5
   Bias factor          DIISBfac        ....   1.050
   Max. coefficient     DIISMaxC        ....  10.000
 Trust-Rad. Augm. Hess. CNVTRAH         .... auto
   Auto Start mean grad. ratio tolernc. ....  1.125000
   Auto Start start iteration           ....    20
   Auto Start num. interpolation iter.  ....    10
   Max. Number of Micro iterations      ....    16
   Max. Number of Macro iterations      .... Maxiter - #DIIS iter
   Number of Davidson start vectors     ....     2
   Converg. threshold I  (grad. norm)   ....   1.000e-05
   Converg. threshold II (energy diff.) ....   1.000e-08
   Grad. Scal. Fac. for Micro threshold ....   0.100
   Minimum threshold for Micro iter.    ....   0.010
   NR start threshold (gradient norm)   ....   0.001
   Initial trust radius                 ....   0.400
   Minimum AH scaling param. (alpha)    ....   1.000
   Maximum AH scaling param. (alpha)    .... 1000.000
   Orbital update algorithm             .... Taylor
   White noise on init. David. guess    .... on
   Maximum white noise                  ....   0.010
   Quad. conv. algorithm                .... NR
 SOSCF                  CNVSOSCF        .... on
   Start iteration      SOSCFMaxIt      ....   150
   Startup grad/error   SOSCFStart      ....  0.001000
 Level Shifting         CNVShift        .... on
   Level shift para.    LevelShift      ....    0.2500
   Turn off err/grad.   ShiftErr        ....    0.0000
 Zerner damping         CNVZerner       .... off
 Static damping         CNVDamp         .... on
   Fraction old density DampFac         ....    0.8500
   Max. Damping (<1)    DampMax         ....    0.9800
   Min. Damping (>=0)   DampMin         ....    0.0000
   Turn off err/grad.   DampErr         ....    0.0300
 Fernandez-Rico         CNVRico         .... off

SCF Procedure:
 Maximum # iterations   MaxIter         ....   125
 SCF integral mode      SCFMode         .... Direct
   Integral package                     .... SHARK and LIBINT hybrid scheme
 Reset frequency        DirectResetFreq ....    20
 Integral Threshold     Thresh          ....  2.500e-11 Eh
 Primitive CutOff       TCut            ....  2.500e-12 Eh

Convergence Tolerance:
 Convergence Check Mode ConvCheckMode   .... Total+1el-Energy
 Convergence forced     ConvForced      .... 0
 Energy Change          TolE            ....  1.000e-08 Eh
 1-El. energy change                    ....  1.000e-05 Eh
 Orbital Gradient       TolG            ....  1.000e-05
 Orbital Rotation angle TolX            ....  1.000e-05
 DIIS Error             TolErr          ....  5.000e-07


Diagonalization of the overlap matrix:
Smallest eigenvalue                        ... 1.946e-03
Time for diagonalization                   ...    0.004 sec
Threshold for overlap eigenvalues          ... 1.000e-08
Number of eigenvalues below threshold      ... 0
Time for construction of square roots      ...    0.002 sec
Total time needed                          ...    0.006 sec

Time for model grid setup =    0.275 sec

------------------------------
INITIAL GUESS: MODEL POTENTIAL
------------------------------
Loading Hartree-Fock densities                     ... done
Calculating cut-offs                               ... done
Initializing the effective Hamiltonian             ... done
Setting up the integral package (SHARK)            ... done
Starting the Coulomb interaction                   ... done (   0.1 sec)
Reading the grid                                   ... done
Mapping shells                                     ... done
Starting the XC term evaluation                    ... done (   0.0 sec)
  promolecular density results
     # of electrons  =     41.994429624
     EX              =    -30.244367125
     EC              =     -1.356048533
     EX+EC           =    -31.600415658
Transforming the Hamiltonian                       ... done (   0.0 sec)
Diagonalizing the Hamiltonian                      ... done (   0.0 sec)
Back transforming the eigenvectors                 ... done (   0.0 sec)
Now organizing SCF variables                       ... done
                      ------------------
                      INITIAL GUESS DONE (   0.4 sec)
                      ------------------
-------------------
DFT GRID GENERATION
-------------------

General Integration Accuracy     IntAcc      ... 4.388
Radial Grid Type                 RadialGrid  ... OptM3 with GC (2021)
Angular Grid (max. ang.)         AngularGrid ... 4 (Lebedev-302)
Angular grid pruning method      GridPruning ... 4 (adaptive)
Weight generation scheme         WeightScheme... Becke
Basis function cutoff            BFCut       ... 1.0000e-11
Integration weight cutoff        WCut        ... 1.0000e-14
Angular grids for H and He will be reduced by one unit
Partially contracted basis set               ... off
Rotationally invariant grid construction     ... off

Total number of grid points                  ...    65465
Total number of batches                      ...     1030
Average number of points per batch           ...       63
Average number of grid points per atom       ...     4092
Time for grid setup =    0.341 sec

--------------------
COSX GRID GENERATION
--------------------

GRIDX 1
-------
General Integration Accuracy     IntAcc      ... 3.816
Radial Grid Type                 RadialGrid  ... OptM3 with GC (2021)
Angular Grid (max. ang.)         AngularGrid ... 1 (Lebedev-50)
Angular grid pruning method      GridPruning ... 4 (adaptive)
Weight generation scheme         WeightScheme... Becke
Basis function cutoff            BFCut       ... 1.0000e-11
Integration weight cutoff        WCut        ... 1.0000e-14
Angular grids for H and He will be reduced by one unit
Partially contracted basis set               ... on
Rotationally invariant grid construction     ... off

Total number of grid points                  ...     8455
Total number of batches                      ...      144
Average number of points per batch           ...       58
Average number of grid points per atom       ...      528
UseSFitting                                  ... on

GRIDX 2
-------
General Integration Accuracy     IntAcc      ... 4.020
Radial Grid Type                 RadialGrid  ... OptM3 with GC (2021)
Angular Grid (max. ang.)         AngularGrid ... 2 (Lebedev-110)
Angular grid pruning method      GridPruning ... 4 (adaptive)
Weight generation scheme         WeightScheme... Becke
Basis function cutoff            BFCut       ... 1.0000e-11
Integration weight cutoff        WCut        ... 1.0000e-14
Angular grids for H and He will be reduced by one unit
Partially contracted basis set               ... on
Rotationally invariant grid construction     ... off

Total number of grid points                  ...    17417
Total number of batches                      ...      280
Average number of points per batch           ...       62
Average number of grid points per atom       ...     1089
UseSFitting                                  ... on

GRIDX 3
-------
General Integration Accuracy     IntAcc      ... 4.338
Radial Grid Type                 RadialGrid  ... OptM3 with GC (2021)
Angular Grid (max. ang.)         AngularGrid ... 3 (Lebedev-194)
Angular grid pruning method      GridPruning ... 4 (adaptive)
Weight generation scheme         WeightScheme... Becke
Basis function cutoff            BFCut       ... 1.0000e-11
Integration weight cutoff        WCut        ... 1.0000e-14
Angular grids for H and He will be reduced by one unit
Partially contracted basis set               ... on
Rotationally invariant grid construction     ... off

Total number of grid points                  ...    38007
Total number of batches                      ...      602
Average number of points per batch           ...       63
Average number of grid points per atom       ...     2375
UseSFitting                                  ... on

Time for X-Grid setup             =    0.308 sec

--------------
SCF ITERATIONS
--------------
ITER       Energy         Delta-E        Max-DP      RMS-DP      [F,P]     Damp
               ***  Starting incremental Fock matrix formation  ***
  0   -213.3817056943   0.000000000000 0.03898883  0.00116414  0.2345567 0.8500
  1   -213.4266761826  -0.044970488261 0.03353698  0.00111461  0.1815498 0.8500
                               ***Turning on DIIS***
  2   -213.4598102763  -0.033134093714 0.02500342  0.00089616  0.1327104 0.8500
  3   -213.4837473879  -0.023937111618 0.01430444  0.00058461  0.0955361 0.8500
  4   -213.5018918387  -0.018144450775 0.00950249  0.00041689  0.0750698 0.8500
  5   -213.5160194040  -0.014127565321 0.00710497  0.00032887  0.0621058 0.8500
  6   -213.5274446788  -0.011425274767 0.00567220  0.00027270  0.0523664 0.8500
  7   -213.5368750574  -0.009430378615 0.00476854  0.00023469  0.0444281 0.8500
  8   -213.5447535041  -0.007878446681 0.00405533  0.00020221  0.0374864 0.8500
  9   -213.5513502847  -0.006596780593 0.00343278  0.00017295  0.0315415 0.8500
 10   -213.5568807844  -0.005530499678 0.01925317  0.00098156  0.0265494 0.0000
 11   -213.5869547614  -0.030073977035 0.00111079  0.00003911  0.0015438 0.0000
                      *** Initiating the SOSCF procedure ***
                           *** Shutting down DIIS ***
                      *** Re-Reading the Fockian *** 
                      *** Removing any level shift *** 
ITER      Energy       Delta-E        Grad      Rot      Max-DP    RMS-DP
 12   -213.58696421  -0.0000094479  0.000090  0.000090  0.000266  0.000014
               *** Restarting incremental Fock matrix formation ***
 13   -213.58697993  -0.0000157241  0.000054  0.000086  0.000336  0.000013
 14   -213.58698007  -0.0000001370  0.000017  0.000054  0.000116  0.000005
 15   -213.58698008  -0.0000000134  0.000010  0.000006  0.000032  0.000001
 16   -213.58698009  -0.0000000037  0.000003  0.000003  0.000011  0.000000
                  ***Gradient check signals convergence***
              ***Rediagonalizing the Fockian in SOSCF/NRSCF***

               *****************************************************
               *                     SUCCESS                       *
               *           SCF CONVERGED AFTER  17 CYCLES          *
               *****************************************************

Old exchange energy                            =    -10.443534927 Eh
New exchange energy                            =    -10.443504147 Eh
Exchange energy change after final integration =      0.000030780 Eh
Total energy after final integration           =   -213.586949308 Eh
Final COS-X integration done in                =     3.149 sec

----------------
TOTAL SCF ENERGY
----------------

Total Energy       :         -213.58694931 Eh           -5811.99637 eV

Components:
Nuclear Repulsion  :          188.80814261 Eh            5137.73076 eV
Electronic Energy  :         -402.39509192 Eh          -10949.72712 eV
One Electron Energy:         -660.28060362 Eh          -17967.14866 eV
Two Electron Energy:          257.88551171 Eh            7017.42153 eV
Max COSX asymmetry :            0.00000160 Eh               0.00004 eV

Virial components:
Potential Energy   :         -424.61679007 Eh          -11554.41027 eV
Kinetic Energy     :          211.02984076 Eh            5742.41391 eV
Virial Ratio       :            2.01211728


DFT components:
N(Alpha)           :       21.000003324646 electrons
N(Beta)            :       21.000003324646 electrons
N(Total)           :       42.000006649292 electrons
E(XC)              :      -22.250132620032 Eh       
DFET-embed. en.    :        0.000000000000 Eh       

---------------
SCF CONVERGENCE
---------------

  Last Energy change         ...    3.0852e-10  Tolerance :   1.0000e-08
  Last MAX-Density change    ...    2.6645e-15  Tolerance :   1.0000e-07
  Last RMS-Density change    ...    5.1578e-17  Tolerance :   5.0000e-09
  Last Orbital Gradient      ...    6.4239e-07  Tolerance :   1.0000e-05
  Last Orbital Rotation      ...    1.4976e-06  Tolerance :   1.0000e-05

             **** THE GBW FILE WAS UPDATED (butylamine_deprot_aq_2.gbw) ****
             **** DENSITY butylamine_deprot_aq_2.scfp WAS UPDATED ****
             **** ENERGY FILE WAS UPDATED (butylamine_deprot_aq_2.en.tmp) ****
             **** THE GBW FILE WAS UPDATED (butylamine_deprot_aq_2.gbw) ****
             **** DENSITY butylamine_deprot_aq_2.scfp WAS UPDATED ****
----------------
ORBITAL ENERGIES
----------------

  NO   OCC          E(Eh)            E(eV) 
   0   2.0000     -14.373923      -391.1343 
   1   2.0000     -10.282393      -279.7981 
   2   2.0000     -10.262864      -279.2667 
   3   2.0000     -10.258879      -279.1583 
   4   2.0000     -10.256641      -279.0974 
   5   2.0000      -0.997853       -27.1529 
   6   2.0000      -0.912111       -24.8198 
   7   2.0000      -0.820554       -22.3284 
   8   2.0000      -0.746160       -20.3040 
   9   2.0000      -0.687550       -18.7092 
  10   2.0000      -0.611375       -16.6364 
  11   2.0000      -0.572962       -15.5911 
  12   2.0000      -0.555762       -15.1231 
  13   2.0000      -0.518779       -14.1167 
  14   2.0000      -0.508945       -13.8491 
  15   2.0000      -0.489320       -13.3151 
  16   2.0000      -0.461559       -12.5597 
  17   2.0000      -0.443403       -12.0656 
  18   2.0000      -0.430579       -11.7167 
  19   2.0000      -0.425329       -11.5738 
  20   2.0000      -0.329281        -8.9602 
  21   0.0000       0.143619         3.9081 
  22   0.0000       0.160114         4.3569 
  23   0.0000       0.174933         4.7602 
  24   0.0000       0.181950         4.9511 
  25   0.0000       0.215507         5.8642 
  26   0.0000       0.225912         6.1474 
  27   0.0000       0.237755         6.4696 
  28   0.0000       0.246549         6.7089 
  29   0.0000       0.250817         6.8251 
  30   0.0000       0.272583         7.4174 
  31   0.0000       0.275823         7.5055 
  32   0.0000       0.321509         8.7487 
  33   0.0000       0.342672         9.3246 
  34   0.0000       0.355033         9.6609 
  35   0.0000       0.363222         9.8838 
  36   0.0000       0.513239        13.9659 
  37   0.0000       0.528376        14.3778 
  38   0.0000       0.538098        14.6424 
  39   0.0000       0.559081        15.2134 
  40   0.0000       0.578249        15.7350 
  41   0.0000       0.594396        16.1743 
  42   0.0000       0.612010        16.6536 
  43   0.0000       0.716714        19.5028 
  44   0.0000       0.725095        19.7308 
  45   0.0000       0.733807        19.9679 
  46   0.0000       0.742057        20.1924 
  47   0.0000       0.756962        20.5980 
  48   0.0000       0.773011        21.0347 
  49   0.0000       0.782153        21.2835 
  50   0.0000       0.791033        21.5251 
  51   0.0000       0.797950        21.7133 
  52   0.0000       0.801629        21.8134 
  53   0.0000       0.807291        21.9675 
  54   0.0000       0.823552        22.4100 
  55   0.0000       0.827492        22.5172 
  56   0.0000       0.832131        22.6434 
  57   0.0000       0.846666        23.0390 
  58   0.0000       0.860970        23.4282 
  59   0.0000       0.919790        25.0288 
  60   0.0000       0.951575        25.8937 
  61   0.0000       1.025021        27.8922 
  62   0.0000       1.054386        28.6913 
  63   0.0000       1.078211        29.3396 
  64   0.0000       1.157356        31.4932 
  65   0.0000       1.167588        31.7717 
  66   0.0000       1.288050        35.0496 
  67   0.0000       1.304489        35.4970 
  68   0.0000       1.313853        35.7518 
  69   0.0000       1.388876        37.7932 
  70   0.0000       1.402157        38.1546 
  71   0.0000       1.447914        39.3997 
  72   0.0000       1.506638        40.9977 
  73   0.0000       1.538575        41.8668 
  74   0.0000       1.655480        45.0479 
  75   0.0000       1.664571        45.2953 
  76   0.0000       1.739699        47.3396 
  77   0.0000       1.807300        49.1791 
  78   0.0000       1.837109        49.9903 
  79   0.0000       1.860303        50.6214 
  80   0.0000       1.871742        50.9327 
  81   0.0000       1.892876        51.5078 
  82   0.0000       1.905728        51.8575 
  83   0.0000       1.919160        52.2230 
  84   0.0000       1.921098        52.2757 
  85   0.0000       1.928207        52.4692 
  86   0.0000       1.961576        53.3772 
  87   0.0000       1.980211        53.8843 
  88   0.0000       1.986812        54.0639 
  89   0.0000       1.989704        54.1426 
  90   0.0000       1.997178        54.3460 
  91   0.0000       2.031275        55.2738 
  92   0.0000       2.044575        55.6357 
  93   0.0000       2.065838        56.2143 
  94   0.0000       2.085927        56.7610 
  95   0.0000       2.122906        57.7672 
  96   0.0000       2.177790        59.2607 
  97   0.0000       2.216457        60.3129 
  98   0.0000       2.245771        61.1105 
  99   0.0000       2.306084        62.7517 
 100   0.0000       2.343085        63.7586 
 101   0.0000       2.407017        65.4983 
 102   0.0000       2.483044        67.5671 
 103   0.0000       2.511613        68.3445 
 104   0.0000       2.526755        68.7565 
 105   0.0000       2.551602        69.4326 
 106   0.0000       2.609229        71.0007 
 107   0.0000       2.630344        71.5753 
 108   0.0000       2.703623        73.5693 
 109   0.0000       2.711517        73.7841 
 110   0.0000       2.761477        75.1436 
 111   0.0000       2.813161        76.5500 
 112   0.0000       2.892984        78.7221 
 113   0.0000       2.896574        78.8198 
 114   0.0000       2.974992        80.9536 
 115   0.0000       2.999570        81.6224 
 116   0.0000       3.032997        82.5321 
 117   0.0000       3.056686        83.1767 
 118   0.0000       3.099637        84.3454 
 119   0.0000       3.135471        85.3205 
 120   0.0000       3.154970        85.8511 
 121   0.0000       3.198417        87.0333 
 122   0.0000       3.237938        88.1088 
 123   0.0000       3.358643        91.3933 
 124   0.0000       3.519001        95.7569 

                    ********************************
                    * MULLIKEN POPULATION ANALYSIS *
                    ********************************

-----------------------
MULLIKEN ATOMIC CHARGES
-----------------------
   0 C :   -0.035857
   1 C :   -0.052479
   2 H :    0.027011
   3 H :    0.018631
   4 H :    0.026003
   5 C :   -0.051008
   6 H :    0.017703
   7 H :    0.013358
   8 C :    0.063541
   9 H :    0.000447
  10 H :    0.003548
  11 N :   -0.242494
  12 H :    0.013316
  13 H :    0.016687
  14 H :    0.091084
  15 H :    0.090512
Sum of atomic charges:    0.0000000

--------------------------------
MULLIKEN REDUCED ORBITAL CHARGES
--------------------------------
  0 C s       :     2.999060  s :     2.999060
      pz      :     0.999482  p :     3.008317
      px      :     1.008271
      py      :     1.000563
      dz2     :     0.007892  d :     0.028481
      dxz     :     0.005413
      dyz     :     0.003800
      dx2y2   :     0.008027
      dxy     :     0.003349
  1 C s       :     3.032040  s :     3.032040
      pz      :     0.998295  p :     2.983661
      px      :     0.977080
      py      :     1.008285
      dz2     :     0.007237  d :     0.036778
      dxz     :     0.009579
      dyz     :     0.004827
      dx2y2   :     0.009794
      dxy     :     0.005340
  2 H s       :     0.948989  s :     0.948989
      pz      :     0.004647  p :     0.024000
      px      :     0.013562
      py      :     0.005791
  3 H s       :     0.957325  s :     0.957325
      pz      :     0.005170  p :     0.024044
      px      :     0.004720
      py      :     0.014154
  4 H s       :     0.949659  s :     0.949659
      pz      :     0.012579  p :     0.024338
      px      :     0.006969
      py      :     0.004790
  5 C s       :     3.026169  s :     3.026169
      pz      :     1.011284  p :     2.989673
      px      :     0.980069
      py      :     0.998321
      dz2     :     0.006171  d :     0.035166
      dxz     :     0.008932
      dyz     :     0.005964
      dx2y2   :     0.009099
      dxy     :     0.005000
  6 H s       :     0.959678  s :     0.959678
      pz      :     0.011590  p :     0.022619
      px      :     0.006662
      py      :     0.004367
  7 H s       :     0.963899  s :     0.963899
      pz      :     0.005206  p :     0.022743
      px      :     0.003896
      py      :     0.013640
  8 C s       :     3.009742  s :     3.009742
      pz      :     0.993264  p :     2.874456
      px      :     0.850837
      py      :     1.030354
      dz2     :     0.008189  d :     0.052262
      dxz     :     0.014957
      dyz     :     0.007188
      dx2y2   :     0.014547
      dxy     :     0.007380
  9 H s       :     0.976937  s :     0.976937
      pz      :     0.004699  p :     0.022616
      px      :     0.003741
      py      :     0.014176
 10 H s       :     0.973930  s :     0.973930
      pz      :     0.010573  p :     0.022522
      px      :     0.005046
      py      :     0.006903
 11 N s       :     3.398670  s :     3.398670
      pz      :     1.464288  p :     3.823739
      px      :     1.293504
      py      :     1.065947
      dz2     :     0.004180  d :     0.020085
      dxz     :     0.002536
      dyz     :     0.004830
      dx2y2   :     0.006331
      dxy     :     0.002209
 12 H s       :     0.965168  s :     0.965168
      pz      :     0.004967  p :     0.021516
      px      :     0.002457
      py      :     0.014092
 13 H s       :     0.961497  s :     0.961497
      pz      :     0.010671  p :     0.021816
      px      :     0.003719
      py      :     0.007426
 14 H s       :     0.863026  s :     0.863026
      pz      :     0.013092  p :     0.045890
      px      :     0.009703
      py      :     0.023094
 15 H s       :     0.863712  s :     0.863712
      pz      :     0.019045  p :     0.045776
      px      :     0.012429
      py      :     0.014303


                     *******************************
                     * LOEWDIN POPULATION ANALYSIS *
                     *******************************

----------------------
LOEWDIN ATOMIC CHARGES
----------------------
   0 C :   -0.060375
   1 C :   -0.042266
   2 H :    0.025074
   3 H :    0.021549
   4 H :    0.020504
   5 C :   -0.060045
   6 H :    0.021602
   7 H :    0.019332
   8 C :    0.010845
   9 H :    0.013618
  10 H :    0.015545
  11 N :   -0.116516
  12 H :    0.017164
  13 H :    0.016246
  14 H :    0.049213
  15 H :    0.048511

-------------------------------
LOEWDIN REDUCED ORBITAL CHARGES
-------------------------------
  0 C s       :     2.825835  s :     2.825835
      pz      :     1.050860  p :     3.161314
      px      :     1.054862
      py      :     1.055592
      dz2     :     0.018992  d :     0.073227
      dxz     :     0.014693
      dyz     :     0.010336
      dx2y2   :     0.020574
      dxy     :     0.008632
  1 C s       :     2.828483  s :     2.828483
      pz      :     1.046637  p :     3.123583
      px      :     1.025925
      py      :     1.051021
      dz2     :     0.017290  d :     0.090201
      dxz     :     0.023532
      dyz     :     0.012478
      dx2y2   :     0.024302
      dxy     :     0.012598
  2 H s       :     0.908454  s :     0.908454
      pz      :     0.013666  p :     0.066472
      px      :     0.036796
      py      :     0.016009
  3 H s       :     0.912085  s :     0.912085
      pz      :     0.014933  p :     0.066366
      px      :     0.013037
      py      :     0.038396
  4 H s       :     0.912262  s :     0.912262
      pz      :     0.034818  p :     0.067234
      px      :     0.019134
      py      :     0.013281
  5 C s       :     2.843242  s :     2.843242
      pz      :     1.047039  p :     3.128321
      px      :     1.027039
      py      :     1.054244
      dz2     :     0.015573  d :     0.088482
      dxz     :     0.023103
      dyz     :     0.014174
      dx2y2   :     0.024084
      dxy     :     0.011547
  6 H s       :     0.912123  s :     0.912123
      pz      :     0.032226  p :     0.066276
      px      :     0.020966
      py      :     0.013083
  7 H s       :     0.914439  s :     0.914439
      pz      :     0.015421  p :     0.066229
      px      :     0.013288
      py      :     0.037520
  8 C s       :     2.828818  s :     2.828818
      pz      :     1.042136  p :     3.040561
      px      :     0.936712
      py      :     1.061714
      dz2     :     0.018469  d :     0.119776
      dxz     :     0.035639
      dyz     :     0.016864
      dx2y2   :     0.034931
      dxy     :     0.013873
  9 H s       :     0.919908  s :     0.919908
      pz      :     0.015009  p :     0.066474
      px      :     0.013240
      py      :     0.038225
 10 H s       :     0.918192  s :     0.918192
      pz      :     0.030667  p :     0.066263
      px      :     0.016786
      py      :     0.018810
 11 N s       :     3.119814  s :     3.119814
      pz      :     1.487098  p :     3.952372
      px      :     1.313240
      py      :     1.152034
      dz2     :     0.007656  d :     0.044330
      dxz     :     0.004992
      dyz     :     0.010253
      dx2y2   :     0.015828
      dxy     :     0.005600
 12 H s       :     0.919054  s :     0.919054
      pz      :     0.015452  p :     0.063782
      px      :     0.010088
      py      :     0.038242
 13 H s       :     0.919162  s :     0.919162
      pz      :     0.031055  p :     0.064592
      px      :     0.013113
      py      :     0.020424
 14 H s       :     0.828667  s :     0.828667
      pz      :     0.035974  p :     0.122120
      px      :     0.027457
      py      :     0.058689
 15 H s       :     0.829534  s :     0.829534
      pz      :     0.057164  p :     0.121955
      px      :     0.033652
      py      :     0.031139


                      *****************************
                      * MAYER POPULATION ANALYSIS *
                      *****************************

  NA   - Mulliken gross atomic population
  ZA   - Total nuclear charge
  QA   - Mulliken gross atomic charge
  VA   - Mayer's total valence
  BVA  - Mayer's bonded valence
  FA   - Mayer's free valence

  ATOM       NA         ZA         QA         VA         BVA        FA
  0 C      6.0359     6.0000    -0.0359     4.0040     4.0040    -0.0000
  1 C      6.0525     6.0000    -0.0525     4.0779     4.0779    -0.0000
  2 H      0.9730     1.0000     0.0270     0.9876     0.9876     0.0000
  3 H      0.9814     1.0000     0.0186     0.9914     0.9914    -0.0000
  4 H      0.9740     1.0000     0.0260     0.9932     0.9932     0.0000
  5 C      6.0510     6.0000    -0.0510     4.0128     4.0128     0.0000
  6 H      0.9823     1.0000     0.0177     0.9757     0.9757     0.0000
  7 H      0.9866     1.0000     0.0134     0.9811     0.9811     0.0000
  8 C      5.9365     6.0000     0.0635     4.0552     4.0552    -0.0000
  9 H      0.9996     1.0000     0.0004     0.9893     0.9893     0.0000
 10 H      0.9965     1.0000     0.0035     0.9884     0.9884     0.0000
 11 N      7.2425     7.0000    -0.2425     3.0841     3.0841    -0.0000
 12 H      0.9867     1.0000     0.0133     0.9860     0.9860    -0.0000
 13 H      0.9833     1.0000     0.0167     0.9886     0.9886     0.0000
 14 H      0.9089     1.0000     0.0911     1.0008     1.0008    -0.0000
 15 H      0.9095     1.0000     0.0905     1.0017     1.0017     0.0000

  Mayer bond orders larger than 0.100000
B(  0-C ,  1-C ) :   1.0792 B(  0-C ,  2-H ) :   0.9732 B(  0-C ,  3-H ) :   0.9762 
B(  0-C ,  4-H ) :   0.9768 B(  1-C ,  5-C ) :   1.0619 B(  1-C ,  6-H ) :   0.9541 
B(  1-C ,  7-H ) :   0.9551 B(  5-C ,  8-C ) :   1.0426 B(  5-C ,  9-H ) :   0.9486 
B(  5-C , 10-H ) :   0.9501 B(  8-C , 11-N ) :   1.0855 B(  8-C , 12-H ) :   0.9603 
B(  8-C , 13-H ) :   0.9595 B( 11-N , 14-H ) :   0.9822 B( 11-N , 15-H ) :   0.9826 


-------
TIMINGS
-------

Total SCF time: 0 days 0 hours 0 min 28 sec 

Total time                  ....      28.163 sec
Sum of individual times     ....      27.404 sec  ( 97.3%)

Fock matrix formation       ....      26.199 sec  ( 93.0%)
  Split-RI-J                ....       1.578 sec  (  6.0% of F)
  Chain of spheres X        ....      18.850 sec  ( 71.9% of F)
  XC integration            ....       5.031 sec  ( 19.2% of F)
    Basis function eval.    ....       1.370 sec  ( 27.2% of XC)
    Density eval.           ....       0.705 sec  ( 14.0% of XC)
    XC-Functional eval.     ....       0.719 sec  ( 14.3% of XC)
    XC-Potential eval.      ....       0.805 sec  ( 16.0% of XC)
Diagonalization             ....       0.078 sec  (  0.3%)
Density matrix formation    ....       0.003 sec  (  0.0%)
Population analysis         ....       0.015 sec  (  0.1%)
Initial guess               ....       0.119 sec  (  0.4%)
Orbital Transformation      ....       0.000 sec  (  0.0%)
Orbital Orthonormalization  ....       0.000 sec  (  0.0%)
DIIS solution               ....       0.048 sec  (  0.2%)
SOSCF solution              ....       0.019 sec  (  0.1%)
Grid generation             ....       0.924 sec  (  3.3%)

Maximum memory used throughout the entire SCF-calculation: 49.8 MB


-------------------------------------------------------------------------------
                          DFT DISPERSION CORRECTION                            
                                                                               
                                 DFTD4 V2.5                                    
-------------------------------------------------------------------------------
The WB97X functional is recognized
Active option DFTDOPT                   ...         5   

Starting D4
-------------------------   ----------------
Dispersion correction           -0.001395659
-------------------------   ----------------


-------------------------   --------------------
FINAL SINGLE POINT ENERGY      -213.588344966661
-------------------------   --------------------



           ************************************************************
           *        Program running with 4 parallel MPI-processes     *
           *              working on a common directory               *
           ************************************************************
------------------------------------------------------------------------------
                         ORCA SCF GRADIENT CALCULATION
------------------------------------------------------------------------------

 ... reading COSX grid (gridx3)
Gradient of the Kohn-Sham DFT energy:
Kohn-Sham wavefunction type      ... RKS
Hartree-Fock exchange scaling    ...    0.158
Number of operators              ...    1
Number of atoms                  ...   16
Basis set dimensions             ...  125
Integral neglect threshold       ... 2.5e-11
Integral primitive cutoff        ... 2.5e-12
SHARK Integral package           ... ON

Nuc. rep. gradient       (SHARK) ... done (  0.0 sec)
HCore & Overlap gradient (SHARK) ... done (  0.0 sec)
RI-J gradient            (SHARK) ... done (  0.2 sec)
COSX-gradient                    ... done (  3.4 sec)
Exchange-correlation gradient    ... done
Dispersion correction            ... Starting D4
Starting D4


------------------- 
Dispersion Gradient 
------------------- 
   1  :   -0.000026856    0.000007039    0.000011616
   2  :   -0.000016883   -0.000009745   -0.000007466
   3  :   -0.000006249    0.000000701    0.000000971
   4  :   -0.000007474   -0.000002038    0.000000994
   5  :   -0.000008538   -0.000000018   -0.000001906
   6  :    0.000002530    0.000002020   -0.000011789
   7  :   -0.000004430    0.000000197    0.000001198
   8  :   -0.000004859    0.000003457   -0.000001003
   9  :    0.000002072   -0.000004625    0.000006545
  10  :    0.000000500   -0.000004705    0.000001679
  11  :    0.000001117    0.000000292    0.000002037
  12  :    0.000040358    0.000002514    0.000007119
  13  :    0.000007810    0.000004026   -0.000002172
  14  :    0.000008188   -0.000001137   -0.000004527
  15  :    0.000006435    0.000002059   -0.000001223
Starting D4
  16  :    0.000006280   -0.000000038   -0.000002073

  |G| =    0.000057618

Starting D4
done

------------------
CARTESIAN GRADIENT
------------------

   1   C   :   -0.003745147    0.008444492    0.007962418
   2   C   :   -0.003887388   -0.011609969   -0.002072950
   3   H   :    0.008723053    0.001506308   -0.002665329
   4   H   :    0.000996052   -0.009560541    0.001228241
   5   H   :   -0.003120147   -0.000651621   -0.009448782
   6   C   :    0.003128101    0.009731161   -0.012233104
   7   H   :    0.003952772    0.002248691    0.005466329
   8   H   :    0.000477535    0.008121211   -0.000356089
   9   C   :   -0.006633598   -0.006532184    0.013541651
  10   H   :   -0.000812411   -0.007245376    0.003219060
  11   H   :   -0.003786970    0.001548000    0.005675873
  12   N   :    0.002013219    0.002027144   -0.004911423
  13   H   :    0.002539625    0.005807112   -0.003909273
  14   H   :    0.003787835   -0.000854404   -0.006738007
  15   H   :   -0.001725914   -0.002400623    0.002093003
  16   H   :   -0.001950506   -0.000234551    0.002951846

Difference to translation invariance:
           :   -0.0000438904    0.0003448500   -0.0001965375

Difference to rotation invariance:
           :   -0.0002390269    0.0007326166    0.0002334516

Norm of the cartesian gradient     ...    0.0388481490
RMS gradient                       ...    0.0056072473
MAX gradient                       ...    0.0135416511

-------
TIMINGS
-------

Total SCF gradient time            ...        5.048 sec

One electron gradient       ....       0.038 sec  (  0.8%)
RI-J Coulomb gradient       ....       0.239 sec  (  4.7%)
COSX gradient               ....       3.434 sec  ( 68.0%)
XC gradient                 ....       1.028 sec  ( 20.4%)

Maximum memory used throughout the entire SCFGRAD-calculation: 38.3 MB
------------------------------------------------------------------------------
                         ORCA GEOMETRY RELAXATION STEP
------------------------------------------------------------------------------

Reading the OPT-File                    .... done
Getting information on internals        .... done
Copying old internal coords+grads       .... done
Making the new internal coordinates     .... (new redundants).... done
Validating the new internal coordinates .... (new redundants).... done
Calculating the B-matrix                .... done
Calculating the G,G- and P matrices     .... done
Transforming gradient to internals      .... done
Projecting the internal gradient        .... done
Number of atoms                         ....  16
Number of internal coordinates          ....  75
Current Energy                          ....  -213.588344967 Eh
Current gradient norm                   ....     0.038848149 Eh/bohr
Maximum allowed component of the step   ....  0.300
Current trust radius                    ....  0.300
Evaluating the initial hessian          ....  (Almloef) done
Projecting the Hessian                  .... done
Forming the augmented Hessian           .... done
Diagonalizing the augmented Hessian     .... done
Last element of RFO vector              ....  0.994579773
Lowest eigenvalues of augmented Hessian:
 -0.002268628  0.010771997  0.011263879  0.011575276  0.016486985
Length of the computed step             ....  0.104542971
The final length of the internal step   ....  0.104542971
Converting the step to cartesian space:
 Initial RMS(Int)=    0.0120715825
Transforming coordinates:
 Iter   0:  RMS(Cart)=    0.0181850626 RMS(Int)=    0.0120536543
 Iter   1:  RMS(Cart)=    0.0001134222 RMS(Int)=    0.0000936466
 Iter   2:  RMS(Cart)=    0.0000013144 RMS(Int)=    0.0000009328
 Iter   3:  RMS(Cart)=    0.0000000209 RMS(Int)=    0.0000000157
done
Storing new coordinates                 .... done

                                .--------------------.
          ----------------------|Geometry convergence|-------------------------
          Item                value                   Tolerance       Converged
          ---------------------------------------------------------------------
          RMS gradient        0.0030708309            0.0001000000      NO
          MAX gradient        0.0097599652            0.0003000000      NO
          RMS step            0.0120715825            0.0020000000      NO
          MAX step            0.0286330600            0.0040000000      NO
          ........................................................
          Max(Bonds)      0.0141      Max(Angles)    1.04
          Max(Dihed)        1.64      Max(Improp)    0.00
          ---------------------------------------------------------------------

The optimization has not yet converged - more geometry cycles are needed


    ---------------------------------------------------------------------------
                         Redundant Internal Coordinates
                            (Angstroem and degrees)

        Definition                    Value    dE/dq     Step     New-Value
    ----------------------------------------------------------------------------
     1. B(C   1,C   0)                1.5246 -0.003585  0.0049    1.5295   
     2. B(H   2,C   0)                1.0875 -0.008938  0.0129    1.1005   
     3. B(H   3,C   0)                1.0879 -0.009597  0.0139    1.1018   
     4. B(H   4,C   0)                1.0867 -0.009760  0.0141    1.1007   
     5. B(C   5,C   1)                1.5286 -0.002569  0.0036    1.5322   
     6. B(H   6,C   1)                1.0928 -0.006670  0.0098    1.1027   
     7. B(H   7,C   1)                1.0924 -0.007817  0.0115    1.1039   
     8. B(C   8,C   5)                1.5350  0.001491 -0.0021    1.5329   
     9. B(H   9,C   5)                1.0939 -0.007773  0.0115    1.1054   
    10. B(H  10,C   5)                1.0946 -0.006645  0.0099    1.1045   
    11. B(N  11,C   8)                1.4556 -0.001786  0.0021    1.4578   
    12. B(H  12,C   8)                1.0941 -0.006596  0.0098    1.1039   
    13. B(H  13,C   8)                1.0924 -0.006898  0.0102    1.1025   
    14. B(H  14,N  11)                1.0147 -0.002957  0.0037    1.0183   
    15. B(H  15,N  11)                1.0148 -0.002845  0.0035    1.0184   
    16. A(H   3,C   0,H   4)          108.53  0.001869   -0.41    108.12   
    17. A(C   1,C   0,H   4)          111.04 -0.002030    0.37    111.41   
    18. A(C   1,C   0,H   2)          110.19 -0.002674    0.52    110.70   
    19. A(H   2,C   0,H   3)          108.35  0.001859   -0.33    108.02   
    20. A(H   2,C   0,H   4)          108.17  0.002266   -0.37    107.80   
    21. A(C   1,C   0,H   3)          110.48 -0.001066    0.18    110.66   
    22. A(C   0,C   1,C   5)          113.22 -0.002060    0.58    113.80   
    23. A(H   6,C   1,H   7)          107.61  0.000946   -0.79    106.83   
    24. A(C   5,C   1,H   7)          109.13  0.000748   -0.16    108.97   
    25. A(C   0,C   1,H   7)          109.43  0.000284   -0.05    109.38   
    26. A(C   5,C   1,H   6)          108.48 -0.000052    0.21    108.69   
    27. A(C   0,C   1,H   6)          108.82  0.000275    0.14    108.96   
    28. A(C   8,C   5,H   9)          109.20  0.001065   -0.25    108.95   
    29. A(C   1,C   5,H   9)          109.36  0.000572   -0.03    109.33   
    30. A(C   1,C   5,C   8)          113.37 -0.002979    0.70    114.08   
    31. A(H   9,C   5,H  10)          107.65  0.000511   -0.65    107.00   
    32. A(C   8,C   5,H  10)          108.38  0.001371   -0.18    108.20   
    33. A(C   1,C   5,H  10)          108.72 -0.000381    0.33    109.05   
    34. A(H  12,C   8,H  13)          108.06  0.001427   -1.04    107.02   
    35. A(N  11,C   8,H  13)          107.10 -0.000421    0.36    107.46   
    36. A(C   5,C   8,H  13)          110.07  0.000756   -0.16    109.91   
    37. A(N  11,C   8,H  12)          107.46 -0.000798    0.41    107.86   
    38. A(C   5,C   8,H  12)          109.41  0.001322   -0.32    109.09   
    39. A(C   5,C   8,N  11)          114.53 -0.002155    0.66    115.19   
    40. A(H  14,N  11,H  15)          107.16  0.002324   -0.51    106.64   
    41. A(C   8,N  11,H  15)          109.61 -0.001991    0.30    109.91   
    42. A(C   8,N  11,H  14)          109.54 -0.002317    0.36    109.89   
    43. D(H   6,C   1,C   0,H   4)    174.74  0.000641   -0.16    174.59   
    44. D(C   5,C   1,C   0,H   3)     55.92 -0.000271    0.44     56.35   
    45. D(H   7,C   1,C   0,H   3)    177.88 -0.000512    0.59    178.47   
    46. D(H   6,C   1,C   0,H   2)     54.91  0.000865   -0.26     54.65   
    47. D(C   5,C   1,C   0,H   4)    -64.56 -0.000574    0.59    -63.97   
    48. D(H   6,C   1,C   0,H   3)    -64.78  0.000943   -0.31    -65.09   
    49. D(H   7,C   1,C   0,H   4)     57.41 -0.000814    0.74     58.15   
    50. D(C   5,C   1,C   0,H   2)    175.61 -0.000349    0.48    176.09   
    51. D(H   7,C   1,C   0,H   2)    -62.42 -0.000590    0.63    -61.79   
    52. D(H   9,C   5,C   1,H   6)     66.75 -0.000378   -0.31     66.44   
    53. D(C   8,C   5,C   1,H   7)    -54.16  0.000879   -1.08    -55.24   
    54. D(C   8,C   5,C   1,H   6)   -171.13 -0.000634   -0.17   -171.30   
    55. D(C   8,C   5,C   1,C   0)     67.98  0.000386   -0.87     67.11   
    56. D(H   9,C   5,C   1,H   7)   -176.28  0.001134   -1.22   -177.49   
    57. D(H  10,C   5,C   1,H   7)     66.44  0.000415   -0.62     65.83   
    58. D(H  10,C   5,C   1,H   6)    -50.53 -0.001097    0.29    -50.23   
    59. D(H  10,C   5,C   1,C   0)   -171.42 -0.000077   -0.41   -171.82   
    60. D(H   9,C   5,C   1,C   0)    -54.14  0.000641   -1.01    -55.15   
    61. D(H  13,C   8,C   5,H   9)     58.15 -0.002421    1.64     59.79   
    62. D(H  13,C   8,C   5,C   1)    -64.05 -0.001897    1.38    -62.68   
    63. D(H  12,C   8,C   5,H  10)    -66.26  0.002545   -0.92    -67.18   
    64. D(H  12,C   8,C   5,H   9)    176.74  0.000581    0.09    176.83   
    65. D(H  12,C   8,C   5,C   1)     54.54  0.001105   -0.18     54.36   
    66. D(N  11,C   8,C   5,H  10)     54.43  0.001025   -0.18     54.25   
    67. D(N  11,C   8,C   5,H   9)    -62.57 -0.000939    0.83    -61.74   
    68. D(H  13,C   8,C   5,H  10)    175.15 -0.000457    0.63    175.78   
    69. D(N  11,C   8,C   5,C   1)    175.23 -0.000415    0.56    175.79   
    70. D(H  15,N  11,C   8,C   5)    -58.34 -0.000367    0.38    -57.96   
    71. D(H  14,N  11,C   8,H  13)    -63.38  0.000685   -0.36    -63.74   
    72. D(H  14,N  11,C   8,H  12)   -179.28 -0.000365    0.46   -178.81   
    73. D(H  14,N  11,C   8,C   5)     58.96 -0.000066    0.14     59.10   
    74. D(H  15,N  11,C   8,H  13)    179.32  0.000383   -0.12    179.20   
    75. D(H  15,N  11,C   8,H  12)     63.42 -0.000666    0.70     64.12   
    ----------------------------------------------------------------------------

         *************************************************************
         *                GEOMETRY OPTIMIZATION CYCLE   2            *
         *************************************************************
---------------------------------
CARTESIAN COORDINATES (ANGSTROEM)
---------------------------------
  C     -2.136387    0.323333    0.606599
  C     -1.392241   -0.483601   -0.458552
  H     -3.169075   -0.039957    0.718974
  H     -2.178147    1.388709    0.328623
  H     -1.643404    0.244503    1.587598
  C      0.025511    0.024388   -0.740725
  H     -1.970406   -0.456767   -1.397086
  H     -1.338937   -1.541077   -0.146203
  C      0.999036   -0.156563    0.429389
  H     -0.016535    1.095533   -1.010420
  H      0.433640   -0.513000   -1.615084
  N      2.377554    0.230036    0.154899
  H      0.999584   -1.216464    0.737852
  H      0.656874    0.431737    1.296794
  H      2.415140    1.211419   -0.114371
  H      2.736510   -0.303090   -0.635037

----------------------------
CARTESIAN COORDINATES (A.U.)
----------------------------
  NO LB      ZA    FRAG     MASS         X           Y           Z
   0 C     6.0000    0    12.011   -4.037187    0.611012    1.146306
   1 C     6.0000    0    12.011   -2.630954   -0.913873   -0.866538
   2 H     1.0000    0     1.008   -5.988683   -0.075507    1.358665
   3 H     1.0000    0     1.008   -4.116102    2.624279    0.621008
   4 H     1.0000    0     1.008   -3.105583    0.462045    3.000126
   5 C     6.0000    0    12.011    0.048208    0.046086   -1.399767
   6 H     1.0000    0     1.008   -3.723528   -0.863164   -2.640109
   7 H     1.0000    0     1.008   -2.530224   -2.912214   -0.276284
   8 C     6.0000    0    12.011    1.887905   -0.295860    0.811427
   9 H     1.0000    0     1.008   -0.031246    2.070257   -1.909417
  10 H     1.0000    0     1.008    0.819462   -0.969429   -3.052067
  11 N     7.0000    0    14.007    4.492926    0.434705    0.292717
  12 H     1.0000    0     1.008    1.888940   -2.298783    1.394337
  13 H     1.0000    0     1.008    1.241311    0.815865    2.450586
  14 H     1.0000    0     1.008    4.563954    2.289249   -0.216129
  15 H     1.0000    0     1.008    5.171254   -0.572757   -1.200045

--------------------------------
INTERNAL COORDINATES (ANGSTROEM)
--------------------------------
 C      0   0   0     0.000000000000     0.00000000     0.00000000
 C      1   0   0     1.529524109406     0.00000000     0.00000000
 H      1   2   0     1.100477653925   110.70161457     0.00000000
 H      1   2   3     1.101834235650   110.66264346   240.26414562
 H      1   2   3     1.100730004187   111.40534183   119.93857542
 C      2   1   3     1.532218443850   113.79795208   176.08953799
 H      2   1   3     1.102651632136   108.95350891    54.64699683
 H      2   1   3     1.103929164557   109.37955519   298.20857339
 C      6   2   1     1.532860476136   114.07559055    67.10984248
 H      6   2   1     1.105375739449   109.32994965   304.85218806
 H      6   2   1     1.104472547520   109.05027185   188.17636236
 N      9   6   2     1.457776690584   115.18442991   175.79075303
 H      9   6   2     1.103874806948   109.08488043    54.36352556
 H      9   6   2     1.102526358763   109.90569608   297.32260185
 H     12   9   6     1.018347296343   109.89281679    59.10289353
 H     12   9   6     1.018367033560   109.90984127   302.03893274

---------------------------
INTERNAL COORDINATES (A.U.)
---------------------------
 C      0   0   0     0.000000000000     0.00000000     0.00000000
 C      1   0   0     2.890381682006     0.00000000     0.00000000
 H      1   2   0     2.079601382418   110.70161457     0.00000000
 H      1   2   3     2.082164950357   110.66264346   240.26414562
 H      1   2   3     2.080078255304   111.40534183   119.93857542
 C      2   1   3     2.895473236220   113.79795208   176.08953799
 H      2   1   3     2.083709605859   108.95350891    54.64699683
 H      2   1   3     2.086123792261   109.37955519   298.20857339
 C      6   2   1     2.896686501409   114.07559055    67.10984248
 H      6   2   1     2.088857422639   109.32994965   304.85218806
 H      6   2   1     2.087150637247   109.05027185   188.17636236
 N      9   6   2     2.754798709618   115.18442991   175.79075303
 H      9   6   2     2.086021071266   109.08488043    54.36352556
 H      9   6   2     2.083472873492   109.90569608   297.32260185
 H     12   9   6     1.924397499308   109.89281679    59.10289353
 H     12   9   6     1.924434797243   109.90984127   302.03893274



           ************************************************************
           *        Program running with 4 parallel MPI-processes     *
           *              working on a common directory               *
           ************************************************************
------------------------------------------------------------------------------
                   ___                                                        
                  /   \      - P O W E R E D   B Y -                         
                 /     \                                                     
                 |  |  |   _    _      __       _____    __    __             
                 |  |  |  | |  | |    /  \     |  _  \  |  |  /  |          
                  \  \/   | |  | |   /    \    | | | |  |  | /  /          
                 / \  \   | |__| |  /  /\  \   | |_| |  |  |/  /          
                |  |  |   |  __  | /  /__\  \  |    /   |      \           
                |  |  |   | |  | | |   __   |  |    \   |  |\   \          
                \     /   | |  | | |  |  |  |  | |\  \  |  | \   \       
                 \___/    |_|  |_| |__|  |__|  |_| \__\ |__|  \__/        
[...]
     37      -0.058320  -0.096921  -0.058845   0.069933  -0.171992  -0.057347
     38      -0.229235  -0.269330  -0.153102   0.176797  -0.454183  -0.152881
     39      -0.468428  -0.011228   0.024506  -0.093104   0.117216   0.017866
     40       0.013807   0.259822   0.137963  -0.202295   0.485243   0.149488
     41      -0.190410  -0.156608  -0.069848   0.088170  -0.236324  -0.075192
     42      -0.126145  -0.006835   0.005046  -0.025952   0.013159  -0.000191
     43       0.011492  -0.001732   0.003060   0.001690   0.001158   0.001697
     44       0.063530   0.005168   0.005752   0.009347   0.004766   0.007442
     45      -0.012578   0.008388  -0.009406   0.009569   0.009854   0.007628
     46      -0.054280   0.002526  -0.012340  -0.002450   0.000946  -0.002252
     47       0.023797   0.002231   0.007040   0.000392   0.004302   0.004427
                 36         37         38         39         40         41    
      0       0.000014   0.000252  -0.005705   0.015631   0.016285   0.000733
      1      -0.000133  -0.001254   0.010186  -0.016242  -0.030363  -0.003684
      2       0.000337  -0.001270   0.010942  -0.017802  -0.024355  -0.000276
      3      -0.000404   0.003399  -0.001093  -0.019259   0.010639   0.006917
      4      -0.000461   0.001820  -0.007494  -0.051107   0.036242   0.008928
      5       0.000595   0.008059  -0.001272  -0.017064   0.011769   0.009098
      6      -0.001274  -0.012794   0.140282  -0.312501  -0.354465  -0.006592
      7       0.002044  -0.005774   0.049781  -0.113906  -0.125419  -0.002727
      8      -0.004894   0.000703  -0.013808   0.030206   0.038912   0.002416
      9      -0.002715   0.000644   0.006582  -0.009402  -0.017704  -0.000140
     10      -0.000493   0.020248  -0.184258   0.334661   0.514778   0.041484
     11       0.000070  -0.007130   0.047539  -0.086598  -0.132483  -0.012008
     12       0.005216   0.010790  -0.082214   0.141883   0.190919   0.004411
     13      -0.000327  -0.002479   0.016934  -0.026807  -0.038156  -0.001350
     14      -0.002189   0.021632  -0.157148   0.266865   0.366635   0.008302
     15      -0.004513   0.016638   0.003484  -0.001408   0.001921  -0.023935
     16      -0.000143   0.037241   0.003417   0.013132  -0.012031   0.072954
     17      -0.003342  -0.056776  -0.006833   0.001404  -0.002475   0.036319
     18       0.005385  -0.056081   0.016114   0.239132  -0.149665  -0.084161
     19       0.005798   0.006768  -0.003455  -0.028704   0.016631   0.006437
     20      -0.002611  -0.100017   0.030191   0.386644  -0.244860  -0.135935
     21       0.003213   0.002872  -0.005911  -0.024182   0.016805   0.002702
     22       0.000004  -0.027313   0.086551   0.634083  -0.436888  -0.102767
     23       0.003385   0.009680  -0.024216  -0.183297   0.123228   0.030452
     24       0.027062   0.000539   0.013881   0.001501   0.002845   0.008176
     25      -0.002638  -0.005279   0.037515   0.004126   0.015979  -0.026856
     26       0.024741   0.006421  -0.053958  -0.004685  -0.015420  -0.017137
     27       0.005173   0.023321   0.002130   0.003725  -0.000644   0.010161
     28      -0.002516  -0.753931  -0.083333  -0.123017   0.103608  -0.508966
     29      -0.014441   0.198723   0.022061   0.035525  -0.030467   0.147723
     30       0.001459  -0.218916  -0.033694   0.021594  -0.025580   0.272232
     31       0.012640   0.312693   0.044990  -0.032584   0.040426  -0.366592
     32      -0.009181   0.461745   0.068660  -0.052140   0.062172  -0.576535
     33      -0.062722  -0.000408  -0.000049  -0.000094   0.000169  -0.000017
     34      -0.027116  -0.000093  -0.000656  -0.000047  -0.000243   0.000304
     35       0.038806   0.000103   0.000930   0.000019   0.000456   0.000191
     36      -0.070892  -0.001598   0.006652  -0.000855   0.003333   0.002090
     37      -0.013727   0.093972  -0.736753  -0.072758  -0.261548   0.156030
     38      -0.014742  -0.028359   0.216385   0.019950   0.078448  -0.049249
     39      -0.068345   0.015114  -0.175264  -0.016503  -0.042228  -0.106808
     40      -0.008270  -0.028220   0.292707   0.026132   0.070019   0.168931
     41      -0.012344  -0.040301   0.417085   0.037911   0.099267   0.252427
     42       0.452845  -0.002739  -0.001740  -0.000120  -0.000768  -0.000852
     43      -0.172674  -0.002886   0.007859   0.000736   0.003231  -0.003829
     44      -0.508521   0.000164  -0.004791  -0.000519  -0.002116   0.001251
     45       0.277457  -0.003122   0.001828   0.000661   0.000036   0.003816
     46       0.594538   0.000619  -0.001707  -0.000324  -0.000402  -0.002654
     47      -0.239859   0.000857  -0.005739  -0.000256  -0.001856  -0.005173
                 42         43         44         45         46         47    
      0       0.007089  -0.003942  -0.015561  -0.080773   0.000026  -0.000022
      1      -0.010938  -0.000491  -0.073232  -0.015815   0.000005   0.000006
      2       0.015554   0.000563   0.052708  -0.042420   0.000053  -0.000032
      3      -0.035767  -0.008851   0.005515  -0.005304   0.000040   0.000003
      4       0.043651   0.015100  -0.012182   0.002377  -0.000001   0.000069
      5      -0.066640  -0.017432   0.011244  -0.008868   0.000028   0.000012
      6      -0.001038   0.046410   0.426065   0.675231   0.000145   0.000002
      7      -0.004574   0.015451   0.137804   0.236947  -0.000046   0.000057
      8       0.003825  -0.005912  -0.039488  -0.082587  -0.000154   0.000053
      9      -0.001609   0.001528  -0.027485  -0.012301  -0.000014   0.000013
     10       0.123189  -0.011891   0.710486   0.012289  -0.000006  -0.000001
     11      -0.030816   0.001890  -0.173957  -0.010272  -0.000025  -0.000003
     12      -0.082526  -0.003542  -0.218703   0.301028  -0.000226   0.000182
     13       0.013465   0.000824   0.027479  -0.059196   0.000018  -0.000079
     14      -0.155275  -0.004243  -0.411784   0.600085  -0.000549   0.000301
     15       0.002339  -0.008921   0.000303   0.000724   0.000536  -0.000099
     16       0.000723   0.031624  -0.001264  -0.000611   0.000230   0.000285
     17      -0.005924   0.011905   0.000068  -0.000927  -0.000447   0.000119
     18       0.409539   0.101833  -0.059968   0.057944   0.000312  -0.000025
     19      -0.026825  -0.007337   0.004185  -0.003032   0.000152   0.000026
     20       0.659348   0.163038  -0.099557   0.096512   0.000012  -0.000029
     21       0.011816   0.001916  -0.006015   0.001539   0.000292   0.000261
     22      -0.497974  -0.174069   0.134402  -0.027648   0.000165  -0.000245
     23       0.132180   0.046733  -0.034967   0.007607   0.000044   0.000136
     24       0.006330  -0.019811  -0.001066   0.001583   0.002220   0.000508
     25      -0.021454   0.073229   0.002687  -0.004486  -0.000252  -0.002000
     26      -0.010610   0.035781   0.002704  -0.003320   0.002389  -0.000718
     27      -0.001116   0.007337   0.002487  -0.000192  -0.001419  -0.001000
     28      -0.039541  -0.235367   0.015396   0.001428  -0.001335  -0.001192
     29       0.009742   0.067824  -0.005174  -0.000759  -0.000817  -0.000661
     30      -0.025578   0.097139  -0.002461  -0.004517  -0.002276   0.001644
     31       0.035164  -0.135000   0.003245   0.006142   0.000868  -0.000834
     32       0.056292  -0.212220   0.003159   0.009618  -0.000133  -0.000111
     33      -0.000155   0.000458   0.000008  -0.000109  -0.023524   0.016159
     34       0.000375  -0.001695  -0.000056   0.000158  -0.021030  -0.074850
     35       0.000227  -0.000777  -0.000137   0.000171   0.048275  -0.025465
     36       0.000822   0.005181  -0.000914   0.000010  -0.002458  -0.000169
     37       0.138386  -0.482428  -0.008224   0.021858   0.007487   0.010654
     38      -0.042163   0.151879   0.002610  -0.007034  -0.001434  -0.001618
     39      -0.069993   0.234305   0.015450  -0.019214   0.000623  -0.004061
     40       0.115200  -0.384543  -0.024044   0.031269  -0.005802   0.007447
     41       0.171555  -0.572197  -0.034875   0.047001  -0.006129   0.008055
     42       0.000682  -0.005500   0.000200   0.000281   0.028786   0.028830
     43      -0.002646   0.007620   0.000166  -0.000401   0.680141   0.688350
     44       0.001018  -0.003307  -0.000045   0.000094  -0.150659  -0.185907
     45      -0.000427   0.001816   0.000020  -0.000120   0.269491  -0.254871
     46      -0.001824   0.006825   0.000672  -0.000998  -0.389193   0.355467
     47      -0.003129   0.010104   0.000908  -0.000909  -0.535070   0.541007


-----------
IR SPECTRUM
-----------

 Mode   freq       eps      Int      T**2         TX        TY        TZ
       cm**-1   L/(mol*cm) km/mol    a.u.
----------------------------------------------------------------------------
  6:    101.29   0.000256    1.30  0.000790  (-0.008601  0.024813  0.010011)
  7:    133.40   0.000034    0.17  0.000079  ( 0.002133 -0.008266 -0.002418)
  8:    213.52   0.000284    1.44  0.000415  ( 0.018468  0.008146 -0.002781)
  9:    287.35   0.002463   12.45  0.002675  (-0.004435 -0.049977 -0.012550)
 10:    307.77   0.007473   37.77  0.007578  (-0.023782  0.078135  0.030118)
 11:    351.22   0.000386    1.95  0.000343  (-0.016156 -0.008670  0.002682)
 12:    491.17   0.000658    3.32  0.000418  ( 0.019324  0.006469  0.001651)
 13:    749.92   0.000483    2.44  0.000201  ( 0.006838 -0.011845  0.003751)
 14:    788.85   0.000376    1.90  0.000149  (-0.009671 -0.003457  0.006583)
 15:    853.11   0.031699  160.20  0.011595  ( 0.099144  0.003030  0.041913)
 16:    913.83   0.006920   34.97  0.002363  ( 0.043021  0.007150  0.021479)
 17:    935.15   0.000315    1.59  0.000105  (-0.008994  0.003115  0.003822)
 18:    990.47   0.001930    9.75  0.000608  (-0.016373  0.003063 -0.018183)
 19:   1051.12   0.000095    0.48  0.000028  ( 0.002460  0.004708  0.000011)
 20:   1108.70   0.000080    0.40  0.000022  ( 0.004677  0.000215  0.000685)
 21:   1128.87   0.005255   26.55  0.001453  ( 0.036424  0.003177  0.010759)
 22:   1163.29   0.001003    5.07  0.000269  (-0.012877 -0.004469  0.009125)
 23:   1209.79   0.000189    0.96  0.000049  ( 0.003804  0.005465 -0.002099)
 24:   1284.26   0.000248    1.25  0.000060  ( 0.007675 -0.000642  0.000995)
 25:   1310.33   0.000180    0.91  0.000043  (-0.002325  0.005642  0.002369)
 26:   1339.34   0.001135    5.73  0.000264  (-0.015658 -0.002833 -0.003347)
 27:   1376.99   0.000051    0.26  0.000012  (-0.000551 -0.000162  0.003365)
 28:   1384.48   0.000204    1.03  0.000046  ( 0.004857  0.004690 -0.000692)
 29:   1419.74   0.001202    6.08  0.000264  ( 0.004672 -0.010712 -0.011302)
 30:   1422.61   0.002006   10.14  0.000440  ( 0.020957  0.000082  0.000848)
 31:   1463.55   0.000078    0.39  0.000017  (-0.002989 -0.002730 -0.000491)
 32:   1471.63   0.000173    0.87  0.000037  ( 0.002266  0.005499  0.001114)
 33:   1479.27   0.001277    6.45  0.000269  (-0.001604  0.010583 -0.012445)
 34:   1485.13   0.000673    3.40  0.000142  (-0.001769  0.003162 -0.011331)
 35:   1486.78   0.001257    6.35  0.000264  ( 0.012906  0.009864 -0.000027)
 36:   1651.10   0.004303   21.74  0.000813  ( 0.013107  0.011407 -0.022612)
 37:   3042.18   0.005414   27.36  0.000555  ( 0.010899  0.011967 -0.017126)
 38:   3060.43   0.006817   34.45  0.000695  ( 0.005652  0.016339 -0.019905)
 39:   3061.24   0.006591   33.31  0.000672  (-0.000818 -0.019671 -0.016860)
 40:   3063.81   0.003897   19.69  0.000397  ( 0.015867  0.004200 -0.011293)
 41:   3093.70   0.003230   16.32  0.000326  (-0.002655  0.015654  0.008586)
 42:   3114.64   0.003759   19.00  0.000377  (-0.005803  0.002666 -0.018325)
 43:   3122.10   0.010753   54.34  0.001075  (-0.011961  0.029429  0.008102)
 44:   3155.81   0.005983   30.23  0.000592  (-0.002602 -0.018719  0.015311)
 45:   3165.20   0.005389   27.23  0.000531  (-0.019718 -0.003684 -0.011355)
 46:   3554.40   0.000036    0.18  0.000003  (-0.001075  0.000367 -0.001366)
 47:   3635.78   0.000223    1.13  0.000019  (-0.000743  0.004092  0.001369)

* The epsilon (eps) is given for a Dirac delta lineshape.
** The dipole moment derivative (T) already includes vibrational overlap.

The first frequency considered to be a vibration is 6
The total number of vibrations considered is 42


--------------------------
THERMOCHEMISTRY AT 298.15K
--------------------------

Temperature         ... 298.15 K
Pressure            ... 1.00 atm
Total Mass          ... 73.14 AMU

Throughout the following assumptions are being made:
  (1) The electronic state is orbitally nondegenerate
  (2) There are no thermally accessible electronically excited states
  (3) Hindered rotations indicated by low frequency modes are not
      treated as such but are treated as vibrations and this may
      cause some error
  (4) All equations used are the standard statistical mechanics
      equations for an ideal gas
  (5) All vibrations are strictly harmonic

freq.     101.29  E(vib)   ...       0.46 
freq.     133.40  E(vib)   ...       0.42 
freq.     213.52  E(vib)   ...       0.34 
freq.     287.35  E(vib)   ...       0.27 
freq.     307.77  E(vib)   ...       0.26 
freq.     351.22  E(vib)   ...       0.23 
freq.     491.17  E(vib)   ...       0.14 
freq.     749.92  E(vib)   ...       0.06 
freq.     788.85  E(vib)   ...       0.05 
freq.     853.11  E(vib)   ...       0.04 
freq.     913.83  E(vib)   ...       0.03 
freq.     935.15  E(vib)   ...       0.03 
freq.     990.47  E(vib)   ...       0.02 
freq.    1051.12  E(vib)   ...       0.02 
freq.    1108.70  E(vib)   ...       0.02 
freq.    1128.87  E(vib)   ...       0.01 
freq.    1163.29  E(vib)   ...       0.01 
freq.    1209.79  E(vib)   ...       0.01 
freq.    1284.26  E(vib)   ...       0.01 
freq.    1310.33  E(vib)   ...       0.01 
freq.    1339.34  E(vib)   ...       0.01 
freq.    1376.99  E(vib)   ...       0.01 
freq.    1384.48  E(vib)   ...       0.00 
freq.    1419.74  E(vib)   ...       0.00 
freq.    1422.61  E(vib)   ...       0.00 
freq.    1463.55  E(vib)   ...       0.00 
freq.    1471.63  E(vib)   ...       0.00 
freq.    1479.27  E(vib)   ...       0.00 
freq.    1485.13  E(vib)   ...       0.00 
freq.    1486.78  E(vib)   ...       0.00 
freq.    1651.10  E(vib)   ...       0.00 
freq.    3042.18  E(vib)   ...       0.00 
freq.    3060.43  E(vib)   ...       0.00 
freq.    3061.24  E(vib)   ...       0.00 
freq.    3063.81  E(vib)   ...       0.00 
freq.    3093.70  E(vib)   ...       0.00 
freq.    3114.64  E(vib)   ...       0.00 
freq.    3122.10  E(vib)   ...       0.00 
freq.    3155.81  E(vib)   ...       0.00 
freq.    3165.20  E(vib)   ...       0.00 
freq.    3554.40  E(vib)   ...       0.00 
freq.    3635.78  E(vib)   ...       0.00 

------------
INNER ENERGY
------------

The inner energy is: U= E(el) + E(ZPE) + E(vib) + E(rot) + E(trans)
    E(el)   - is the total energy from the electronic structure calculation
              = E(kin-el) + E(nuc-el) + E(el-el) + E(nuc-nuc)
    E(ZPE)  - the the zero temperature vibrational energy from the frequency calculation
    E(vib)  - the the finite temperature correction to E(ZPE) due to population
              of excited vibrational states
    E(rot)  - is the rotational thermal energy
    E(trans)- is the translational thermal energy

Summary of contributions to the inner energy U:
Electronic energy                ...   -213.58985109 Eh
Zero point energy                ...      0.15132339 Eh      94.96 kcal/mol
Thermal vibrational correction   ...      0.00396286 Eh       2.49 kcal/mol
Thermal rotational correction    ...      0.00141627 Eh       0.89 kcal/mol
Thermal translational correction ...      0.00141627 Eh       0.89 kcal/mol
-----------------------------------------------------------------------
Total thermal energy                   -213.43173230 Eh


Summary of corrections to the electronic energy:
(perhaps to be used in another calculation)
Total thermal correction                  0.00679540 Eh       4.26 kcal/mol
Non-thermal (ZPE) correction              0.15132339 Eh      94.96 kcal/mol
-----------------------------------------------------------------------
Total correction                          0.15811879 Eh      99.22 kcal/mol


--------
ENTHALPY
--------

The enthalpy is H = U + kB*T
                kB is Boltzmann's constant
Total free energy                 ...   -213.43173230 Eh 
Thermal Enthalpy correction       ...      0.00094421 Eh       0.59 kcal/mol
-----------------------------------------------------------------------
Total Enthalpy                    ...   -213.43078809 Eh


Note: Only C1 symmetry has been detected, increase convergence thresholds 
      if your molecule has a higher symmetry. Symmetry factor of 1.0 is   
      used for the rotational entropy correction. 
 

Note: Rotational entropy computed according to Herzberg 
Infrared and Raman Spectra, Chapter V,1, Van Nostrand Reinhold, 1945 
Point Group:  C1, Symmetry Number:   1  
Rotational constants in cm-1:     0.400807     0.076987     0.071080 

Vibrational entropy computed according to the QRRHO of S. Grimme
Chem.Eur.J. 2012 18 9955


-------
ENTROPY
-------

The entropy contributions are T*S = T*(S(el)+S(vib)+S(rot)+S(trans))
     S(el)   - electronic entropy
     S(vib)  - vibrational entropy
     S(rot)  - rotational entropy
     S(trans)- translational entropy
The entropies will be listed as multiplied by the temperature to get
units of energy

Electronic entropy                ...      0.00000000 Eh      0.00 kcal/mol
Vibrational entropy               ...      0.00674021 Eh      4.23 kcal/mol
Rotational entropy                ...      0.01240112 Eh      7.78 kcal/mol
Translational entropy             ...      0.01842822 Eh     11.56 kcal/mol
-----------------------------------------------------------------------
Final entropy term                ...      0.03756955 Eh     23.58 kcal/mol

In case the symmetry of your molecule has not been determined correctly
or in case you have a reason to use a different symmetry number we print 
out the resulting rotational entropy values for sn=1,12 :
 --------------------------------------------------------
|  sn= 1 | S(rot)=       0.01240112 Eh      7.78 kcal/mol|
|  sn= 2 | S(rot)=       0.01174666 Eh      7.37 kcal/mol|
|  sn= 3 | S(rot)=       0.01136383 Eh      7.13 kcal/mol|
|  sn= 4 | S(rot)=       0.01109220 Eh      6.96 kcal/mol|
|  sn= 5 | S(rot)=       0.01088152 Eh      6.83 kcal/mol|
|  sn= 6 | S(rot)=       0.01070937 Eh      6.72 kcal/mol|
|  sn= 7 | S(rot)=       0.01056382 Eh      6.63 kcal/mol|
|  sn= 8 | S(rot)=       0.01043775 Eh      6.55 kcal/mol|
|  sn= 9 | S(rot)=       0.01032654 Eh      6.48 kcal/mol|
|  sn=10 | S(rot)=       0.01022706 Eh      6.42 kcal/mol|
|  sn=11 | S(rot)=       0.01013707 Eh      6.36 kcal/mol|
|  sn=12 | S(rot)=       0.01005491 Eh      6.31 kcal/mol|
 --------------------------------------------------------


-------------------
GIBBS FREE ENERGY
-------------------

The Gibbs free energy is G = H - T*S

Total enthalpy                    ...   -213.43078809 Eh 
Total entropy correction          ...     -0.03756955 Eh    -23.58 kcal/mol
-----------------------------------------------------------------------
Final Gibbs free energy         ...   -213.46835764 Eh

For completeness - the Gibbs free energy minus the electronic energy
G-E(el)                           ...      0.12149346 Eh     76.24 kcal/mol


Timings for individual modules:

Sum of individual times         ...      210.780 sec (=   3.513 min)
GTO integral calculation        ...        5.007 sec (=   0.083 min)   2.4 %
SCF iterations                  ...      105.383 sec (=   1.756 min)  50.0 %
SCF Gradient evaluation         ...       26.561 sec (=   0.443 min)  12.6 %
Geometry relaxation             ...        0.460 sec (=   0.008 min)   0.2 %
Analytical frequency calculation...       73.370 sec (=   1.223 min)  34.8 %
                             ****ORCA TERMINATED NORMALLY****
TOTAL RUN TIME: 0 days 0 hours 3 minutes 33 seconds 893 msec
