
                                 *****************
                                 * O   R   C   A *
                                 *****************

                                            #,                                       
                                            ###                                      
                                            ####                                     
                                            #####                                    
                                            ######                                   
                                           ########,                                 
                                     ,,################,,,,,                         
                               ,,#################################,,                 
                          ,,##########################################,,             
                       ,#########################################, ''#####,          
                    ,#############################################,,   '####,        
                  ,##################################################,,,,####,       
                ,###########''''           ''''###############################       
              ,#####''   ,,,,##########,,,,          '''####'''          '####       
            ,##' ,,,,###########################,,,                        '##       
           ' ,,###''''                  '''############,,,                           
         ,,##''                                '''############,,,,        ,,,,,,###''
      ,#''                                            '''#######################'''  
     '                                                          ''''####''''         
             ,#######,   #######,   ,#######,      ##                                
            ,#'     '#,  ##    ##  ,#'     '#,    #''#        ######   ,####,        
            ##       ##  ##   ,#'  ##            #'  '#       #        #'  '#        
            ##       ##  #######   ##           ,######,      #####,   #    #        
            '#,     ,#'  ##    ##  '#,     ,#' ,#      #,         ##   #,  ,#        
             '#######'   ##     ##  '#######'  #'      '#     #####' # '####'        



                  #######################################################
                  #                        -***-                        #
                  #          Department of theory and spectroscopy      #
                  #    Directorship and core code : Frank Neese         #
                  #        Max Planck Institute fuer Kohlenforschung    #
                  #                Kaiser Wilhelm Platz 1               #
                  #                 D-45470 Muelheim/Ruhr               #
                  #                      Germany                        #
                  #                                                     #
                  #                  All rights reserved                #
                  #                        -***-                        #
                  #######################################################


                         Program Version 5.0.4 -  RELEASE  -


 With contributions from (in alphabetic order):
   Daniel Aravena         : Magnetic Suceptibility
   Michael Atanasov       : Ab Initio Ligand Field Theory (pilot matlab implementation)
   Alexander A. Auer      : GIAO ZORA, VPT2 properties, NMR spectrum
   Ute Becker             : Parallelization
   Giovanni Bistoni       : ED, misc. LED, open-shell LED, HFLD
   Martin Brehm           : Molecular dynamics
   Dmytro Bykov           : SCF Hessian
   Vijay G. Chilkuri      : MRCI spin determinant printing, contributions to CSF-ICE
   Dipayan Datta          : RHF DLPNO-CCSD density
   Achintya Kumar Dutta   : EOM-CC, STEOM-CC
   Dmitry Ganyushin       : Spin-Orbit,Spin-Spin,Magnetic field MRCI
   Miquel Garcia          : C-PCM and meta-GGA Hessian, CC/C-PCM, Gaussian charge scheme
   Yang Guo               : DLPNO-NEVPT2, F12-NEVPT2, CIM, IAO-localization
   Andreas Hansen         : Spin unrestricted coupled pair/coupled cluster methods
   Benjamin Helmich-Paris : MC-RPA, TRAH-SCF, COSX integrals
   Lee Huntington         : MR-EOM, pCC
   Robert Izsak           : Overlap fitted RIJCOSX, COSX-SCS-MP3, EOM
   Marcus Kettner         : VPT2
   Christian Kollmar      : KDIIS, OOCD, Brueckner-CCSD(T), CCSD density, CASPT2, CASPT2-K
   Simone Kossmann        : Meta GGA functionals, TD-DFT gradient, OOMP2, MP2 Hessian
   Martin Krupicka        : Initial AUTO-CI
   Lucas Lang             : DCDCAS
   Marvin Lechner         : AUTO-CI (C++ implementation), FIC-MRCC
   Dagmar Lenk            : GEPOL surface, SMD
   Dimitrios Liakos       : Extrapolation schemes; Compound Job, initial MDCI parallelization
   Dimitrios Manganas     : Further ROCIS development; embedding schemes
   Dimitrios Pantazis     : SARC Basis sets
   Anastasios Papadopoulos: AUTO-CI, single reference methods and gradients
   Taras Petrenko         : DFT Hessian,TD-DFT gradient, ASA, ECA, R-Raman, ABS, FL, XAS/XES, NRVS
   Peter Pinski           : DLPNO-MP2, DLPNO-MP2 Gradient
   Christoph Reimann      : Effective Core Potentials
   Marius Retegan         : Local ZFS, SOC
   Christoph Riplinger    : Optimizer, TS searches, QM/MM, DLPNO-CCSD(T), (RO)-DLPNO pert. Triples
   Tobias Risthaus        : Range-separated hybrids, TD-DFT gradient, RPA, STAB
   Michael Roemelt        : Original ROCIS implementation
   Masaaki Saitow         : Open-shell DLPNO-CCSD energy and density
   Barbara Sandhoefer     : DKH picture change effects
   Avijit Sen             : IP-ROCIS
   Kantharuban Sivalingam : CASSCF convergence, NEVPT2, FIC-MRCI
   Bernardo de Souza      : ESD, SOC TD-DFT
   Georgi Stoychev        : AutoAux, RI-MP2 NMR, DLPNO-MP2 response
   Willem Van den Heuvel  : Paramagnetic NMR
   Boris Wezisla          : Elementary symmetry handling
   Frank Wennmohs         : Technical directorship


 We gratefully acknowledge several colleagues who have allowed us to
 interface, adapt or use parts of their codes:
   Stefan Grimme, W. Hujo, H. Kruse, P. Pracht,  : VdW corrections, initial TS optimization,
                  C. Bannwarth, S. Ehlert          DFT functionals, gCP, sTDA/sTD-DF
   Ed Valeev, F. Pavosevic, A. Kumar             : LibInt (2-el integral package), F12 methods
   Garnet Chan, S. Sharma, J. Yang, R. Olivares  : DMRG
   Ulf Ekstrom                                   : XCFun DFT Library
   Mihaly Kallay                                 : mrcc  (arbitrary order and MRCC methods)
   Jiri Pittner, Ondrej Demel                    : Mk-CCSD
   Frank Weinhold                                : gennbo (NPA and NBO analysis)
   Christopher J. Cramer and Donald G. Truhlar   : smd solvation model
   Lars Goerigk                                  : TD-DFT with DH, B97 family of functionals
   V. Asgeirsson, H. Jonsson                     : NEB implementation
   FAccTs GmbH                                   : IRC, NEB, NEB-TS, DLPNO-Multilevel, CI-OPT
                                                   MM, QMMM, 2- and 3-layer-ONIOM, Crystal-QMMM,
                                                   LR-CPCM, SF, NACMEs, symmetry and pop. for TD-DFT,
                                                   nearIR, NL-DFT gradient (VV10), updates on ESD,
                                                   ML-optimized integration grids
   S Lehtola, MJT Oliveira, MAL Marques          : LibXC Library
   Liviu Ungur et al                             : ANISO software


 Your calculation uses the libint2 library for the computation of 2-el integrals
 For citations please refer to: http://libint.valeyev.net

 Your ORCA version has been built with support for libXC version: 5.1.0
 For citations please refer to: https://tddft.org/programs/libxc/

 This ORCA versions uses:
   CBLAS   interface :  Fast vector & matrix operations
   LAPACKE interface :  Fast linear algebra routines
   SCALAPACK package :  Parallel linear algebra routines
   Shared memory     :  Shared parallel matrices
   BLAS/LAPACK       :  OpenBLAS 0.3.15  USE64BITINT DYNAMIC_ARCH NO_AFFINITY SkylakeX SINGLE_THREADED
        Core in use  :  SkylakeX
   Copyright (c) 2011-2014, The OpenBLAS Project




***************************************
The coordinates will be read from file: butylamine_deprot_aq_10.xyz
***************************************


Your calculation utilizes the atom-pairwise dispersion correction
based on tight binding partial charges (D4)
Cite in your paper:
E.Caldeweyher, C.Bannwarth, S.Grimme, J.Chem.Phys., (2017), 147, 034112.
E.Caldeweyher, S.Ehlert, A.Hansen, H.Neugebauer, S.Grimme, J.Chem.Phys., (2018), in progress.
   

XCFun DFT library Copyright 2009-2010 Ulf Ekstrom and contributors.
See http://admol.org/xcfun for more information.
This is free software; see the source code for copying conditions.
There is ABSOLUTELY NO WARRANTY; not even for MERCHANTABILITY or FITNESS FOR A PARTICULAR PURPOSE.
For details see the documentation.
Scientific users of this library should cite U. Ekstrom, L. Visscher, R. Bast, A. J. Thorvaldsen and K. Ruud;
J.Chem.Theor.Comp. 2010, DOI: 10.1021/ct100117s
XCFun Version 0.99 

================================================================================

----- Orbital basis set information -----
Your calculation utilizes the basis: def2-SVP
   F. Weigend and R. Ahlrichs, Phys. Chem. Chem. Phys. 7, 3297 (2005).

----- AuxJ basis set information -----
Your calculation utilizes the auxiliary basis: def2/J
   F. Weigend, Phys. Chem. Chem. Phys. 8, 1057 (2006).

================================================================================
                                        WARNINGS
                       Please study these warnings very carefully!
================================================================================

WARNING: Old DensityContainer found on disk!
         Will remove this file - 
         If you want to keep old densities, please start your calculation with a different basename. 


WARNING: Geometry Optimization
  ===> : Switching off AutoStart
         For restart on a previous wavefunction, please use MOREAD

INFO   : the flag for use of the SHARK integral package has been found!

================================================================================
                                       INPUT FILE
================================================================================
NAME = butylamine_deprot_aq_10.inp
|  1> # ORCA 5.0.4 - /users/bwb16179/postgrad/2024_06/pKa_Reviewer_Comments/CREST_Confs/butylamine/butylamine_deprot_aq_10.inp # write input file
|  2> # Basic Mode
|  3> #
|  4> ! Opt Freq wB97X Def2-SVP D4 SlowConv TightSCF Defgrid2 Def2/J RIJCOSX 
|  5> 
|  6> %PAL NPROCS 4 END
|  7> 
|  8> %maxcore 4500
|  9> 
| 10> %geom
| 11> Maxiter 150
| 12> END
| 13> 
| 14> * xyzfile 0 1 butylamine_deprot_aq_10.xyz
| 15> 
| 16>                          ****END OF INPUT****
================================================================================

                       *****************************
                       * Geometry Optimization Run *
                       *****************************

Geometry optimization settings:
Update method            Update   .... BFGS
Choice of coordinates    CoordSys .... Z-matrix Internals
Initial Hessian          InHess   .... Almoef's Model

Convergence Tolerances:
Energy Change            TolE     ....  5.0000e-06 Eh
Max. Gradient            TolMAXG  ....  3.0000e-04 Eh/bohr
RMS Gradient             TolRMSG  ....  1.0000e-04 Eh/bohr
Max. Displacement        TolMAXD  ....  4.0000e-03 bohr
RMS Displacement         TolRMSD  ....  2.0000e-03 bohr
Strict Convergence                ....  False
------------------------------------------------------------------------------
                        ORCA OPTIMIZATION COORDINATE SETUP
------------------------------------------------------------------------------

The optimization will be done in new redundant internal coordinates
Making redundant internal coordinates   ...  (new redundants) done
Evaluating the initial hessian          ...  (Almloef) done
Evaluating the coordinates              ...  done
Calculating the B-matrix                .... done
Calculating the G-matrix                .... done
Diagonalizing the G-matrix              .... done
The first mode is                       ....   33
The number of degrees of freedom        ....   42

    -----------------------------------------------------------------
                    Redundant Internal Coordinates


    -----------------------------------------------------------------
         Definition                    Initial Value    Approx d2E/dq
    -----------------------------------------------------------------
      1. B(C   1,C   0)                  1.5242         0.381583   
      2. B(H   2,C   0)                  1.1040         0.342028   
      3. B(H   3,C   0)                  1.1028         0.343496   
      4. B(H   4,C   0)                  1.1018         0.344874   
      5. B(C   5,C   1)                  1.5288         0.375181   
      6. B(H   6,C   1)                  1.1040         0.342087   
      7. B(H   7,C   1)                  1.1030         0.343257   
      8. B(C   8,C   5)                  1.5263         0.378736   
      9. B(H   9,C   5)                  1.1059         0.339638   
     10. B(H  10,C   5)                  1.1067         0.338668   
     11. B(N  11,C   8)                  1.4536         0.442995   
     12. B(H  12,C   8)                  1.1049         0.340952   
     13. B(H  13,C   8)                  1.1108         0.333620   
     14. B(H  14,N  11)                  1.0169         0.421853   
     15. B(H  15,N  11)                  1.0190         0.418618   
     16. A(H   3,C   0,H   4)          106.9733         0.286751   
     17. A(C   1,C   0,H   4)          111.4021         0.323150   
     18. A(C   1,C   0,H   2)          111.4412         0.322712   
     19. A(H   2,C   0,H   3)          107.4737         0.286381   
     20. A(H   2,C   0,H   4)          107.5232         0.286560   
     21. A(C   1,C   0,H   3)          111.7826         0.322938   
     22. A(C   0,C   1,C   5)          113.8795         0.364940   
     23. A(H   6,C   1,H   7)          106.5326         0.286357   
     24. A(C   5,C   1,H   7)          108.2530         0.322007   
     25. A(C   0,C   1,H   7)          109.5091         0.322901   
     26. A(C   5,C   1,H   6)          109.0133         0.321827   
     27. A(C   0,C   1,H   6)          109.3900         0.322721   
     28. A(C   8,C   5,H   9)          108.5545         0.321946   
     29. A(C   1,C   5,H   9)          109.9097         0.321449   
     30. A(C   1,C   5,C   8)          114.6261         0.364472   
     31. A(H   9,C   5,H  10)          105.4962         0.285437   
     32. A(C   8,C   5,H  10)          108.4019         0.321795   
     33. A(C   1,C   5,H  10)          109.4458         0.321299   
     34. A(H  12,C   8,H  13)          105.7060         0.284942   
     35. A(N  11,C   8,H  13)          114.0838         0.327404   
     36. A(C   5,C   8,H  13)          108.4894         0.321005   
     37. A(N  11,C   8,H  12)          108.0446         0.328580   
     38. A(C   5,C   8,H  12)          109.1972         0.322149   
     39. A(C   5,C   8,N  11)          111.1022         0.372675   
     40. A(H  14,N  11,H  15)          106.3212         0.300438   
     41. A(C   8,N  11,H  15)          110.1853         0.337046   
     42. A(C   8,N  11,H  14)          111.1396         0.337479   
     43. D(H   6,C   1,C   0,H   4)     56.5320         0.011600   
     44. D(C   5,C   1,C   0,H   3)    -61.6016         0.011600   
     45. D(H   7,C   1,C   0,H   3)     59.7474         0.011600   
     46. D(H   6,C   1,C   0,H   2)    -63.5581         0.011600   
     47. D(C   5,C   1,C   0,H   4)    178.7760         0.011600   
     48. D(H   6,C   1,C   0,H   3)    176.1544         0.011600   
     49. D(H   7,C   1,C   0,H   4)    -59.8751         0.011600   
     50. D(C   5,C   1,C   0,H   2)     58.6860         0.011600   
     51. D(H   7,C   1,C   0,H   2)   -179.9651         0.011600   
     52. D(H   9,C   5,C   1,H   6)     67.2477         0.011234   
     53. D(C   8,C   5,C   1,H   7)    -54.6789         0.011234   
     54. D(C   8,C   5,C   1,H   6)   -170.1831         0.011234   
     55. D(C   8,C   5,C   1,C   0)     67.3656         0.011234   
     56. D(H   9,C   5,C   1,H   7)   -177.2481         0.011234   
     57. D(H  10,C   5,C   1,H   7)     67.3339         0.011234   
     58. D(H  10,C   5,C   1,H   6)    -48.1703         0.011234   
     59. D(H  10,C   5,C   1,C   0)   -170.6215         0.011234   
     60. D(H   9,C   5,C   1,C   0)    -55.2036         0.011234   
     61. D(H  13,C   8,C   5,H   9)    -51.0933         0.011436   
     62. D(H  13,C   8,C   5,C   1)   -174.3923         0.011436   
     63. D(H  12,C   8,C   5,H  10)    177.7793         0.011436   
     64. D(H  12,C   8,C   5,H   9)     63.6574         0.011436   
     65. D(H  12,C   8,C   5,C   1)    -59.6416         0.011436   
     66. D(N  11,C   8,C   5,H  10)    -63.1465         0.011436   
     67. D(N  11,C   8,C   5,H   9)   -177.2685         0.011436   
     68. D(H  13,C   8,C   5,H  10)     63.0287         0.011436   
     69. D(N  11,C   8,C   5,C   1)     59.4325         0.011436   
     70. D(H  15,N  11,C   8,C   5)     65.5386         0.016736   
     71. D(H  14,N  11,C   8,H  13)     60.1170         0.016736   
     72. D(H  14,N  11,C   8,H  12)    -57.1068         0.016736   
     73. D(H  14,N  11,C   8,C   5)   -176.8697         0.016736   
     74. D(H  15,N  11,C   8,H  13)    -57.4746         0.016736   
     75. D(H  15,N  11,C   8,H  12)   -174.6985         0.016736   
    -----------------------------------------------------------------

Number of atoms                         .... 16
Number of degrees of freedom            .... 75

         *************************************************************
         *                GEOMETRY OPTIMIZATION CYCLE   1            *
         *************************************************************
---------------------------------
CARTESIAN COORDINATES (ANGSTROEM)
---------------------------------
  C     -1.938435    0.708363   -0.164037
  C     -1.100533   -0.293565    0.621665
  H     -2.446230    0.227668   -1.018395
  H     -1.323164    1.531234   -0.564789
  H     -2.715410    1.166413    0.468716
  C     -0.021792   -0.986187   -0.211353
  H     -1.762488   -1.059749    1.061580
  H     -0.609221    0.218927    1.465857
  C      1.101397   -0.068707   -0.686918
  H     -0.479971   -1.468606   -1.094763
  H      0.425501   -1.810112    0.376753
  N      1.785903    0.546986    0.437956
  H      0.673095    0.737207   -1.309659
  H      1.767669   -0.647827   -1.361128
  H      2.500393    1.197510    0.121034
  H      2.268299   -0.162862    0.987314

----------------------------
CARTESIAN COORDINATES (A.U.)
----------------------------
  NO LB      ZA    FRAG     MASS         X           Y           Z
   0 C     6.0000    0    12.011   -3.663111    1.338612   -0.309984
   1 C     6.0000    0    12.011   -2.079707   -0.554758    1.174776
   2 H     1.0000    0     1.008   -4.622706    0.430230   -1.924487
   3 H     1.0000    0     1.008   -2.500417    2.893613   -1.067297
   4 H     1.0000    0     1.008   -5.131380    2.204201    0.885745
   5 C     6.0000    0    12.011   -0.041180   -1.863623   -0.399399
   6 H     1.0000    0     1.008   -3.330620   -2.002635    2.006096
   7 H     1.0000    0     1.008   -1.151260    0.413712    2.770068
   8 C     6.0000    0    12.011    2.081338   -0.129837   -1.298086
   9 H     1.0000    0     1.008   -0.907014   -2.775262   -2.068802
  10 H     1.0000    0     1.008    0.804080   -3.420616    0.711960
  11 N     7.0000    0    14.007    3.374867    1.033654    0.827617
  12 H     1.0000    0     1.008    1.271965    1.393119   -2.474897
  13 H     1.0000    0     1.008    3.340410   -1.224215   -2.572158
  14 H     1.0000    0     1.008    4.725058    2.262966    0.228720
  15 H     1.0000    0     1.008    4.286464   -0.307764    1.865753

--------------------------------
INTERNAL COORDINATES (ANGSTROEM)
--------------------------------
 C      0   0   0     0.000000000000     0.00000000     0.00000000
 C      1   0   0     1.524226386283     0.00000000     0.00000000
 H      1   2   0     1.104016041201   111.44121745     0.00000000
 H      1   2   3     1.102849858288   111.78259326   239.71247602
 H      1   2   3     1.101760283040   111.40210163   120.09006884
 C      2   1   3     1.528831816237   113.87951374    58.68596618
 H      2   1   3     1.103968885966   109.39001879   296.44188588
 H      2   1   3     1.103039748245   109.50905425   180.03487756
 C      6   2   1     1.526264723693   114.62610141    67.36564250
 H      6   2   1     1.105924848978   109.90966495   304.79644612
 H      6   2   1     1.106703020786   109.44579024   189.37845398
 N      9   6   2     1.453604535721   111.10224354    59.43249475
 H      9   6   2     1.104873752575   109.19723263   300.35835348
 H      9   6   2     1.110791320721   108.48938538   185.60767645
 H     12   9   6     1.016916061422   111.13962412   183.13025847
 H     12   9   6     1.019011438976   110.18534796    65.53862073

---------------------------
INTERNAL COORDINATES (A.U.)
---------------------------
 C      0   0   0     0.000000000000     0.00000000     0.00000000
 C      1   0   0     2.880370436171     0.00000000     0.00000000
 H      1   2   0     2.086287965326   111.44121745     0.00000000
 H      1   2   3     2.084084198998   111.78259326   239.71247602
 H      1   2   3     2.082025200177   111.40210163   120.09006884
 C      2   1   3     2.889073437514   113.87951374    58.68596618
 H      2   1   3     2.086198854845   109.39001879   296.44188588
 H      2   1   3     2.084443039012   109.50905425   180.03487756
 C      6   2   1     2.884222335645   114.62610141    67.36564250
 H      6   2   1     2.089895089267   109.90966495   304.79644612
 H      6   2   1     2.091365620868   109.44579024   189.37845398
 N      9   6   2     2.746914479538   111.10224354    59.43249475
 H      9   6   2     2.087908804925   109.19723263   300.35835348
 H      9   6   2     2.099091388100   108.48938538   185.60767645
 H     12   9   6     1.921692857273   111.13962412   183.13025847
 H     12   9   6     1.925652546997   110.18534796    65.53862073

---------------------
BASIS SET INFORMATION
---------------------
There are 3 groups of distinct atoms

 Group   1 Type C   : 7s4p1d contracted to 3s2p1d pattern {511/31/1}
 Group   2 Type H   : 4s1p contracted to 2s1p pattern {31/1}
 Group   3 Type N   : 7s4p1d contracted to 3s2p1d pattern {511/31/1}

Atom   0C    basis set group =>   1
Atom   1C    basis set group =>   1
Atom   2H    basis set group =>   2
Atom   3H    basis set group =>   2
Atom   4H    basis set group =>   2
Atom   5C    basis set group =>   1
Atom   6H    basis set group =>   2
Atom   7H    basis set group =>   2
Atom   8C    basis set group =>   1
Atom   9H    basis set group =>   2
Atom  10H    basis set group =>   2
Atom  11N    basis set group =>   3
Atom  12H    basis set group =>   2
Atom  13H    basis set group =>   2
Atom  14H    basis set group =>   2
Atom  15H    basis set group =>   2
---------------------------------
AUXILIARY/J BASIS SET INFORMATION
---------------------------------
There are 3 groups of distinct atoms

 Group   1 Type C   : 12s5p4d2f1g contracted to 6s4p3d1f1g pattern {711111/2111/211/2/1}
 Group   2 Type H   : 5s2p1d contracted to 3s1p1d pattern {311/2/1}
 Group   3 Type N   : 12s5p4d2f1g contracted to 6s4p3d1f1g pattern {711111/2111/211/2/1}

Atom   0C    basis set group =>   1
Atom   1C    basis set group =>   1
Atom   2H    basis set group =>   2
Atom   3H    basis set group =>   2
Atom   4H    basis set group =>   2
Atom   5C    basis set group =>   1
Atom   6H    basis set group =>   2
Atom   7H    basis set group =>   2
Atom   8C    basis set group =>   1
Atom   9H    basis set group =>   2
Atom  10H    basis set group =>   2
Atom  11N    basis set group =>   3
Atom  12H    basis set group =>   2
Atom  13H    basis set group =>   2
Atom  14H    basis set group =>   2
Atom  15H    basis set group =>   2


           ************************************************************
           *        Program running with 4 parallel MPI-processes     *
           *              working on a common directory               *
           ************************************************************
------------------------------------------------------------------------------
                           ORCA GTO INTEGRAL CALCULATION
                           -- RI-GTO INTEGRALS CHOSEN --
------------------------------------------------------------------------------
------------------------------------------------------------------------------
                   ___                                                        
                  /   \      - P O W E R E D   B Y -                         
                 /     \                                                     
                 |  |  |   _    _      __       _____    __    __             
                 |  |  |  | |  | |    /  \     |  _  \  |  |  /  |          
                  \  \/   | |  | |   /    \    | | | |  |  | /  /          
                 / \  \   | |__| |  /  /\  \   | |_| |  |  |/  /          
                |  |  |   |  __  | /  /__\  \  |    /   |      \           
                |  |  |   | |  | | |   __   |  |    \   |  |\   \          
                \     /   | |  | | |  |  |  |  | |\  \  |  | \   \       
                 \___/    |_|  |_| |__|  |__|  |_| \__\ |__|  \__/        
                                                                              
                      - O R C A' S   B I G   F R I E N D -                    
                                      &                                       
                       - I N T E G R A L  F E E D E R -                       
                                                                              
 v1 FN, 2020, v2 2021                                                         
------------------------------------------------------------------------------


Reading SHARK input file butylamine_deprot_aq_10.SHARKINP.tmp ... ok
----------------------
SHARK INTEGRAL PACKAGE
----------------------

Number of atoms                             ...     16
Number of basis functions                   ...    125
Number of shells                            ...     63
Maximum angular momentum                    ...      2
Integral batch strategy                     ... SHARK/LIBINT Hybrid
RI-J (if used) integral strategy            ... SPLIT-RIJ (Revised 2003 algorithm where possible)
Printlevel                                  ...      1
Contraction scheme used                     ... SEGMENTED contraction
Coulomb Range Separation                    ... NOT USED
Exchange Range Separation                   ... Long Range
   Mu parameter                             ...  0.300000
   Scaling (regular/separated)              ...  0.157706  0.842294
Finite Nucleus Model                        ... NOT USED
Auxiliary Coulomb fitting basis             ... AVAILABLE
   # of basis functions in Aux-J            ...    366
   # of shells in Aux-J                     ...    130
   Maximum angular momentum in Aux-J        ...      4
Auxiliary J/K fitting basis                 ... NOT available
Auxiliary Correlation fitting basis         ... NOT available
Auxiliary 'external' fitting basis          ... NOT available
Integral threshold                          ...     2.500000e-11
Primitive cut-off                           ...     2.500000e-12
Primitive pair pre-selection threshold      ...     2.500000e-12

Calculating pre-screening integrals         ... done (  0.2 sec) Dimension = 63
Organizing shell pair data                  ... done (  0.0 sec)
Shell pair information
Total number of shell pairs                 ...      2016
Shell pairs after pre-screening             ...      1980
Total number of primitive shell pairs       ...      6768
Primitive shell pairs kept                  ...      5270
          la=0 lb=0:    692 shell pairs
          la=1 lb=0:    761 shell pairs
          la=1 lb=1:    225 shell pairs
          la=2 lb=0:    183 shell pairs
          la=2 lb=1:    104 shell pairs
          la=2 lb=2:     15 shell pairs

Calculating one electron integrals          ... done (  0.0 sec)
Calculating RI/J V-Matrix + Cholesky decomp.... done (  0.2 sec)
Calculating Nuclear repulsion               ... done (  0.0 sec) ENN=    191.405603160532 Eh

SHARK setup successfully completed in   0.6 seconds

Maximum memory used throughout the entire GTOINT-calculation: 10.7 MB


           ************************************************************
           *        Program running with 4 parallel MPI-processes     *
           *              working on a common directory               *
           ************************************************************
-------------------------------------------------------------------------------
                                 ORCA SCF
-------------------------------------------------------------------------------

------------
SCF SETTINGS
------------
Hamiltonian:
 Density Functional     Method          .... DFT(GTOs)
 Exchange Functional    Exchange        .... WB97X
 Correlation Functional Correlation     .... WB97X
 Gradients option       PostSCFGGA      .... off
 Hybrid DFT is turned on
   Fraction HF Exchange ScalHFX         ....  0.157706
   Scaling of DF-GGA-X  ScalDFX         ....  0.000000
   Scaling of DF-GGA-C  ScalDFC         ....  1.000000
   Scaling of DF-LDA-C  ScalLDAC        ....  1.000000
   Perturbative correction              ....  0.000000
   Density functional embedding theory  .... OFF
 Long-range corrected/Screened/Range-Separated Hybrid DFT is turned on
   Amount of maximum screened exact exchange              ....  0.842294
   Range separation parameter mu (erf(mu*r12)/r12)        ....  0.300000
 RI-approximation to the Coulomb term is turned on
   Number of AuxJ basis functions       .... 366
   RIJ-COSX (HFX calculated with COS-X)).... on


General Settings:
 Integral files         IntName         .... butylamine_deprot_aq_10
 Hartree-Fock type      HFTyp           .... RHF
 Total Charge           Charge          ....    0
 Multiplicity           Mult            ....    1
 Number of Electrons    NEL             ....   42
 Basis Dimension        Dim             ....  125
 Nuclear Repulsion      ENuc            ....    191.4056031605 Eh

Convergence Acceleration:
 DIIS                   CNVDIIS         .... on
   Start iteration      DIISMaxIt       ....     0
   Startup error        DIISStart       ....  0.200000
   # of expansion vecs  DIISMaxEq       ....     5
   Bias factor          DIISBfac        ....   1.050
   Max. coefficient     DIISMaxC        ....  10.000
 Trust-Rad. Augm. Hess. CNVTRAH         .... auto
   Auto Start mean grad. ratio tolernc. ....  1.125000
   Auto Start start iteration           ....    20
   Auto Start num. interpolation iter.  ....    10
   Max. Number of Micro iterations      ....    16
   Max. Number of Macro iterations      .... Maxiter - #DIIS iter
   Number of Davidson start vectors     ....     2
   Converg. threshold I  (grad. norm)   ....   1.000e-05
   Converg. threshold II (energy diff.) ....   1.000e-08
   Grad. Scal. Fac. for Micro threshold ....   0.100
   Minimum threshold for Micro iter.    ....   0.010
   NR start threshold (gradient norm)   ....   0.001
   Initial trust radius                 ....   0.400
   Minimum AH scaling param. (alpha)    ....   1.000
   Maximum AH scaling param. (alpha)    .... 1000.000
   Orbital update algorithm             .... Taylor
   White noise on init. David. guess    .... on
   Maximum white noise                  ....   0.010
   Quad. conv. algorithm                .... NR
 SOSCF                  CNVSOSCF        .... on
   Start iteration      SOSCFMaxIt      ....   150
   Startup grad/error   SOSCFStart      ....  0.001000
 Level Shifting         CNVShift        .... on
   Level shift para.    LevelShift      ....    0.2500
   Turn off err/grad.   ShiftErr        ....    0.0000
 Zerner damping         CNVZerner       .... off
 Static damping         CNVDamp         .... on
   Fraction old density DampFac         ....    0.8500
   Max. Damping (<1)    DampMax         ....    0.9800
   Min. Damping (>=0)   DampMin         ....    0.0000
   Turn off err/grad.   DampErr         ....    0.0300
 Fernandez-Rico         CNVRico         .... off

SCF Procedure:
 Maximum # iterations   MaxIter         ....   125
 SCF integral mode      SCFMode         .... Direct
   Integral package                     .... SHARK and LIBINT hybrid scheme
 Reset frequency        DirectResetFreq ....    20
 Integral Threshold     Thresh          ....  2.500e-11 Eh
 Primitive CutOff       TCut            ....  2.500e-12 Eh

Convergence Tolerance:
 Convergence Check Mode ConvCheckMode   .... Total+1el-Energy
 Convergence forced     ConvForced      .... 0
 Energy Change          TolE            ....  1.000e-08 Eh
 1-El. energy change                    ....  1.000e-05 Eh
 Orbital Gradient       TolG            ....  1.000e-05
 Orbital Rotation angle TolX            ....  1.000e-05
 DIIS Error             TolErr          ....  5.000e-07


Diagonalization of the overlap matrix:
Smallest eigenvalue                        ... 2.410e-03
Time for diagonalization                   ...    0.081 sec
Threshold for overlap eigenvalues          ... 1.000e-08
Number of eigenvalues below threshold      ... 0
Time for construction of square roots      ...    0.004 sec
Total time needed                          ...    0.086 sec

Time for model grid setup =    0.181 sec

------------------------------
INITIAL GUESS: MODEL POTENTIAL
------------------------------
Loading Hartree-Fock densities                     ... done
Calculating cut-offs                               ... done
Initializing the effective Hamiltonian             ... done
Setting up the integral package (SHARK)            ... done
Starting the Coulomb interaction                   ... done (   0.1 sec)
Reading the grid                                   ... done
Mapping shells                                     ... done
Starting the XC term evaluation                    ... done (   0.1 sec)
  promolecular density results
     # of electrons  =     41.995402137
     EX              =    -30.225935851
     EC              =     -1.353985370
     EX+EC           =    -31.579921221
Transforming the Hamiltonian                       ... done (   0.0 sec)
Diagonalizing the Hamiltonian                      ... done (   0.0 sec)
Back transforming the eigenvectors                 ... done (   0.0 sec)
Now organizing SCF variables                       ... done
                      ------------------
                      INITIAL GUESS DONE (   0.3 sec)
                      ------------------
-------------------
DFT GRID GENERATION
-------------------

General Integration Accuracy     IntAcc      ... 4.388
Radial Grid Type                 RadialGrid  ... OptM3 with GC (2021)
Angular Grid (max. ang.)         AngularGrid ... 4 (Lebedev-302)
Angular grid pruning method      GridPruning ... 4 (adaptive)
Weight generation scheme         WeightScheme... Becke
Basis function cutoff            BFCut       ... 1.0000e-11
Integration weight cutoff        WCut        ... 1.0000e-14
Angular grids for H and He will be reduced by one unit
Partially contracted basis set               ... off
Rotationally invariant grid construction     ... off

Total number of grid points                  ...    65531
Total number of batches                      ...     1032
Average number of points per batch           ...       63
Average number of grid points per atom       ...     4096
Time for grid setup =    0.266 sec

--------------------
COSX GRID GENERATION
--------------------

GRIDX 1
-------
General Integration Accuracy     IntAcc      ... 3.816
Radial Grid Type                 RadialGrid  ... OptM3 with GC (2021)
Angular Grid (max. ang.)         AngularGrid ... 1 (Lebedev-50)
Angular grid pruning method      GridPruning ... 4 (adaptive)
Weight generation scheme         WeightScheme... Becke
Basis function cutoff            BFCut       ... 1.0000e-11
Integration weight cutoff        WCut        ... 1.0000e-14
Angular grids for H and He will be reduced by one unit
Partially contracted basis set               ... on
Rotationally invariant grid construction     ... off

Total number of grid points                  ...     8441
Total number of batches                      ...      143
Average number of points per batch           ...       59
Average number of grid points per atom       ...      528
UseSFitting                                  ... on

GRIDX 2
-------
General Integration Accuracy     IntAcc      ... 4.020
Radial Grid Type                 RadialGrid  ... OptM3 with GC (2021)
Angular Grid (max. ang.)         AngularGrid ... 2 (Lebedev-110)
Angular grid pruning method      GridPruning ... 4 (adaptive)
Weight generation scheme         WeightScheme... Becke
Basis function cutoff            BFCut       ... 1.0000e-11
Integration weight cutoff        WCut        ... 1.0000e-14
Angular grids for H and He will be reduced by one unit
Partially contracted basis set               ... on
Rotationally invariant grid construction     ... off

Total number of grid points                  ...    17427
Total number of batches                      ...      280
Average number of points per batch           ...       62
Average number of grid points per atom       ...     1089
UseSFitting                                  ... on

GRIDX 3
-------
General Integration Accuracy     IntAcc      ... 4.338
Radial Grid Type                 RadialGrid  ... OptM3 with GC (2021)
Angular Grid (max. ang.)         AngularGrid ... 3 (Lebedev-194)
Angular grid pruning method      GridPruning ... 4 (adaptive)
Weight generation scheme         WeightScheme... Becke
Basis function cutoff            BFCut       ... 1.0000e-11
Integration weight cutoff        WCut        ... 1.0000e-14
Angular grids for H and He will be reduced by one unit
Partially contracted basis set               ... on
Rotationally invariant grid construction     ... off

Total number of grid points                  ...    37998
Total number of batches                      ...      601
Average number of points per batch           ...       63
Average number of grid points per atom       ...     2375
UseSFitting                                  ... on

Time for X-Grid setup             =    0.246 sec

--------------
SCF ITERATIONS
--------------
ITER       Energy         Delta-E        Max-DP      RMS-DP      [F,P]     Damp
               ***  Starting incremental Fock matrix formation  ***
  0   -213.3836337929   0.000000000000 0.03852162  0.00114149  0.2247642 0.8500
  1   -213.4295465882  -0.045912795313 0.03305703  0.00108784  0.1731240 0.8500
                               ***Turning on DIIS***
  2   -213.4629803293  -0.033433741094 0.02454610  0.00086834  0.1258775 0.8500
  3   -213.4868610935  -0.023880764152 0.01380741  0.00055700  0.0900995 0.8500
  4   -213.5048683761  -0.018007282661 0.00914537  0.00039456  0.0704258 0.8500
  5   -213.5188514806  -0.013983104468 0.00679759  0.00031061  0.0581638 0.8500
  6   -213.5301537188  -0.011302238243 0.00539908  0.00025749  0.0490189 0.8500
  7   -213.5394853890  -0.009331670126 0.00451935  0.00022187  0.0415796 0.8500
  8   -213.5472870102  -0.007801621186 0.00384792  0.00019136  0.0350538 0.8500
  9   -213.5538224325  -0.006535422300 0.02176812  0.00109131  0.0294591 0.0000
 10   -213.5891113721  -0.035288939634 0.00143734  0.00004724  0.0018315 0.0000
                      *** Initiating the SOSCF procedure ***
                           *** Shutting down DIIS ***
                      *** Re-Reading the Fockian *** 
                      *** Removing any level shift *** 
ITER      Energy       Delta-E        Grad      Rot      Max-DP    RMS-DP
 11   -213.58912533  -0.0000139597  0.000085  0.000085  0.000343  0.000016
               *** Restarting incremental Fock matrix formation ***
 12   -213.58913192  -0.0000065840  0.000043  0.000070  0.000340  0.000012
 13   -213.58913208  -0.0000001663  0.000024  0.000041  0.000174  0.000007
 14   -213.58913210  -0.0000000217  0.000018  0.000008  0.000044  0.000002
                  ***Gradient check signals convergence***
              ***Rediagonalizing the Fockian in SOSCF/NRSCF***

               *****************************************************
               *                     SUCCESS                       *
               *           SCF CONVERGED AFTER  15 CYCLES          *
               *****************************************************

Old exchange energy                            =    -10.432916601 Eh
New exchange energy                            =    -10.432911141 Eh
Exchange energy change after final integration =      0.000005461 Eh
Total energy after final integration           =   -213.589126650 Eh
Final COS-X integration done in                =     2.238 sec

----------------
TOTAL SCF ENERGY
----------------

Total Energy       :         -213.58912665 Eh           -5812.05562 eV

Components:
Nuclear Repulsion  :          191.40560316 Eh            5208.41125 eV
Electronic Energy  :         -404.99472981 Eh          -11020.46687 eV
One Electron Energy:         -665.69945011 Eh          -18114.60297 eV
Two Electron Energy:          260.70472030 Eh            7094.13610 eV
Max COSX asymmetry :            0.00000278 Eh               0.00008 eV

Virial components:
Potential Energy   :         -424.43912327 Eh          -11549.57571 eV
Kinetic Energy     :          210.84999662 Eh            5737.52010 eV
Virial Ratio       :            2.01299089


DFT components:
N(Alpha)           :       21.000037603690 electrons
N(Beta)            :       21.000037603690 electrons
N(Total)           :       42.000075207380 electrons
E(XC)              :      -22.215330934299 Eh       
DFET-embed. en.    :        0.000000000000 Eh       

---------------
SCF CONVERGENCE
---------------

  Last Energy change         ...   -7.0949e-09  Tolerance :   1.0000e-08
  Last MAX-Density change    ...    3.5527e-15  Tolerance :   1.0000e-07
  Last RMS-Density change    ...    5.1505e-17  Tolerance :   5.0000e-09
  Last Orbital Gradient      ...    1.3777e-06  Tolerance :   1.0000e-05
  Last Orbital Rotation      ...    2.9082e-06  Tolerance :   1.0000e-05

             **** THE GBW FILE WAS UPDATED (butylamine_deprot_aq_10.gbw) ****
             **** DENSITY butylamine_deprot_aq_10.scfp WAS UPDATED ****
             **** ENERGY FILE WAS UPDATED (butylamine_deprot_aq_10.en.tmp) ****
             **** THE GBW FILE WAS UPDATED (butylamine_deprot_aq_10.gbw) ****
             **** DENSITY butylamine_deprot_aq_10.scfp WAS UPDATED ****
----------------
ORBITAL ENERGIES
----------------

  NO   OCC          E(Eh)            E(eV) 
   0   2.0000     -14.378687      -391.2640 
   1   2.0000     -10.285814      -279.8912 
   2   2.0000     -10.259293      -279.1696 
   3   2.0000     -10.253776      -279.0194 
   4   2.0000     -10.253261      -279.0054 
   5   2.0000      -0.998864       -27.1805 
   6   2.0000      -0.900443       -24.5023 
   7   2.0000      -0.819240       -22.2926 
   8   2.0000      -0.741590       -20.1797 
   9   2.0000      -0.670243       -18.2382 
  10   2.0000      -0.601393       -16.3647 
  11   2.0000      -0.574732       -15.6392 
  12   2.0000      -0.545738       -14.8503 
  13   2.0000      -0.535507       -14.5719 
  14   2.0000      -0.492368       -13.3980 
  15   2.0000      -0.477251       -12.9867 
  16   2.0000      -0.466263       -12.6877 
  17   2.0000      -0.425780       -11.5861 
  18   2.0000      -0.421481       -11.4691 
  19   2.0000      -0.412045       -11.2123 
  20   2.0000      -0.333639        -9.0788 
  21   0.0000       0.140387         3.8201 
  22   0.0000       0.174093         4.7373 
  23   0.0000       0.177628         4.8335 
  24   0.0000       0.194346         5.2884 
  25   0.0000       0.213391         5.8067 
  26   0.0000       0.225977         6.1492 
  27   0.0000       0.234564         6.3828 
  28   0.0000       0.248921         6.7735 
  29   0.0000       0.257557         7.0085 
  30   0.0000       0.266209         7.2439 
  31   0.0000       0.281694         7.6653 
  32   0.0000       0.319378         8.6907 
  33   0.0000       0.333380         9.0717 
  34   0.0000       0.346470         9.4279 
  35   0.0000       0.374997        10.2042 
  36   0.0000       0.510367        13.8878 
  37   0.0000       0.527130        14.3439 
  38   0.0000       0.540577        14.7098 
  39   0.0000       0.555956        15.1283 
  40   0.0000       0.574023        15.6200 
  41   0.0000       0.615918        16.7600 
  42   0.0000       0.643517        17.5110 
  43   0.0000       0.712640        19.3919 
  44   0.0000       0.730296        19.8724 
  45   0.0000       0.742696        20.2098 
  46   0.0000       0.745915        20.2974 
  47   0.0000       0.759700        20.6725 
  48   0.0000       0.769257        20.9325 
  49   0.0000       0.780794        21.2465 
  50   0.0000       0.793755        21.5992 
  51   0.0000       0.797474        21.7004 
  52   0.0000       0.803497        21.8643 
  53   0.0000       0.817027        22.2324 
  54   0.0000       0.824484        22.4353 
  55   0.0000       0.828008        22.5312 
  56   0.0000       0.842419        22.9234 
  57   0.0000       0.852699        23.2031 
  58   0.0000       0.859913        23.3994 
  59   0.0000       0.877209        23.8701 
  60   0.0000       0.952539        25.9199 
  61   0.0000       0.981246        26.7011 
  62   0.0000       1.066426        29.0189 
  63   0.0000       1.103151        30.0183 
  64   0.0000       1.147998        31.2386 
  65   0.0000       1.244566        33.8664 
  66   0.0000       1.265329        34.4314 
  67   0.0000       1.296124        35.2693 
  68   0.0000       1.305446        35.5230 
  69   0.0000       1.383748        37.6537 
  70   0.0000       1.414052        38.4783 
  71   0.0000       1.450527        39.4709 
  72   0.0000       1.497694        40.7543 
  73   0.0000       1.632202        44.4145 
  74   0.0000       1.649024        44.8722 
  75   0.0000       1.669258        45.4228 
  76   0.0000       1.711496        46.5722 
  77   0.0000       1.785438        48.5842 
  78   0.0000       1.834014        49.9060 
  79   0.0000       1.857185        50.5366 
  80   0.0000       1.877395        51.0865 
  81   0.0000       1.892490        51.4973 
  82   0.0000       1.901639        51.7462 
  83   0.0000       1.917334        52.1733 
  84   0.0000       1.918251        52.1983 
  85   0.0000       1.926115        52.4123 
  86   0.0000       1.943051        52.8731 
  87   0.0000       1.962258        53.3958 
  88   0.0000       1.987111        54.0720 
  89   0.0000       1.991399        54.1887 
  90   0.0000       1.999558        54.4107 
  91   0.0000       2.016179        54.8630 
  92   0.0000       2.036452        55.4147 
  93   0.0000       2.059265        56.0354 
  94   0.0000       2.079755        56.5930 
  95   0.0000       2.125513        57.8381 
  96   0.0000       2.177757        59.2598 
  97   0.0000       2.210604        60.1536 
  98   0.0000       2.265321        61.6425 
  99   0.0000       2.331176        63.4345 
 100   0.0000       2.351131        63.9775 
 101   0.0000       2.371468        64.5309 
 102   0.0000       2.421954        65.9047 
 103   0.0000       2.469865        67.2085 
 104   0.0000       2.526696        68.7549 
 105   0.0000       2.550898        69.4135 
 106   0.0000       2.623300        71.3836 
 107   0.0000       2.654592        72.2351 
 108   0.0000       2.683180        73.0130 
 109   0.0000       2.706807        73.6560 
 110   0.0000       2.725016        74.1514 
 111   0.0000       2.790143        75.9237 
 112   0.0000       2.847075        77.4729 
 113   0.0000       2.898541        78.8733 
 114   0.0000       2.970076        80.8199 
 115   0.0000       3.000765        81.6550 
 116   0.0000       3.022462        82.2454 
 117   0.0000       3.041930        82.7751 
 118   0.0000       3.087494        84.0150 
 119   0.0000       3.129942        85.1700 
 120   0.0000       3.160422        85.9994 
 121   0.0000       3.211690        87.3945 
 122   0.0000       3.222663        87.6931 
 123   0.0000       3.330646        90.6315 
 124   0.0000       3.530409        96.0673 

                    ********************************
                    * MULLIKEN POPULATION ANALYSIS *
                    ********************************

-----------------------
MULLIKEN ATOMIC CHARGES
-----------------------
   0 C :   -0.053553
   1 C :   -0.038213
   2 H :    0.016957
   3 H :    0.026972
   4 H :    0.028101
   5 C :   -0.057710
   6 H :    0.015115
   7 H :    0.025686
   8 C :    0.064717
   9 H :    0.011432
  10 H :    0.009327
  11 N :   -0.252985
  12 H :    0.010001
  13 H :    0.002030
  14 H :    0.098584
  15 H :    0.093539
Sum of atomic charges:   -0.0000000

--------------------------------
MULLIKEN REDUCED ORBITAL CHARGES
--------------------------------
  0 C s       :     3.019354  s :     3.019354
      pz      :     1.001862  p :     3.006234
      px      :     1.006750
      py      :     0.997621
      dz2     :     0.002953  d :     0.027966
      dxz     :     0.007847
      dyz     :     0.006783
      dx2y2   :     0.002737
      dxy     :     0.007646
  1 C s       :     3.027048  s :     3.027048
      pz      :     1.020564  p :     2.975243
      px      :     0.969183
      py      :     0.985496
      dz2     :     0.004534  d :     0.035923
      dxz     :     0.008786
      dyz     :     0.008548
      dx2y2   :     0.003905
      dxy     :     0.010151
  2 H s       :     0.959834  s :     0.959834
      pz      :     0.010500  p :     0.023208
      px      :     0.006593
      py      :     0.006115
  3 H s       :     0.949448  s :     0.949448
      pz      :     0.005873  p :     0.023580
      px      :     0.007735
      py      :     0.009972
  4 H s       :     0.948599  s :     0.948599
      pz      :     0.007719  p :     0.023300
      px      :     0.009439
      py      :     0.006142
  5 C s       :     3.045375  s :     3.045375
      pz      :     0.998353  p :     2.976954
      px      :     0.969572
      py      :     1.009029
      dz2     :     0.004220  d :     0.035381
      dxz     :     0.008212
      dyz     :     0.008816
      dx2y2   :     0.005360
      dxy     :     0.008774
  6 H s       :     0.962770  s :     0.962770
      pz      :     0.005785  p :     0.022115
      px      :     0.007519
      py      :     0.008810
  7 H s       :     0.951440  s :     0.951440
      pz      :     0.009740  p :     0.022874
      px      :     0.006660
      py      :     0.006475
  8 C s       :     2.998229  s :     2.998229
      pz      :     0.918291  p :     2.884695
      px      :     0.973394
      py      :     0.993010
      dz2     :     0.007293  d :     0.052358
      dxz     :     0.013577
      dyz     :     0.014606
      dx2y2   :     0.006035
      dxy     :     0.010846
  9 H s       :     0.966448  s :     0.966448
      pz      :     0.010712  p :     0.022120
      px      :     0.005462
      py      :     0.005946
 10 H s       :     0.968482  s :     0.968482
      pz      :     0.007174  p :     0.022191
      px      :     0.005305
      py      :     0.009712
 11 N s       :     3.421931  s :     3.421931
      pz      :     1.271544  p :     3.811468
      px      :     1.333575
      py      :     1.206349
      dz2     :     0.003293  d :     0.019586
      dxz     :     0.004094
      dyz     :     0.004837
      dx2y2   :     0.001278
      dxy     :     0.006085
 12 H s       :     0.968541  s :     0.968541
      pz      :     0.006484  p :     0.021458
      px      :     0.005547
      py      :     0.009427
 13 H s       :     0.977238  s :     0.977238
      pz      :     0.006995  p :     0.020732
      px      :     0.006855
      py      :     0.006881
 14 H s       :     0.855968  s :     0.855968
      pz      :     0.010538  p :     0.045448
      px      :     0.016472
      py      :     0.018438
 15 H s       :     0.860934  s :     0.860934
      pz      :     0.016195  p :     0.045527
      px      :     0.013279
      py      :     0.016053


                     *******************************
                     * LOEWDIN POPULATION ANALYSIS *
                     *******************************

----------------------
LOEWDIN ATOMIC CHARGES
----------------------
   0 C :   -0.066071
   1 C :   -0.046293
   2 H :    0.020487
   3 H :    0.022350
   4 H :    0.026090
   5 C :   -0.049618
   6 H :    0.020277
   7 H :    0.023543
   8 C :    0.010451
   9 H :    0.021474
  10 H :    0.018751
  11 N :   -0.123911
  12 H :    0.015055
  13 H :    0.000005
  14 H :    0.055193
  15 H :    0.052216

-------------------------------
LOEWDIN REDUCED ORBITAL CHARGES
-------------------------------
  0 C s       :     2.837030  s :     2.837030
      pz      :     1.056051  p :     3.157474
      px      :     1.050401
      py      :     1.051022
      dz2     :     0.007030  d :     0.071567
      dxz     :     0.020346
      dyz     :     0.017858
      dx2y2   :     0.005599
      dxy     :     0.020734
  1 C s       :     2.832724  s :     2.832724
      pz      :     1.051885  p :     3.124981
      px      :     1.030651
      py      :     1.042445
      dz2     :     0.009384  d :     0.088589
      dxz     :     0.023126
      dyz     :     0.021942
      dx2y2   :     0.007944
      dxy     :     0.026193
  2 H s       :     0.915754  s :     0.915754
      pz      :     0.028571  p :     0.063760
      px      :     0.017965
      py      :     0.017224
  3 H s       :     0.912959  s :     0.912959
      pz      :     0.015896  p :     0.064691
      px      :     0.021212
      py      :     0.027583
  4 H s       :     0.909811  s :     0.909811
      pz      :     0.021142  p :     0.064099
      px      :     0.025647
      py      :     0.017310
  5 C s       :     2.842049  s :     2.842049
      pz      :     1.049026  p :     3.119441
      px      :     1.030644
      py      :     1.039771
      dz2     :     0.010040  d :     0.088127
      dxz     :     0.021338
      dyz     :     0.022045
      dx2y2   :     0.011033
      dxy     :     0.023671
  6 H s       :     0.915450  s :     0.915450
      pz      :     0.017447  p :     0.064273
      px      :     0.021832
      py      :     0.024994
  7 H s       :     0.909749  s :     0.909749
      pz      :     0.028423  p :     0.066708
      px      :     0.019381
      py      :     0.018904
  8 C s       :     2.832829  s :     2.832829
      pz      :     0.977024  p :     3.035913
      px      :     1.016922
      py      :     1.041967
      dz2     :     0.015136  d :     0.120807
      dxz     :     0.031156
      dyz     :     0.036008
      dx2y2   :     0.011814
      dxy     :     0.026692
  9 H s       :     0.914430  s :     0.914430
      pz      :     0.029399  p :     0.064096
      px      :     0.016907
      py      :     0.017790
 10 H s       :     0.917193  s :     0.917193
      pz      :     0.019927  p :     0.064056
      px      :     0.016662
      py      :     0.027467
 11 N s       :     3.124172  s :     3.124172
      pz      :     1.319129  p :     3.955970
      px      :     1.367939
      py      :     1.268902
      dz2     :     0.006672  d :     0.043770
      dxz     :     0.009168
      dyz     :     0.011786
      dx2y2   :     0.001955
      dxy     :     0.014188
 12 H s       :     0.921972  s :     0.921972
      pz      :     0.018931  p :     0.062972
      px      :     0.017342
      py      :     0.026699
 13 H s       :     0.936507  s :     0.936507
      pz      :     0.022396  p :     0.063488
      px      :     0.020812
      py      :     0.020279
 14 H s       :     0.824054  s :     0.824054
      pz      :     0.029742  p :     0.120753
      px      :     0.047918
      py      :     0.043093
 15 H s       :     0.827589  s :     0.827589
      pz      :     0.040692  p :     0.120195
      px      :     0.036733
      py      :     0.042771


                      *****************************
                      * MAYER POPULATION ANALYSIS *
                      *****************************

  NA   - Mulliken gross atomic population
  ZA   - Total nuclear charge
  QA   - Mulliken gross atomic charge
  VA   - Mayer's total valence
  BVA  - Mayer's bonded valence
  FA   - Mayer's free valence

  ATOM       NA         ZA         QA         VA         BVA        FA
  0 C      6.0536     6.0000    -0.0536     4.0076     4.0076     0.0000
  1 C      6.0382     6.0000    -0.0382     4.0534     4.0534     0.0000
  2 H      0.9830     1.0000     0.0170     0.9877     0.9877     0.0000
  3 H      0.9730     1.0000     0.0270     0.9917     0.9917    -0.0000
  4 H      0.9719     1.0000     0.0281     0.9869     0.9869     0.0000
  5 C      6.0577     6.0000    -0.0577     4.0537     4.0537    -0.0000
  6 H      0.9849     1.0000     0.0151     0.9759     0.9759     0.0000
  7 H      0.9743     1.0000     0.0257     1.0090     1.0090    -0.0000
  8 C      5.9353     6.0000     0.0647     4.0493     4.0493    -0.0000
  9 H      0.9886     1.0000     0.0114     0.9841     0.9841    -0.0000
 10 H      0.9907     1.0000     0.0093     0.9816     0.9816     0.0000
 11 N      7.2530     7.0000    -0.2530     3.0420     3.0420    -0.0000
 12 H      0.9900     1.0000     0.0100     0.9864     0.9864    -0.0000
 13 H      0.9980     1.0000     0.0020     0.9710     0.9710     0.0000
 14 H      0.9014     1.0000     0.0986     0.9962     0.9962     0.0000
 15 H      0.9065     1.0000     0.0935     0.9988     0.9988     0.0000

  Mayer bond orders larger than 0.100000
B(  0-C ,  1-C ) :   1.0808 B(  0-C ,  2-H ) :   0.9752 B(  0-C ,  3-H ) :   0.9761 
B(  0-C ,  4-H ) :   0.9733 B(  1-C ,  5-C ) :   1.0629 B(  1-C ,  6-H ) :   0.9570 
B(  1-C ,  7-H ) :   0.9478 B(  5-C ,  8-C ) :   1.0702 B(  5-C ,  9-H ) :   0.9522 
B(  5-C , 10-H ) :   0.9519 B(  8-C , 11-N ) :   1.0551 B(  8-C , 12-H ) :   0.9529 
B(  8-C , 13-H ) :   0.9522 B( 11-N , 14-H ) :   0.9732 B( 11-N , 15-H ) :   0.9741 


-------
TIMINGS
-------

Total SCF time: 0 days 0 hours 0 min 17 sec 

Total time                  ....      17.177 sec
Sum of individual times     ....      16.897 sec  ( 98.4%)

Fock matrix formation       ....      15.910 sec  ( 92.6%)
  Split-RI-J                ....       0.885 sec  (  5.6% of F)
  Chain of spheres X        ....      12.276 sec  ( 77.2% of F)
  XC integration            ....       2.544 sec  ( 16.0% of F)
    Basis function eval.    ....       0.851 sec  ( 33.4% of XC)
    Density eval.           ....       0.399 sec  ( 15.7% of XC)
    XC-Functional eval.     ....       0.376 sec  ( 14.8% of XC)
    XC-Potential eval.      ....       0.479 sec  ( 18.8% of XC)
Diagonalization             ....       0.037 sec  (  0.2%)
Density matrix formation    ....       0.002 sec  (  0.0%)
Population analysis         ....       0.010 sec  (  0.1%)
Initial guess               ....       0.166 sec  (  1.0%)
Orbital Transformation      ....       0.000 sec  (  0.0%)
Orbital Orthonormalization  ....       0.000 sec  (  0.0%)
DIIS solution               ....       0.035 sec  (  0.2%)
SOSCF solution              ....       0.043 sec  (  0.2%)
Grid generation             ....       0.693 sec  (  4.0%)

Maximum memory used throughout the entire SCF-calculation: 49.8 MB


-------------------------------------------------------------------------------
                          DFT DISPERSION CORRECTION                            
                                                                               
                                 DFTD4 V2.5                                    
-------------------------------------------------------------------------------
The WB97X functional is recognized
Active option DFTDOPT                   ...         5   

Starting D4
-------------------------   ----------------
Dispersion correction           -0.001440269
-------------------------   ----------------


-------------------------   --------------------
FINAL SINGLE POINT ENERGY      -213.590566919183
-------------------------   --------------------



           ************************************************************
           *        Program running with 4 parallel MPI-processes     *
           *              working on a common directory               *
           ************************************************************
------------------------------------------------------------------------------
                         ORCA SCF GRADIENT CALCULATION
------------------------------------------------------------------------------

 ... reading COSX grid (gridx3)
Gradient of the Kohn-Sham DFT energy:
Kohn-Sham wavefunction type      ... RKS
Hartree-Fock exchange scaling    ...    0.158
Number of operators              ...    1
Number of atoms                  ...   16
Basis set dimensions             ...  125
Integral neglect threshold       ... 2.5e-11
Integral primitive cutoff        ... 2.5e-12
SHARK Integral package           ... ON

Nuc. rep. gradient       (SHARK) ... done (  0.0 sec)
HCore & Overlap gradient (SHARK) ... done (  0.0 sec)
RI-J gradient            (SHARK) ... done (  0.6 sec)
COSX-gradient                    ... done (  2.5 sec)
Exchange-correlation gradient    ... done
Dispersion correction            ... Starting D4
Starting D4
Starting D4
Starting D4


------------------- 
Dispersion Gradient 
------------------- 
   1  :   -0.000027490    0.000012651   -0.000006005
   2  :   -0.000012610   -0.000005183    0.000011373
   3  :   -0.000006218    0.000002177    0.000002348
   4  :   -0.000007303   -0.000001499    0.000002458
   5  :   -0.000007509    0.000001959    0.000000369
   6  :    0.000000004   -0.000017032   -0.000004719
   7  :   -0.000004307    0.000000767   -0.000000406
   8  :   -0.000001910   -0.000001125   -0.000005148
   9  :    0.000010500   -0.000004934   -0.000017931
  10  :    0.000000184    0.000000366    0.000002224
  11  :    0.000001072    0.000001722   -0.000000696
  12  :    0.000024565    0.000009176    0.000008211
  13  :    0.000005530   -0.000002764    0.000005685
  14  :    0.000005584    0.000000702    0.000001706
  15  :    0.000012055    0.000005076   -0.000001390
  16  :    0.000007853   -0.000002058    0.000001921

  |G| =    0.000052522

done

------------------
CARTESIAN GRADIENT
------------------

   1   C   :    0.000442266   -0.000976614    0.000810767
   2   C   :   -0.000615549   -0.000254594   -0.001364973
   3   H   :   -0.000391746   -0.000117410   -0.000549339
   4   H   :    0.000063708    0.000639005   -0.000533354
   5   H   :   -0.000415317    0.000449390    0.000148581
   6   C   :    0.000198023    0.001897815    0.000630324
   7   H   :   -0.000136344   -0.000124610    0.000632829
   8   H   :    0.000379819    0.000143310    0.000456130
   9   C   :    0.000748313   -0.001093146    0.001130587
  10   H   :   -0.000104101   -0.000377244   -0.000466912
  11   H   :    0.000226177   -0.000684534   -0.000099692
  12   N   :   -0.000731076    0.000272448   -0.000413173
  13   H   :   -0.000435100    0.000302545   -0.000292597
  14   H   :   -0.000099214    0.000227202   -0.000515457
  15   H   :    0.000423030   -0.000178933    0.000231456
  16   H   :    0.000214142   -0.000061512    0.000036085

Difference to translation invariance:
           :   -0.0002329670    0.0000631169   -0.0001587386

Difference to rotation invariance:
           :    0.0001527348    0.0000086072    0.0002243185

Norm of the cartesian gradient     ...    0.0040304059
RMS gradient                       ...    0.0005817390
MAX gradient                       ...    0.0018978152

-------
TIMINGS
-------

Total SCF gradient time            ...        4.136 sec

One electron gradient       ....       0.029 sec  (  0.7%)
RI-J Coulomb gradient       ....       0.612 sec  ( 14.8%)
COSX gradient               ....       2.462 sec  ( 59.5%)
XC gradient                 ....       0.705 sec  ( 17.0%)

Maximum memory used throughout the entire SCFGRAD-calculation: 38.4 MB
------------------------------------------------------------------------------
                         ORCA GEOMETRY RELAXATION STEP
------------------------------------------------------------------------------

Reading the OPT-File                    .... done
Getting information on internals        .... done
Copying old internal coords+grads       .... done
Making the new internal coordinates     .... (new redundants).... done
Validating the new internal coordinates .... (new redundants).... done
Calculating the B-matrix                .... done
Calculating the G,G- and P matrices     .... done
Transforming gradient to internals      .... done
Projecting the internal gradient        .... done
Number of atoms                         ....  16
Number of internal coordinates          ....  75
Current Energy                          ....  -213.590566919 Eh
Current gradient norm                   ....     0.004030406 Eh/bohr
Maximum allowed component of the step   ....  0.300
Current trust radius                    ....  0.300
Evaluating the initial hessian          ....  (Almloef) done
Projecting the Hessian                  .... done
Forming the augmented Hessian           .... done
Diagonalizing the augmented Hessian     .... done
Last element of RFO vector              ....  0.998169160
Lowest eigenvalues of augmented Hessian:
 -0.000061403  0.011260874  0.011445879  0.011602195  0.016738088
Length of the computed step             ....  0.060595049
The final length of the internal step   ....  0.060595049
Converting the step to cartesian space:
 Initial RMS(Int)=    0.0069969136
Transforming coordinates:
 Iter   0:  RMS(Cart)=    0.0181449853 RMS(Int)=    0.7250201205
 Iter   1:  RMS(Cart)=    0.0001139542 RMS(Int)=    0.0000679339
 Iter   2:  RMS(Cart)=    0.0000014441 RMS(Int)=    0.0000006387
 Iter   3:  RMS(Cart)=    0.0000000195 RMS(Int)=    0.0000000126
done
Storing new coordinates                 .... done

                                .--------------------.
          ----------------------|Geometry convergence|-------------------------
          Item                value                   Tolerance       Converged
          ---------------------------------------------------------------------
          RMS gradient        0.0002741985            0.0001000000      NO
          MAX gradient        0.0007120528            0.0003000000      NO
          RMS step            0.0069969136            0.0020000000      NO
          MAX step            0.0186394363            0.0040000000      NO
          ........................................................
          Max(Bonds)      0.0011      Max(Angles)    0.11
          Max(Dihed)        1.07      Max(Improp)    0.00
          ---------------------------------------------------------------------

The optimization has not yet converged - more geometry cycles are needed


    ---------------------------------------------------------------------------
                         Redundant Internal Coordinates
                            (Angstroem and degrees)

        Definition                    Value    dE/dq     Step     New-Value
    ----------------------------------------------------------------------------
     1. B(C   1,C   0)                1.5242  0.000173 -0.0002    1.5240   
     2. B(H   2,C   0)                1.1040  0.000643 -0.0010    1.1030   
     3. B(H   3,C   0)                1.1028  0.000712 -0.0011    1.1018   
     4. B(H   4,C   0)                1.1018  0.000558 -0.0009    1.1009   
     5. B(C   5,C   1)                1.5288  0.000107 -0.0002    1.5287   
     6. B(H   6,C   1)                1.1040  0.000416 -0.0006    1.1033   
     7. B(H   7,C   1)                1.1030  0.000599 -0.0009    1.1021   
     8. B(C   8,C   5)                1.5263 -0.000267  0.0004    1.5266   
     9. B(H   9,C   5)                1.1059  0.000567 -0.0009    1.1050   
    10. B(H  10,C   5)                1.1067  0.000563 -0.0009    1.1058   
    11. B(N  11,C   8)                1.4536 -0.000111  0.0001    1.4537   
    12. B(H  12,C   8)                1.1049  0.000537 -0.0008    1.1040   
    13. B(H  13,C   8)                1.1108  0.000142 -0.0002    1.1106   
    14. B(H  14,N  11)                1.0169  0.000115 -0.0001    1.0168   
    15. B(H  15,N  11)                1.0190  0.000180 -0.0002    1.0188   
    16. A(H   3,C   0,H   4)          106.97 -0.000348    0.06    107.03   
    17. A(C   1,C   0,H   4)          111.40  0.000234   -0.05    111.35   
    18. A(C   1,C   0,H   2)          111.44  0.000100   -0.02    111.43   
    19. A(H   2,C   0,H   3)          107.47 -0.000343    0.07    107.55   
    20. A(H   2,C   0,H   4)          107.52 -0.000187    0.04    107.56   
    21. A(C   1,C   0,H   3)          111.78  0.000486   -0.09    111.69   
    22. A(C   0,C   1,C   5)          113.88  0.000103   -0.04    113.84   
    23. A(H   6,C   1,H   7)          106.53 -0.000131    0.09    106.62   
    24. A(C   5,C   1,H   7)          108.25 -0.000323    0.09    108.34   
    25. A(C   0,C   1,H   7)          109.51  0.000268   -0.06    109.45   
    26. A(C   5,C   1,H   6)          109.01  0.000230   -0.08    108.94   
    27. A(C   0,C   1,H   6)          109.39 -0.000165    0.01    109.40   
    28. A(C   8,C   5,H   9)          108.55  0.000011   -0.01    108.55   
    29. A(C   1,C   5,H   9)          109.91 -0.000232    0.03    109.94   
    30. A(C   1,C   5,C   8)          114.63  0.000449   -0.11    114.52   
    31. A(H   9,C   5,H  10)          105.50 -0.000097    0.11    105.61   
    32. A(C   8,C   5,H  10)          108.40 -0.000398    0.07    108.48   
    33. A(C   1,C   5,H  10)          109.45  0.000219   -0.08    109.36   
    34. A(H  12,C   8,H  13)          105.71 -0.000140    0.07    105.77   
    35. A(N  11,C   8,H  13)          114.08  0.000102   -0.06    114.03   
    36. A(C   5,C   8,H  13)          108.49  0.000144   -0.04    108.44   
    37. A(N  11,C   8,H  12)          108.04  0.000189   -0.03    108.02   
    38. A(C   5,C   8,H  12)          109.20 -0.000183    0.07    109.27   
    39. A(C   5,C   8,N  11)          111.10 -0.000128    0.00    111.11   
    40. A(H  14,N  11,H  15)          106.32 -0.000318    0.11    106.43   
    41. A(C   8,N  11,H  15)          110.19 -0.000053    0.03    110.22   
    42. A(C   8,N  11,H  14)          111.14  0.000399   -0.05    111.09   
    43. D(H   6,C   1,C   0,H   4)     56.53 -0.000082   -0.18     56.35   
    44. D(C   5,C   1,C   0,H   3)    -61.60  0.000211   -0.33    -61.93   
    45. D(H   7,C   1,C   0,H   3)     59.75  0.000063   -0.28     59.46   
    46. D(H   6,C   1,C   0,H   2)    -63.56 -0.000071   -0.18    -63.74   
    47. D(C   5,C   1,C   0,H   4)    178.78  0.000165   -0.30    178.47   
    48. D(H   6,C   1,C   0,H   3)    176.15 -0.000036   -0.20    175.95   
    49. D(H   7,C   1,C   0,H   4)    -59.88  0.000016   -0.26    -60.14   
    50. D(C   5,C   1,C   0,H   2)     58.69  0.000177   -0.31     58.38   
    51. D(H   7,C   1,C   0,H   2)   -179.97  0.000028   -0.26   -180.23   
    52. D(H   9,C   5,C   1,H   6)     67.25  0.000172   -0.96     66.29   
    53. D(C   8,C   5,C   1,H   7)    -54.68  0.000126   -0.91    -55.59   
    54. D(C   8,C   5,C   1,H   6)   -170.18  0.000332   -1.03   -171.21   
    55. D(C   8,C   5,C   1,C   0)     67.37  0.000303   -0.95     66.42   
    56. D(H   9,C   5,C   1,H   7)   -177.25 -0.000034   -0.84   -178.09   
    57. D(H  10,C   5,C   1,H   7)     67.33  0.000089   -0.95     66.38   
    58. D(H  10,C   5,C   1,H   6)    -48.17  0.000296   -1.07    -49.24   
    59. D(H  10,C   5,C   1,C   0)   -170.62  0.000266   -0.99   -171.61   
    60. D(H   9,C   5,C   1,C   0)    -55.20  0.000143   -0.88    -56.09   
    61. D(H  13,C   8,C   5,H   9)    -51.09  0.000326   -0.65    -51.75   
    62. D(H  13,C   8,C   5,C   1)   -174.39  0.000304   -0.61   -175.00   
    63. D(H  12,C   8,C   5,H  10)    177.78 -0.000173   -0.39    177.38   
    64. D(H  12,C   8,C   5,H   9)     63.66  0.000141   -0.56     63.10   
    65. D(H  12,C   8,C   5,C   1)    -59.64  0.000119   -0.52    -60.16   
    66. D(N  11,C   8,C   5,H  10)    -63.15 -0.000133   -0.38    -63.53   
    67. D(N  11,C   8,C   5,H   9)   -177.27  0.000181   -0.55   -177.82   
    68. D(H  13,C   8,C   5,H  10)     63.03  0.000012   -0.49     62.54   
    69. D(N  11,C   8,C   5,C   1)     59.43  0.000159   -0.51     58.92   
    70. D(H  15,N  11,C   8,C   5)     65.54  0.000122    0.17     65.70   
    71. D(H  14,N  11,C   8,H  13)     60.12 -0.000225    0.39     60.51   
    72. D(H  14,N  11,C   8,H  12)    -57.11 -0.000239    0.36    -56.74   
    73. D(H  14,N  11,C   8,C   5)   -176.87 -0.000058    0.29   -176.58   
    74. D(H  15,N  11,C   8,H  13)    -57.47 -0.000045    0.26    -57.21   
    75. D(H  15,N  11,C   8,H  12)   -174.70 -0.000059    0.23   -174.46   
    ----------------------------------------------------------------------------

         *************************************************************
         *                GEOMETRY OPTIMIZATION CYCLE   2            *
         *************************************************************
---------------------------------
CARTESIAN COORDINATES (ANGSTROEM)
---------------------------------
  C     -1.926406    0.714243   -0.160109
  C     -1.100933   -0.300071    0.622385
  H     -2.427720    0.245501   -1.023602
  H     -1.302713    1.537077   -0.544570
  H     -2.706279    1.168309    0.470456
  C     -0.022854   -0.993485   -0.210555
  H     -1.770542   -1.065557    1.050150
  H     -0.612340    0.202327    1.472991
  C      1.096802   -0.073172   -0.690157
  H     -0.480968   -1.478289   -1.091584
  H      0.426245   -1.813297    0.380261
  N      1.773551    0.556545    0.431813
  H      0.667517    0.724478   -1.321327
  H      1.769441   -0.655184   -1.355121
  H      2.481665    1.211899    0.111015
  H      2.260547   -0.144631    0.987787

----------------------------
CARTESIAN COORDINATES (A.U.)
----------------------------
  NO LB      ZA    FRAG     MASS         X           Y           Z
   0 C     6.0000    0    12.011   -3.640380    1.349724   -0.302561
   1 C     6.0000    0    12.011   -2.080463   -0.567053    1.176137
   2 H     1.0000    0     1.008   -4.587727    0.463930   -1.934327
   3 H     1.0000    0     1.008   -2.461771    2.904655   -1.029089
   4 H     1.0000    0     1.008   -5.114126    2.207784    0.889034
   5 C     6.0000    0    12.011   -0.043188   -1.877414   -0.397891
   6 H     1.0000    0     1.008   -3.345839   -2.013611    1.984495
   7 H     1.0000    0     1.008   -1.157155    0.382343    2.783550
   8 C     6.0000    0    12.011    2.072655   -0.138275   -1.304209
   9 H     1.0000    0     1.008   -0.908898   -2.793561   -2.062794
  10 H     1.0000    0     1.008    0.805486   -3.426635    0.718589
  11 N     7.0000    0    14.007    3.351526    1.051717    0.816008
  12 H     1.0000    0     1.008    1.261425    1.369065   -2.496946
  13 H     1.0000    0     1.008    3.343759   -1.238118   -2.560807
  14 H     1.0000    0     1.008    4.689668    2.290158    0.209789
  15 H     1.0000    0     1.008    4.271814   -0.273313    1.866647

--------------------------------
INTERNAL COORDINATES (ANGSTROEM)
--------------------------------
 C      0   0   0     0.000000000000     0.00000000     0.00000000
 C      1   0   0     1.523986498570     0.00000000     0.00000000
 H      1   2   0     1.103021258141   111.42537915     0.00000000
 H      1   2   3     1.101753092940   111.69207092   239.69222321
 H      1   2   3     1.100904164984   111.35378678   120.09331074
 C      2   1   3     1.528680969205   113.83656093    58.38052137
 H      2   1   3     1.103325051198   109.39675103   296.25848686
 H      2   1   3     1.102116154830   109.45146011   179.77031916
 C      6   2   1     1.526638040237   114.51654058    66.41592754
 H      6   2   1     1.105040936569   109.94118841   303.91349984
 H      6   2   1     1.105823147187   109.36469017   188.38714824
 N      9   6   2     1.453736635270   111.10585450    58.92409477
 H      9   6   2     1.104040668531   109.26669245   299.83962032
 H      9   6   2     1.110566518849   108.44444127   184.99700571
 H     12   9   6     1.016772153179   111.09419951   183.42469814
 H     12   9   6     1.018783447383   110.21719877    65.70394539

---------------------------
INTERNAL COORDINATES (A.U.)
---------------------------
 C      0   0   0     0.000000000000     0.00000000     0.00000000
 C      1   0   0     2.879917114090     0.00000000     0.00000000
 H      1   2   0     2.084408097780   111.42537915     0.00000000
 H      1   2   3     2.082011612857   111.69207092   239.69222321
 H      1   2   3     2.080407371512   111.35378678   120.09331074
 C      2   1   3     2.888788377935   113.83656093    58.38052137
 H      2   1   3     2.084982183458   109.39675103   296.25848686
 H      2   1   3     2.082697700399   109.45146011   179.77031916
 C      6   2   1     2.884927801674   114.51654058    66.41592754
 H      6   2   1     2.088224736888   109.94118841   303.91349984
 H      6   2   1     2.089702900734   109.36469017   188.38714824
 N      9   6   2     2.747164111509   111.10585450    58.92409477
 H      9   6   2     2.086334504236   109.26669245   299.83962032
 H      9   6   2     2.098666574127   108.44444127   184.99700571
 H     12   9   6     1.921420910106   111.09419951   183.42469814
 H     12   9   6     1.925221705326   110.21719877    65.70394539



           ************************************************************
           *        Program running with 4 parallel MPI-processes     *
           *              working on a common directory               *
           ************************************************************
------------------------------------------------------------------------------
                   ___                                                        
                  /   \      - P O W E R E D   B Y -                         
                 /     \                                                     
                 |  |  |   _    _      __       _____    __    __             
                 |  |  |  | |  | |    /  \     |  _  \  |  |  /  |          
                  \  \/   | |  | |   /    \    | | | |  |  | /  /          
                 / \  \   | |__| |  /  /\  \   | |_| |  |  |/  /          
                |  |  |   |  __  | /  /__\  \  |    /   |      \           
                |  |  |   | |  | | |   __   |  |    \   |  |\   \          
                \     /   | |  | | |  |  |  |  | |\  \  |  | \   \       
                 \___/    |_|  |_| |__|  |__|  |_| \__\ |__|  \__/        
[...]
     37       0.367461  -0.029701  -0.046927   0.003701   0.139199  -0.336527
     38       0.109431  -0.040104  -0.027331   0.008813   0.185375  -0.479552
     39       0.235488  -0.027222  -0.063984  -0.026159   0.108328  -0.207939
     40       0.360306   0.020842  -0.061075  -0.049882  -0.080271   0.304307
     41      -0.036077  -0.064349  -0.030710   0.008153   0.193539  -0.526914
     42       0.072037   0.013770   0.006009   0.012380   0.017299  -0.032345
     43       0.129091  -0.000288  -0.027422  -0.009714   0.010127  -0.007297
     44       0.238039   0.025295  -0.018084   0.009394   0.036100  -0.053004
     45      -0.092741   0.014201   0.028861   0.014479   0.006529  -0.024895
     46      -0.148669   0.004597   0.031904   0.017483   0.000875  -0.024521
     47      -0.122882  -0.007987   0.013723   0.004888  -0.009211   0.003085
                 36         37         38         39         40         41    
      0       0.000034  -0.000087  -0.001862   0.027531   0.002127  -0.003627
      1      -0.000021   0.000602   0.003461  -0.029114   0.003332  -0.000511
      2      -0.000046  -0.000415  -0.003856   0.033838  -0.007769  -0.002170
      3      -0.000453   0.000231  -0.006494  -0.005199  -0.026041  -0.006224
      4      -0.000135  -0.000264  -0.009329  -0.002861  -0.029250  -0.006966
      5      -0.000122  -0.000012   0.009575   0.003703   0.057476   0.002573
      6      -0.000197   0.002529   0.025618  -0.257802   0.027900   0.017033
      7       0.001539   0.002149   0.024518  -0.232731   0.022210   0.017178
      8      -0.000333   0.006233   0.058083  -0.583151   0.057052   0.039826
      9      -0.001837  -0.004676  -0.040144   0.321539  -0.046093   0.002095
     10       0.001127  -0.007521  -0.048794   0.380992  -0.056581   0.002609
     11      -0.000788   0.002021   0.012486  -0.100702   0.013884  -0.001382
     12       0.000054   0.005094   0.034500  -0.379604  -0.011965   0.018513
     13       0.000616  -0.002323  -0.015943   0.182524   0.004541  -0.011315
     14      -0.000629  -0.003893  -0.026639   0.286402   0.012992  -0.014017
     15      -0.005452   0.000311  -0.006430  -0.000720  -0.003498   0.026956
     16      -0.003736  -0.007116   0.068697   0.005840  -0.015049   0.000186
     17       0.005231  -0.002363   0.001857   0.000562  -0.010580   0.045030
     18       0.001473   0.000501   0.122263   0.064596   0.531153   0.074831
     19      -0.004014   0.001195   0.134196   0.064775   0.553133   0.078849
     20      -0.004236  -0.000063  -0.053668  -0.027050  -0.234507  -0.035017
     21       0.006092   0.000273  -0.036103  -0.013158  -0.229893   0.004261
     22      -0.002695  -0.000168  -0.032360  -0.014865  -0.210878   0.002210
     23      -0.001777  -0.002564  -0.063048  -0.023226  -0.430785   0.008089
     24       0.016599  -0.047514  -0.003286  -0.002621   0.002712  -0.035857
     25      -0.013845   0.030998  -0.002314   0.002606  -0.001161   0.051302
     26      -0.018333   0.051405   0.009511  -0.000181  -0.001184  -0.034785
     27       0.007381   0.032622  -0.246153  -0.020395   0.091533  -0.196169
     28       0.038726   0.035383  -0.256214  -0.023968   0.101302  -0.220951
     29      -0.026830   0.070774  -0.454639  -0.041422   0.171558  -0.371820
     30       0.024646  -0.036788   0.325584   0.028121  -0.044385  -0.127938
     31       0.017096   0.058541  -0.545191  -0.046369   0.067894   0.220218
     32       0.017065  -0.048075   0.432308   0.034886  -0.051500  -0.163519
     33       0.056431   0.000919  -0.000007   0.000083   0.000142   0.000490
     34       0.031927   0.000846   0.000080   0.000020  -0.000011  -0.000916
     35       0.049705   0.000972  -0.000196   0.000004  -0.000051   0.000926
     36      -0.006993  -0.096521  -0.040563   0.010499  -0.003022   0.320202
     37       0.045704   0.140408   0.065449  -0.016593   0.005253  -0.523991
     38       0.054791  -0.121400  -0.063298   0.017273  -0.005810   0.502956
     39      -0.002155   0.640534   0.065315   0.018619  -0.022420   0.111142
     40      -0.049023  -0.527044  -0.047766  -0.013788   0.014886  -0.084402
     41      -0.017603  -0.497504  -0.046993  -0.014805   0.016673  -0.095578
     42      -0.424468   0.000662   0.001171   0.000338   0.000160   0.000769
     43       0.190995  -0.005535  -0.000834  -0.000203   0.000440  -0.001186
     44      -0.523638   0.006782   0.002289  -0.000010  -0.001107  -0.003930
     45      -0.515981   0.003724   0.003945  -0.000201  -0.000619  -0.008106
     46      -0.472370   0.004561   0.000762   0.000325  -0.000066   0.009088
     47      -0.028587  -0.005106   0.002248  -0.000122   0.000136  -0.005358
                 42         43         44         45         46         47    
      0      -0.004773   0.013547   0.000890   0.079920  -0.000017   0.000026
      1      -0.003737   0.030604   0.053685   0.029856  -0.000009   0.000030
      2      -0.000711   0.023642   0.065282  -0.034281  -0.000011   0.000015
      3       0.012021  -0.050684   0.023279   0.011250   0.000017  -0.000060
      4       0.012645  -0.049591   0.022428   0.011286   0.000039   0.000027
      5       0.002675  -0.039671   0.021234   0.003001   0.000098   0.000058
      6       0.015703  -0.112378  -0.250655  -0.025972  -0.000119   0.000020
      7       0.011545  -0.100659  -0.213211  -0.028498   0.000030  -0.000118
      8       0.033524  -0.255432  -0.553451  -0.088027  -0.000050  -0.000056
      9       0.031398  -0.179008  -0.191150  -0.460521   0.000132   0.000076
     10       0.037183  -0.209692  -0.224211  -0.565559   0.000089  -0.000175
     11      -0.010861   0.063332   0.074150   0.150939   0.000089   0.000034
     12       0.012453   0.127822   0.424740  -0.468447   0.000079  -0.000021
     13      -0.007751  -0.053986  -0.197984   0.236428  -0.000007  -0.000103
     14      -0.009228  -0.087597  -0.302125   0.348005  -0.000028   0.000050
     15      -0.039701  -0.008672   0.002915   0.000077  -0.000205  -0.000067
     16       0.008681  -0.001626   0.000273   0.000938   0.000139  -0.000331
     17      -0.062241  -0.014107   0.004311   0.000687   0.000060   0.000274
     18      -0.102275   0.298940  -0.122955  -0.088922  -0.000195   0.000168
     19      -0.108689   0.310867  -0.129693  -0.095490  -0.000155   0.000048
     20       0.048699  -0.141678   0.057884   0.042780  -0.000039  -0.000108
     21      -0.044680   0.309453  -0.154783  -0.042169  -0.000034  -0.001023
     22      -0.038845   0.285895  -0.139125  -0.037513  -0.000267  -0.000156
     23      -0.086046   0.614171  -0.302343  -0.081774  -0.000509  -0.000303
     24      -0.024545  -0.002172  -0.000372  -0.001818   0.001289  -0.000186
     25       0.035586   0.003580   0.000835   0.002684  -0.002767   0.000715
     26      -0.026446  -0.003708  -0.000337  -0.001991  -0.001790  -0.001436
     27       0.248609   0.065249  -0.018488  -0.004235   0.000488   0.000634
     28       0.276883   0.073004  -0.025068  -0.005628   0.000592   0.000120
     29       0.459980   0.124570  -0.040736  -0.009729  -0.000887  -0.000268
     30       0.218913   0.034598  -0.012822   0.001263   0.002085  -0.001659
     31      -0.382439  -0.057836   0.019115  -0.002613  -0.000946   0.000074
     32       0.289567   0.043422  -0.014922   0.002042   0.000956  -0.000803
     33       0.000572  -0.000151   0.000079   0.000067   0.053491   0.017479
     34      -0.000516  -0.000071  -0.000079  -0.000104  -0.004575   0.064129
     35       0.000965   0.000339  -0.000175   0.000042   0.023070  -0.045579
     36       0.223150   0.025821   0.005953   0.017222  -0.003669   0.003873
     37      -0.370639  -0.042412  -0.007668  -0.029152   0.007467  -0.006719
     38       0.354826   0.040557   0.007289   0.027740  -0.003929   0.006868
     39       0.068159   0.003798   0.000979   0.005403  -0.007254  -0.000407
     40      -0.051330  -0.002296  -0.001368  -0.004519   0.003015  -0.000844
     41      -0.056564  -0.002970  -0.001021  -0.003649   0.000908   0.000135
     42       0.001150  -0.000722   0.000372   0.000141  -0.378300  -0.536945
     43      -0.000445   0.000079   0.000096  -0.000103  -0.410420  -0.527644
     44      -0.002085   0.000835  -0.000665  -0.000381   0.211091   0.277868
     45      -0.001360   0.000270  -0.000583  -0.000302  -0.369437   0.295826
     46       0.008082   0.000973   0.000069   0.000688   0.495129  -0.360878
     47      -0.001852  -0.000648   0.000118  -0.000268  -0.508593   0.362925


-----------
IR SPECTRUM
-----------

 Mode   freq       eps      Int      T**2         TX        TY        TZ
       cm**-1   L/(mol*cm) km/mol    a.u.
----------------------------------------------------------------------------
  6:     47.17   0.000195    0.99  0.001292  ( 0.016286 -0.004883  0.031667)
  7:    176.43   0.001032    5.21  0.001825  (-0.010492  0.022777 -0.034586)
  8:    244.46   0.006518   32.94  0.008321  ( 0.025770  0.076728 -0.042068)
  9:    265.51   0.000077    0.39  0.000091  (-0.003526 -0.008090  0.003629)
 10:    292.36   0.000947    4.79  0.001011  (-0.015472 -0.027324  0.005016)
 11:    395.71   0.000362    1.83  0.000286  (-0.003972 -0.015654 -0.004992)
 12:    530.89   0.001276    6.45  0.000750  ( 0.010569  0.024872  0.004451)
 13:    735.43   0.001406    7.11  0.000597  ( 0.023695  0.000152 -0.005943)
 14:    803.17   0.014874   75.16  0.005779  (-0.014240  0.050985  0.054559)
 15:    857.08   0.009080   45.89  0.003306  (-0.014486  0.033513  0.044420)
 16:    879.91   0.001562    7.90  0.000554  ( 0.013661 -0.006693 -0.017964)
 17:    957.67   0.000228    1.15  0.000074  (-0.008594 -0.000195  0.000538)
 18:    989.62   0.001701    8.60  0.000537  ( 0.009356 -0.016639 -0.013121)
 19:   1051.32   0.000452    2.28  0.000134  (-0.006937 -0.008344 -0.004042)
 20:   1071.04   0.000120    0.61  0.000035  ( 0.001718  0.002124  0.005238)
 21:   1138.01   0.000138    0.70  0.000038  ( 0.005344 -0.002457 -0.001790)
 22:   1159.41   0.002214   11.19  0.000596  (-0.006495 -0.014986 -0.018141)
 23:   1207.31   0.000597    3.02  0.000154  (-0.008803  0.003779  0.007907)
 24:   1276.51   0.000652    3.29  0.000159  ( 0.011805 -0.001575 -0.004180)
 25:   1319.20   0.000272    1.37  0.000064  ( 0.005253  0.005792  0.001776)
 26:   1326.15   0.000468    2.37  0.000110  (-0.008349 -0.000015 -0.006358)
 27:   1363.38   0.000338    1.71  0.000077  ( 0.008568  0.001872 -0.000690)
 28:   1403.16   0.001246    6.30  0.000277  ( 0.013434 -0.001031  0.009775)
 29:   1417.89   0.000833    4.21  0.000183  ( 0.007576 -0.010314  0.004422)
 30:   1443.24   0.001604    8.11  0.000347  (-0.008839 -0.011923 -0.011252)
 31:   1457.17   0.000854    4.32  0.000183  (-0.007051  0.007781  0.008522)
 32:   1466.02   0.000336    1.70  0.000072  ( 0.005679  0.005447 -0.003104)
 33:   1475.94   0.001995   10.08  0.000422  ( 0.012788  0.015968  0.001801)
 34:   1485.43   0.001178    5.95  0.000248  (-0.008938  0.005170  0.011872)
 35:   1506.55   0.001100    5.56  0.000228  ( 0.007691  0.012961  0.000883)
 36:   1641.14   0.005806   29.34  0.001104  (-0.030568 -0.001881 -0.012886)
 37:   2993.05   0.016539   83.58  0.001724  (-0.020891  0.015396  0.032418)
 38:   3051.05   0.007568   38.24  0.000774  (-0.009896  0.024698  0.008131)
 39:   3057.59   0.004399   22.23  0.000449  ( 0.010998 -0.010371  0.014848)
 40:   3077.78   0.006163   31.15  0.000625  (-0.010834 -0.017902  0.013676)
 41:   3093.71   0.002097   10.60  0.000212  (-0.006813  0.012421  0.003293)
 42:   3107.20   0.010839   54.77  0.001089  (-0.016219  0.014991 -0.024510)
 43:   3133.81   0.001767    8.93  0.000176  (-0.011214 -0.002915 -0.006456)
 44:   3152.26   0.007430   37.55  0.000736  ( 0.004563  0.017531  0.020185)
 45:   3163.83   0.005381   27.20  0.000531  ( 0.020121  0.008230 -0.007630)
 46:   3561.44   0.000138    0.70  0.000012  (-0.003375  0.000436  0.000727)
 47:   3648.08   0.000582    2.94  0.000050  (-0.001696 -0.005685  0.003821)

* The epsilon (eps) is given for a Dirac delta lineshape.
** The dipole moment derivative (T) already includes vibrational overlap.

The first frequency considered to be a vibration is 6
The total number of vibrations considered is 42


--------------------------
THERMOCHEMISTRY AT 298.15K
--------------------------

Temperature         ... 298.15 K
Pressure            ... 1.00 atm
Total Mass          ... 73.14 AMU

Throughout the following assumptions are being made:
  (1) The electronic state is orbitally nondegenerate
  (2) There are no thermally accessible electronically excited states
  (3) Hindered rotations indicated by low frequency modes are not
      treated as such but are treated as vibrations and this may
      cause some error
  (4) All equations used are the standard statistical mechanics
      equations for an ideal gas
  (5) All vibrations are strictly harmonic

freq.      47.17  E(vib)   ...       0.53 
freq.     176.43  E(vib)   ...       0.38 
freq.     244.46  E(vib)   ...       0.31 
freq.     265.51  E(vib)   ...       0.29 
freq.     292.36  E(vib)   ...       0.27 
freq.     395.71  E(vib)   ...       0.20 
freq.     530.89  E(vib)   ...       0.13 
freq.     735.43  E(vib)   ...       0.06 
freq.     803.17  E(vib)   ...       0.05 
freq.     857.08  E(vib)   ...       0.04 
freq.     879.91  E(vib)   ...       0.04 
freq.     957.67  E(vib)   ...       0.03 
freq.     989.62  E(vib)   ...       0.02 
freq.    1051.32  E(vib)   ...       0.02 
freq.    1071.04  E(vib)   ...       0.02 
freq.    1138.01  E(vib)   ...       0.01 
freq.    1159.41  E(vib)   ...       0.01 
freq.    1207.31  E(vib)   ...       0.01 
freq.    1276.51  E(vib)   ...       0.01 
freq.    1319.20  E(vib)   ...       0.01 
freq.    1326.15  E(vib)   ...       0.01 
freq.    1363.38  E(vib)   ...       0.01 
freq.    1403.16  E(vib)   ...       0.00 
freq.    1417.89  E(vib)   ...       0.00 
freq.    1443.24  E(vib)   ...       0.00 
freq.    1457.17  E(vib)   ...       0.00 
freq.    1466.02  E(vib)   ...       0.00 
freq.    1475.94  E(vib)   ...       0.00 
freq.    1485.43  E(vib)   ...       0.00 
freq.    1506.55  E(vib)   ...       0.00 
freq.    1641.14  E(vib)   ...       0.00 
freq.    2993.05  E(vib)   ...       0.00 
freq.    3051.05  E(vib)   ...       0.00 
freq.    3057.59  E(vib)   ...       0.00 
freq.    3077.78  E(vib)   ...       0.00 
freq.    3093.71  E(vib)   ...       0.00 
freq.    3107.20  E(vib)   ...       0.00 
freq.    3133.81  E(vib)   ...       0.00 
freq.    3152.26  E(vib)   ...       0.00 
freq.    3163.83  E(vib)   ...       0.00 
freq.    3561.44  E(vib)   ...       0.00 
freq.    3648.08  E(vib)   ...       0.00 

------------
INNER ENERGY
------------

The inner energy is: U= E(el) + E(ZPE) + E(vib) + E(rot) + E(trans)
    E(el)   - is the total energy from the electronic structure calculation
              = E(kin-el) + E(nuc-el) + E(el-el) + E(nuc-nuc)
    E(ZPE)  - the the zero temperature vibrational energy from the frequency calculation
    E(vib)  - the the finite temperature correction to E(ZPE) due to population
              of excited vibrational states
    E(rot)  - is the rotational thermal energy
    E(trans)- is the translational thermal energy

Summary of contributions to the inner energy U:
Electronic energy                ...   -213.59083173 Eh
Zero point energy                ...      0.15132517 Eh      94.96 kcal/mol
Thermal vibrational correction   ...      0.00393179 Eh       2.47 kcal/mol
Thermal rotational correction    ...      0.00141627 Eh       0.89 kcal/mol
Thermal translational correction ...      0.00141627 Eh       0.89 kcal/mol
-----------------------------------------------------------------------
Total thermal energy                   -213.43274223 Eh


Summary of corrections to the electronic energy:
(perhaps to be used in another calculation)
Total thermal correction                  0.00676433 Eh       4.24 kcal/mol
Non-thermal (ZPE) correction              0.15132517 Eh      94.96 kcal/mol
-----------------------------------------------------------------------
Total correction                          0.15808950 Eh      99.20 kcal/mol


--------
ENTHALPY
--------

The enthalpy is H = U + kB*T
                kB is Boltzmann's constant
Total free energy                 ...   -213.43274223 Eh 
Thermal Enthalpy correction       ...      0.00094421 Eh       0.59 kcal/mol
-----------------------------------------------------------------------
Total Enthalpy                    ...   -213.43179802 Eh


Note: Only C1 symmetry has been detected, increase convergence thresholds 
      if your molecule has a higher symmetry. Symmetry factor of 1.0 is   
      used for the rotational entropy correction. 
 

Note: Rotational entropy computed according to Herzberg 
Infrared and Raman Spectra, Chapter V,1, Van Nostrand Reinhold, 1945 
Point Group:  C1, Symmetry Number:   1  
Rotational constants in cm-1:     0.259472     0.102429     0.092286 

Vibrational entropy computed according to the QRRHO of S. Grimme
Chem.Eur.J. 2012 18 9955


-------
ENTROPY
-------

The entropy contributions are T*S = T*(S(el)+S(vib)+S(rot)+S(trans))
     S(el)   - electronic entropy
     S(vib)  - vibrational entropy
     S(rot)  - rotational entropy
     S(trans)- translational entropy
The entropies will be listed as multiplied by the temperature to get
units of energy

Electronic entropy                ...      0.00000000 Eh      0.00 kcal/mol
Vibrational entropy               ...      0.00663691 Eh      4.16 kcal/mol
Rotational entropy                ...      0.01234833 Eh      7.75 kcal/mol
Translational entropy             ...      0.01842822 Eh     11.56 kcal/mol
-----------------------------------------------------------------------
Final entropy term                ...      0.03741346 Eh     23.48 kcal/mol

In case the symmetry of your molecule has not been determined correctly
or in case you have a reason to use a different symmetry number we print 
out the resulting rotational entropy values for sn=1,12 :
 --------------------------------------------------------
|  sn= 1 | S(rot)=       0.01234833 Eh      7.75 kcal/mol|
|  sn= 2 | S(rot)=       0.01169388 Eh      7.34 kcal/mol|
|  sn= 3 | S(rot)=       0.01131104 Eh      7.10 kcal/mol|
|  sn= 4 | S(rot)=       0.01103942 Eh      6.93 kcal/mol|
|  sn= 5 | S(rot)=       0.01082873 Eh      6.80 kcal/mol|
|  sn= 6 | S(rot)=       0.01065659 Eh      6.69 kcal/mol|
|  sn= 7 | S(rot)=       0.01051104 Eh      6.60 kcal/mol|
|  sn= 8 | S(rot)=       0.01038496 Eh      6.52 kcal/mol|
|  sn= 9 | S(rot)=       0.01027376 Eh      6.45 kcal/mol|
|  sn=10 | S(rot)=       0.01017428 Eh      6.38 kcal/mol|
|  sn=11 | S(rot)=       0.01008429 Eh      6.33 kcal/mol|
|  sn=12 | S(rot)=       0.01000213 Eh      6.28 kcal/mol|
 --------------------------------------------------------


-------------------
GIBBS FREE ENERGY
-------------------

The Gibbs free energy is G = H - T*S

Total enthalpy                    ...   -213.43179802 Eh 
Total entropy correction          ...     -0.03741346 Eh    -23.48 kcal/mol
-----------------------------------------------------------------------
Final Gibbs free energy         ...   -213.46921148 Eh

For completeness - the Gibbs free energy minus the electronic energy
G-E(el)                           ...      0.12162025 Eh     76.32 kcal/mol


Timings for individual modules:

Sum of individual times         ...      182.918 sec (=   3.049 min)
GTO integral calculation        ...        4.984 sec (=   0.083 min)   2.7 %
SCF iterations                  ...       95.614 sec (=   1.594 min)  52.3 %
SCF Gradient evaluation         ...       28.253 sec (=   0.471 min)  15.4 %
Geometry relaxation             ...        0.847 sec (=   0.014 min)   0.5 %
Analytical frequency calculation...       53.220 sec (=   0.887 min)  29.1 %
                             ****ORCA TERMINATED NORMALLY****
TOTAL RUN TIME: 0 days 0 hours 3 minutes 7 seconds 300 msec
