
                                 *****************
                                 * O   R   C   A *
                                 *****************

                                            #,                                       
                                            ###                                      
                                            ####                                     
                                            #####                                    
                                            ######                                   
                                           ########,                                 
                                     ,,################,,,,,                         
                               ,,#################################,,                 
                          ,,##########################################,,             
                       ,#########################################, ''#####,          
                    ,#############################################,,   '####,        
                  ,##################################################,,,,####,       
                ,###########''''           ''''###############################       
              ,#####''   ,,,,##########,,,,          '''####'''          '####       
            ,##' ,,,,###########################,,,                        '##       
           ' ,,###''''                  '''############,,,                           
         ,,##''                                '''############,,,,        ,,,,,,###''
      ,#''                                            '''#######################'''  
     '                                                          ''''####''''         
             ,#######,   #######,   ,#######,      ##                                
            ,#'     '#,  ##    ##  ,#'     '#,    #''#        ######   ,####,        
            ##       ##  ##   ,#'  ##            #'  '#       #        #'  '#        
            ##       ##  #######   ##           ,######,      #####,   #    #        
            '#,     ,#'  ##    ##  '#,     ,#' ,#      #,         ##   #,  ,#        
             '#######'   ##     ##  '#######'  #'      '#     #####' # '####'        



                  #######################################################
                  #                        -***-                        #
                  #          Department of theory and spectroscopy      #
                  #    Directorship and core code : Frank Neese         #
                  #        Max Planck Institute fuer Kohlenforschung    #
                  #                Kaiser Wilhelm Platz 1               #
                  #                 D-45470 Muelheim/Ruhr               #
                  #                      Germany                        #
                  #                                                     #
                  #                  All rights reserved                #
                  #                        -***-                        #
                  #######################################################


                         Program Version 5.0.4 -  RELEASE  -


 With contributions from (in alphabetic order):
   Daniel Aravena         : Magnetic Suceptibility
   Michael Atanasov       : Ab Initio Ligand Field Theory (pilot matlab implementation)
   Alexander A. Auer      : GIAO ZORA, VPT2 properties, NMR spectrum
   Ute Becker             : Parallelization
   Giovanni Bistoni       : ED, misc. LED, open-shell LED, HFLD
   Martin Brehm           : Molecular dynamics
   Dmytro Bykov           : SCF Hessian
   Vijay G. Chilkuri      : MRCI spin determinant printing, contributions to CSF-ICE
   Dipayan Datta          : RHF DLPNO-CCSD density
   Achintya Kumar Dutta   : EOM-CC, STEOM-CC
   Dmitry Ganyushin       : Spin-Orbit,Spin-Spin,Magnetic field MRCI
   Miquel Garcia          : C-PCM and meta-GGA Hessian, CC/C-PCM, Gaussian charge scheme
   Yang Guo               : DLPNO-NEVPT2, F12-NEVPT2, CIM, IAO-localization
   Andreas Hansen         : Spin unrestricted coupled pair/coupled cluster methods
   Benjamin Helmich-Paris : MC-RPA, TRAH-SCF, COSX integrals
   Lee Huntington         : MR-EOM, pCC
   Robert Izsak           : Overlap fitted RIJCOSX, COSX-SCS-MP3, EOM
   Marcus Kettner         : VPT2
   Christian Kollmar      : KDIIS, OOCD, Brueckner-CCSD(T), CCSD density, CASPT2, CASPT2-K
   Simone Kossmann        : Meta GGA functionals, TD-DFT gradient, OOMP2, MP2 Hessian
   Martin Krupicka        : Initial AUTO-CI
   Lucas Lang             : DCDCAS
   Marvin Lechner         : AUTO-CI (C++ implementation), FIC-MRCC
   Dagmar Lenk            : GEPOL surface, SMD
   Dimitrios Liakos       : Extrapolation schemes; Compound Job, initial MDCI parallelization
   Dimitrios Manganas     : Further ROCIS development; embedding schemes
   Dimitrios Pantazis     : SARC Basis sets
   Anastasios Papadopoulos: AUTO-CI, single reference methods and gradients
   Taras Petrenko         : DFT Hessian,TD-DFT gradient, ASA, ECA, R-Raman, ABS, FL, XAS/XES, NRVS
   Peter Pinski           : DLPNO-MP2, DLPNO-MP2 Gradient
   Christoph Reimann      : Effective Core Potentials
   Marius Retegan         : Local ZFS, SOC
   Christoph Riplinger    : Optimizer, TS searches, QM/MM, DLPNO-CCSD(T), (RO)-DLPNO pert. Triples
   Tobias Risthaus        : Range-separated hybrids, TD-DFT gradient, RPA, STAB
   Michael Roemelt        : Original ROCIS implementation
   Masaaki Saitow         : Open-shell DLPNO-CCSD energy and density
   Barbara Sandhoefer     : DKH picture change effects
   Avijit Sen             : IP-ROCIS
   Kantharuban Sivalingam : CASSCF convergence, NEVPT2, FIC-MRCI
   Bernardo de Souza      : ESD, SOC TD-DFT
   Georgi Stoychev        : AutoAux, RI-MP2 NMR, DLPNO-MP2 response
   Willem Van den Heuvel  : Paramagnetic NMR
   Boris Wezisla          : Elementary symmetry handling
   Frank Wennmohs         : Technical directorship


 We gratefully acknowledge several colleagues who have allowed us to
 interface, adapt or use parts of their codes:
   Stefan Grimme, W. Hujo, H. Kruse, P. Pracht,  : VdW corrections, initial TS optimization,
                  C. Bannwarth, S. Ehlert          DFT functionals, gCP, sTDA/sTD-DF
   Ed Valeev, F. Pavosevic, A. Kumar             : LibInt (2-el integral package), F12 methods
   Garnet Chan, S. Sharma, J. Yang, R. Olivares  : DMRG
   Ulf Ekstrom                                   : XCFun DFT Library
   Mihaly Kallay                                 : mrcc  (arbitrary order and MRCC methods)
   Jiri Pittner, Ondrej Demel                    : Mk-CCSD
   Frank Weinhold                                : gennbo (NPA and NBO analysis)
   Christopher J. Cramer and Donald G. Truhlar   : smd solvation model
   Lars Goerigk                                  : TD-DFT with DH, B97 family of functionals
   V. Asgeirsson, H. Jonsson                     : NEB implementation
   FAccTs GmbH                                   : IRC, NEB, NEB-TS, DLPNO-Multilevel, CI-OPT
                                                   MM, QMMM, 2- and 3-layer-ONIOM, Crystal-QMMM,
                                                   LR-CPCM, SF, NACMEs, symmetry and pop. for TD-DFT,
                                                   nearIR, NL-DFT gradient (VV10), updates on ESD,
                                                   ML-optimized integration grids
   S Lehtola, MJT Oliveira, MAL Marques          : LibXC Library
   Liviu Ungur et al                             : ANISO software


 Your calculation uses the libint2 library for the computation of 2-el integrals
 For citations please refer to: http://libint.valeyev.net

 Your ORCA version has been built with support for libXC version: 5.1.0
 For citations please refer to: https://tddft.org/programs/libxc/

 This ORCA versions uses:
   CBLAS   interface :  Fast vector & matrix operations
   LAPACKE interface :  Fast linear algebra routines
   SCALAPACK package :  Parallel linear algebra routines
   Shared memory     :  Shared parallel matrices
   BLAS/LAPACK       :  OpenBLAS 0.3.15  USE64BITINT DYNAMIC_ARCH NO_AFFINITY SkylakeX SINGLE_THREADED
        Core in use  :  SkylakeX
   Copyright (c) 2011-2014, The OpenBLAS Project




***************************************
The coordinates will be read from file: butylamine_prot_aq_7.xyz
***************************************


Your calculation utilizes the atom-pairwise dispersion correction
based on tight binding partial charges (D4)
Cite in your paper:
E.Caldeweyher, C.Bannwarth, S.Grimme, J.Chem.Phys., (2017), 147, 034112.
E.Caldeweyher, S.Ehlert, A.Hansen, H.Neugebauer, S.Grimme, J.Chem.Phys., (2018), in progress.
   

XCFun DFT library Copyright 2009-2010 Ulf Ekstrom and contributors.
See http://admol.org/xcfun for more information.
This is free software; see the source code for copying conditions.
There is ABSOLUTELY NO WARRANTY; not even for MERCHANTABILITY or FITNESS FOR A PARTICULAR PURPOSE.
For details see the documentation.
Scientific users of this library should cite U. Ekstrom, L. Visscher, R. Bast, A. J. Thorvaldsen and K. Ruud;
J.Chem.Theor.Comp. 2010, DOI: 10.1021/ct100117s
XCFun Version 0.99 

================================================================================

----- Orbital basis set information -----
Your calculation utilizes the basis: def2-SVP
   F. Weigend and R. Ahlrichs, Phys. Chem. Chem. Phys. 7, 3297 (2005).

----- AuxJ basis set information -----
Your calculation utilizes the auxiliary basis: def2/J
   F. Weigend, Phys. Chem. Chem. Phys. 8, 1057 (2006).

================================================================================
                                        WARNINGS
                       Please study these warnings very carefully!
================================================================================


WARNING: Geometry Optimization
  ===> : Switching off AutoStart
         For restart on a previous wavefunction, please use MOREAD

INFO   : the flag for use of the SHARK integral package has been found!

================================================================================
                                       INPUT FILE
================================================================================
NAME = butylamine_prot_aq_7.inp
|  1> # ORCA 5.0.4 - /users/bwb16179/postgrad/2024_06/pKa_Reviewer_Comments/CREST_Confs/butylamine/butylamine_prot_aq_7.inp # write input file
|  2> # Basic Mode
|  3> #
|  4> ! Opt Freq wB97X Def2-SVP D4 SlowConv TightSCF Defgrid2 Def2/J RIJCOSX 
|  5> 
|  6> %PAL NPROCS 4 END
|  7> 
|  8> %maxcore 4500
|  9> 
| 10> %geom
| 11> Maxiter 150
| 12> END
| 13> 
| 14> * xyzfile 1 1 butylamine_prot_aq_7.xyz
| 15> 
| 16>                          ****END OF INPUT****
================================================================================

                       *****************************
                       * Geometry Optimization Run *
                       *****************************

Geometry optimization settings:
Update method            Update   .... BFGS
Choice of coordinates    CoordSys .... Z-matrix Internals
Initial Hessian          InHess   .... Almoef's Model

Convergence Tolerances:
Energy Change            TolE     ....  5.0000e-06 Eh
Max. Gradient            TolMAXG  ....  3.0000e-04 Eh/bohr
RMS Gradient             TolRMSG  ....  1.0000e-04 Eh/bohr
Max. Displacement        TolMAXD  ....  4.0000e-03 bohr
RMS Displacement         TolRMSD  ....  2.0000e-03 bohr
Strict Convergence                ....  False
------------------------------------------------------------------------------
                        ORCA OPTIMIZATION COORDINATE SETUP
------------------------------------------------------------------------------

The optimization will be done in new redundant internal coordinates
Making redundant internal coordinates   ...  (new redundants) done
Evaluating the initial hessian          ...  (Almloef) done
Evaluating the coordinates              ...  done
Calculating the B-matrix                .... done
Calculating the G-matrix                .... done
Diagonalizing the G-matrix              .... done
Small eigenvalue found = 2.487e-02
The first mode is                       ....   37
The number of degrees of freedom        ....   45

    -----------------------------------------------------------------
                    Redundant Internal Coordinates


    -----------------------------------------------------------------
         Definition                    Initial Value    Approx d2E/dq
    -----------------------------------------------------------------
      1. B(C   1,C   0)                  1.5259         0.379232   
      2. B(H   2,C   0)                  1.0868         0.364403   
      3. B(H   3,C   0)                  1.0877         0.363173   
      4. B(H   4,C   0)                  1.0878         0.363020   
      5. B(C   5,C   1)                  1.5312         0.371990   
      6. B(H   6,C   1)                  1.0912         0.358520   
      7. B(H   7,C   1)                  1.0912         0.358471   
      8. B(C   8,C   5)                  1.5342         0.367819   
      9. B(H   9,C   5)                  1.0908         0.359049   
     10. B(H  10,C   5)                  1.0891         0.361243   
     11. B(N  11,C   8)                  1.4909         0.386262   
     12. B(H  12,C   8)                  1.0894         0.360940   
     13. B(H  13,C   8)                  1.0899         0.360273   
     14. B(H  14,N  11)                  1.0307         0.401033   
     15. B(H  15,N  11)                  1.0303         0.401619   
     16. B(H  16,N  11)                  1.0309         0.400725   
     17. A(H   3,C   0,H   4)          107.6191         0.291598   
     18. A(C   1,C   0,H   4)          110.6692         0.325553   
     19. A(C   1,C   0,H   2)          112.0100         0.325756   
     20. A(H   2,C   0,H   4)          109.1040         0.291753   
     21. A(H   2,C   0,H   3)          107.3349         0.291772   
     22. A(C   1,C   0,H   3)          109.9508         0.325575   
     23. A(C   0,C   1,C   5)          112.7616         0.364022   
     24. A(H   6,C   1,H   7)          107.1783         0.290432   
     25. A(C   5,C   1,H   7)          109.7585         0.323851   
     26. A(C   0,C   1,H   7)          109.7956         0.324879   
     27. A(C   5,C   1,H   6)          108.5587         0.323859   
     28. A(C   0,C   1,H   6)          108.6178         0.324886   
     29. A(C   1,C   5,H   9)          107.8420         0.323937   
     30. A(C   1,C   5,C   8)          112.6296         0.362126   
     31. A(C   8,C   5,H   9)          110.3566         0.323338   
     32. A(H   9,C   5,H  10)          107.2821         0.290851   
     33. A(C   8,C   5,H  10)          110.0802         0.323662   
     34. A(C   1,C   5,H  10)          108.4728         0.324261   
     35. A(H  12,C   8,H  13)          108.1795         0.290968   
     36. A(N  11,C   8,H  13)          108.4121         0.324179   
     37. A(C   5,C   8,H  13)          109.9457         0.323519   
     38. A(N  11,C   8,H  12)          108.4377         0.324277   
     39. A(C   5,C   8,H  12)          110.5773         0.323617   
     40. A(C   5,C   8,N  11)          111.2035         0.362197   
     41. A(H  15,N  11,H  16)          108.8001         0.296042   
     42. A(H  14,N  11,H  16)          108.5835         0.295974   
     43. A(C   8,N  11,H  16)          109.9336         0.327105   
     44. A(H  14,N  11,H  15)          108.7140         0.296078   
     45. A(C   8,N  11,H  15)          110.6891         0.327225   
     46. A(C   8,N  11,H  14)          110.0733         0.327146   
     47. D(H   6,C   1,C   0,H   4)    -62.0184         0.011465   
     48. D(H   7,C   1,C   0,H   4)   -178.9217         0.011465   
     49. D(H   7,C   1,C   0,H   3)    -60.1638         0.011465   
     50. D(H   6,C   1,C   0,H   2)    175.9902         0.011465   
     51. D(C   5,C   1,C   0,H   4)     58.3503         0.011465   
     52. D(H   6,C   1,C   0,H   3)     56.7395         0.011465   
     53. D(C   5,C   1,C   0,H   3)    177.1082         0.011465   
     54. D(C   5,C   1,C   0,H   2)    -63.6411         0.011465   
     55. D(H   7,C   1,C   0,H   2)     59.0869         0.011465   
     56. D(H   9,C   5,C   1,H   6)     68.3540         0.011055   
     57. D(C   8,C   5,C   1,H   7)    -52.7853         0.011055   
     58. D(C   8,C   5,C   1,H   6)   -169.6340         0.011055   
     59. D(C   8,C   5,C   1,C   0)     69.9634         0.011055   
     60. D(H   9,C   5,C   1,H   7)   -174.7973         0.011055   
     61. D(H  10,C   5,C   1,H   7)     69.3176         0.011055   
     62. D(H  10,C   5,C   1,H   6)    -47.5311         0.011055   
     63. D(H  10,C   5,C   1,C   0)   -167.9337         0.011055   
     64. D(H   9,C   5,C   1,C   0)    -52.0486         0.011055   
     65. D(H  13,C   8,C   5,H   9)    115.1571         0.010823   
     66. D(H  13,C   8,C   5,C   1)     -5.4224         0.010823   
     67. D(H  12,C   8,C   5,H  10)     -7.2224         0.010823   
     68. D(H  12,C   8,C   5,H   9)   -125.4522         0.010823   
     69. D(H  12,C   8,C   5,C   1)    113.9683         0.010823   
     70. D(N  11,C   8,C   5,H  10)    113.3084         0.010823   
     71. D(N  11,C   8,C   5,H   9)     -4.9214         0.010823   
     72. D(H  13,C   8,C   5,H  10)   -126.6131         0.010823   
     73. D(N  11,C   8,C   5,C   1)   -125.5009         0.010823   
     74. D(H  15,N  11,C   8,C   5)    179.7821         0.013652   
     75. D(H  14,N  11,C   8,H  13)    179.0072         0.013652   
     76. D(H  14,N  11,C   8,H  12)     61.7747         0.013652   
     77. D(H  14,N  11,C   8,C   5)    -60.0098         0.013652   
     78. D(H  16,N  11,C   8,H  13)    -61.4257         0.013652   
     79. D(H  16,N  11,C   8,H  12)   -178.6582         0.013652   
     80. D(H  16,N  11,C   8,C   5)     59.5573         0.013652   
     81. D(H  15,N  11,C   8,H  13)     58.7990         0.013652   
     82. D(H  15,N  11,C   8,H  12)    -58.4334         0.013652   
    -----------------------------------------------------------------

Number of atoms                         .... 17
Number of degrees of freedom            .... 82

         *************************************************************
         *                GEOMETRY OPTIMIZATION CYCLE   1            *
         *************************************************************
---------------------------------
CARTESIAN COORDINATES (ANGSTROEM)
---------------------------------
  C     -1.867780   -0.829154   -0.015381
  C     -1.419994    0.615275   -0.219120
  H     -1.246134   -1.529854   -0.566414
  H     -2.888822   -0.954524   -0.368676
  H     -1.850071   -1.091375    1.040194
  C     -0.012598    0.881137    0.322171
  H     -2.120735    1.273360    0.297211
  H     -1.461359    0.868919   -1.279660
  C      1.078978    0.194178   -0.508733
  H      0.019938    0.531252    1.354816
  H      0.152702    1.957511    0.339886
  N      1.948281   -0.663411    0.346640
  H      1.705961    0.934567   -1.004146
  H      0.623589   -0.433119   -1.274848
  H      2.405919   -0.091369    1.071667
  H      2.675819   -1.123458   -0.219536
  H      1.380136   -1.388149    0.810025

----------------------------
CARTESIAN COORDINATES (A.U.)
----------------------------
  NO LB      ZA    FRAG     MASS         X           Y           Z
   0 C     6.0000    0    12.011   -3.529593   -1.566874   -0.029065
   1 C     6.0000    0    12.011   -2.683400    1.162701   -0.414077
   2 H     1.0000    0     1.008   -2.354853   -2.891005   -1.070367
   3 H     1.0000    0     1.008   -5.459083   -1.803788   -0.696697
   4 H     1.0000    0     1.008   -3.496128   -2.062400    1.965682
   5 C     6.0000    0    12.011   -0.023807    1.665107    0.608814
   6 H     1.0000    0     1.008   -4.007608    2.406301    0.561648
   7 H     1.0000    0     1.008   -2.761568    1.642018   -2.418207
   8 C     6.0000    0    12.011    2.038973    0.366943   -0.961365
   9 H     1.0000    0     1.008    0.037677    1.003922    2.560231
  10 H     1.0000    0     1.008    0.288564    3.699160    0.642291
  11 N     7.0000    0    14.007    3.681718   -1.253665    0.655054
  12 H     1.0000    0     1.008    3.223799    1.766075   -1.897561
  13 H     1.0000    0     1.008    1.178412   -0.818477   -2.409114
  14 H     1.0000    0     1.008    4.546528   -0.172663    2.025157
  15 H     1.0000    0     1.008    5.056564   -2.123028   -0.414863
  16 H     1.0000    0     1.008    2.608080   -2.623221    1.530725

--------------------------------
INTERNAL COORDINATES (ANGSTROEM)
--------------------------------
 C      0   0   0     0.000000000000     0.00000000     0.00000000
 C      1   0   0     1.525908294689     0.00000000     0.00000000
 H      1   2   0     1.086766506720   112.00997068     0.00000000
 H      1   2   3     1.087686529715   109.95084543   240.74928736
 H      1   2   3     1.087801558932   110.66916016   121.99144500
 C      2   1   3     1.531156898458   112.76159187   296.35888082
 H      2   1   3     1.091197185656   108.61777322   175.99017201
 H      2   1   3     1.091234130929   109.79564776    59.08689481
 C      6   2   1     1.534226364695   112.62956517    69.96342566
 H      6   2   1     1.090795337780   107.84197268   307.95141848
 H      6   2   1     1.089137091984   108.47277236   192.06631583
 N      9   6   2     1.490908447554   111.20350089   234.49906001
 H      9   6   2     1.089365918150   110.57725046   113.96831209
 H      9   6   2     1.089868995412   109.94566469   354.57763382
 H     12   9   6     1.030693263870   110.07328886   299.99022247
 H     12   9   6     1.030295818503   110.68909348   179.78206471
 H     12   9   6     1.030902098921   109.93357205    59.55729949

---------------------------
INTERNAL COORDINATES (A.U.)
---------------------------
 C      0   0   0     0.000000000000     0.00000000     0.00000000
 C      1   0   0     2.883548782440     0.00000000     0.00000000
 H      1   2   0     2.053691069218   112.00997068     0.00000000
 H      1   2   3     2.055429660717   109.95084543   240.74928736
 H      1   2   3     2.055647034434   110.66916016   121.99144500
 C      2   1   3     2.893467206150   112.76159187   296.35888082
 H      2   1   3     2.062063838995   108.61777322   175.99017201
 H      2   1   3     2.062133655444   109.79564776    59.08689481
 C      6   2   1     2.899267656716   112.62956517    69.96342566
 H      6   2   1     2.061304456562   107.84197268   307.95141848
 H      6   2   1     2.058170826145   108.47277236   192.06631583
 N      9   6   2     2.817408656627   111.20350089   234.49906001
 H      9   6   2     2.058603244931   110.57725046   113.96831209
 H      9   6   2     2.059553923180   109.94566469   354.57763382
 H     12   9   6     1.947727996792   110.07328886   299.99022247
 H     12   9   6     1.946976933894   110.68909348   179.78206471
 H     12   9   6     1.948122637845   109.93357205    59.55729949

---------------------
BASIS SET INFORMATION
---------------------
There are 3 groups of distinct atoms

 Group   1 Type C   : 7s4p1d contracted to 3s2p1d pattern {511/31/1}
 Group   2 Type H   : 4s1p contracted to 2s1p pattern {31/1}
 Group   3 Type N   : 7s4p1d contracted to 3s2p1d pattern {511/31/1}

Atom   0C    basis set group =>   1
Atom   1C    basis set group =>   1
Atom   2H    basis set group =>   2
Atom   3H    basis set group =>   2
Atom   4H    basis set group =>   2
Atom   5C    basis set group =>   1
Atom   6H    basis set group =>   2
Atom   7H    basis set group =>   2
Atom   8C    basis set group =>   1
Atom   9H    basis set group =>   2
Atom  10H    basis set group =>   2
Atom  11N    basis set group =>   3
Atom  12H    basis set group =>   2
Atom  13H    basis set group =>   2
Atom  14H    basis set group =>   2
Atom  15H    basis set group =>   2
Atom  16H    basis set group =>   2
---------------------------------
AUXILIARY/J BASIS SET INFORMATION
---------------------------------
There are 3 groups of distinct atoms

 Group   1 Type C   : 12s5p4d2f1g contracted to 6s4p3d1f1g pattern {711111/2111/211/2/1}
 Group   2 Type H   : 5s2p1d contracted to 3s1p1d pattern {311/2/1}
 Group   3 Type N   : 12s5p4d2f1g contracted to 6s4p3d1f1g pattern {711111/2111/211/2/1}

Atom   0C    basis set group =>   1
Atom   1C    basis set group =>   1
Atom   2H    basis set group =>   2
Atom   3H    basis set group =>   2
Atom   4H    basis set group =>   2
Atom   5C    basis set group =>   1
Atom   6H    basis set group =>   2
Atom   7H    basis set group =>   2
Atom   8C    basis set group =>   1
Atom   9H    basis set group =>   2
Atom  10H    basis set group =>   2
Atom  11N    basis set group =>   3
Atom  12H    basis set group =>   2
Atom  13H    basis set group =>   2
Atom  14H    basis set group =>   2
Atom  15H    basis set group =>   2
Atom  16H    basis set group =>   2


           ************************************************************
           *        Program running with 4 parallel MPI-processes     *
           *              working on a common directory               *
           ************************************************************
------------------------------------------------------------------------------
                           ORCA GTO INTEGRAL CALCULATION
                           -- RI-GTO INTEGRALS CHOSEN --
------------------------------------------------------------------------------
------------------------------------------------------------------------------
                   ___                                                        
                  /   \      - P O W E R E D   B Y -                         
                 /     \                                                     
                 |  |  |   _    _      __       _____    __    __             
                 |  |  |  | |  | |    /  \     |  _  \  |  |  /  |          
                  \  \/   | |  | |   /    \    | | | |  |  | /  /          
                 / \  \   | |__| |  /  /\  \   | |_| |  |  |/  /          
                |  |  |   |  __  | /  /__\  \  |    /   |      \           
                |  |  |   | |  | | |   __   |  |    \   |  |\   \          
                \     /   | |  | | |  |  |  |  | |\  \  |  | \   \       
                 \___/    |_|  |_| |__|  |__|  |_| \__\ |__|  \__/        
                                                                              
                      - O R C A' S   B I G   F R I E N D -                    
                                      &                                       
                       - I N T E G R A L  F E E D E R -                       
                                                                              
 v1 FN, 2020, v2 2021                                                         
------------------------------------------------------------------------------


Reading SHARK input file butylamine_prot_aq_7.SHARKINP.tmp ... ok
----------------------
SHARK INTEGRAL PACKAGE
----------------------

Number of atoms                             ...     17
Number of basis functions                   ...    130
Number of shells                            ...     66
Maximum angular momentum                    ...      2
Integral batch strategy                     ... SHARK/LIBINT Hybrid
RI-J (if used) integral strategy            ... SPLIT-RIJ (Revised 2003 algorithm where possible)
Printlevel                                  ...      1
Contraction scheme used                     ... SEGMENTED contraction
Coulomb Range Separation                    ... NOT USED
Exchange Range Separation                   ... Long Range
   Mu parameter                             ...  0.300000
   Scaling (regular/separated)              ...  0.157706  0.842294
Finite Nucleus Model                        ... NOT USED
Auxiliary Coulomb fitting basis             ... AVAILABLE
   # of basis functions in Aux-J            ...    377
   # of shells in Aux-J                     ...    135
   Maximum angular momentum in Aux-J        ...      4
Auxiliary J/K fitting basis                 ... NOT available
Auxiliary Correlation fitting basis         ... NOT available
Auxiliary 'external' fitting basis          ... NOT available
Integral threshold                          ...     2.500000e-11
Primitive cut-off                           ...     2.500000e-12
Primitive pair pre-selection threshold      ...     2.500000e-12

Calculating pre-screening integrals         ... done (  0.0 sec) Dimension = 66
Organizing shell pair data                  ... done (  0.0 sec)
Shell pair information
Total number of shell pairs                 ...      2211
Shell pairs after pre-screening             ...      2159
Total number of primitive shell pairs       ...      7361
Primitive shell pairs kept                  ...      5693
          la=0 lb=0:    768 shell pairs
          la=1 lb=0:    833 shell pairs
          la=1 lb=1:    244 shell pairs
          la=2 lb=0:    191 shell pairs
          la=2 lb=1:    108 shell pairs
          la=2 lb=2:     15 shell pairs

Calculating one electron integrals          ... done (  0.0 sec)
Calculating RI/J V-Matrix + Cholesky decomp.... done (  0.0 sec)
Calculating Nuclear repulsion               ... done (  0.0 sec) ENN=    199.762200671864 Eh

SHARK setup successfully completed in   0.2 seconds

Maximum memory used throughout the entire GTOINT-calculation: 10.8 MB


           ************************************************************
           *        Program running with 4 parallel MPI-processes     *
           *              working on a common directory               *
           ************************************************************
-------------------------------------------------------------------------------
                                 ORCA SCF
-------------------------------------------------------------------------------

------------
SCF SETTINGS
------------
Hamiltonian:
 Density Functional     Method          .... DFT(GTOs)
 Exchange Functional    Exchange        .... WB97X
 Correlation Functional Correlation     .... WB97X
 Gradients option       PostSCFGGA      .... off
 Hybrid DFT is turned on
   Fraction HF Exchange ScalHFX         ....  0.157706
   Scaling of DF-GGA-X  ScalDFX         ....  0.000000
   Scaling of DF-GGA-C  ScalDFC         ....  1.000000
   Scaling of DF-LDA-C  ScalLDAC        ....  1.000000
   Perturbative correction              ....  0.000000
   Density functional embedding theory  .... OFF
 Long-range corrected/Screened/Range-Separated Hybrid DFT is turned on
   Amount of maximum screened exact exchange              ....  0.842294
   Range separation parameter mu (erf(mu*r12)/r12)        ....  0.300000
 RI-approximation to the Coulomb term is turned on
   Number of AuxJ basis functions       .... 377
   RIJ-COSX (HFX calculated with COS-X)).... on


General Settings:
 Integral files         IntName         .... butylamine_prot_aq_7
 Hartree-Fock type      HFTyp           .... RHF
 Total Charge           Charge          ....    1
 Multiplicity           Mult            ....    1
 Number of Electrons    NEL             ....   42
 Basis Dimension        Dim             ....  130
 Nuclear Repulsion      ENuc            ....    199.7622006719 Eh

Convergence Acceleration:
 DIIS                   CNVDIIS         .... on
   Start iteration      DIISMaxIt       ....     0
   Startup error        DIISStart       ....  0.200000
   # of expansion vecs  DIISMaxEq       ....     5
   Bias factor          DIISBfac        ....   1.050
   Max. coefficient     DIISMaxC        ....  10.000
 Trust-Rad. Augm. Hess. CNVTRAH         .... auto
   Auto Start mean grad. ratio tolernc. ....  1.125000
   Auto Start start iteration           ....    20
   Auto Start num. interpolation iter.  ....    10
   Max. Number of Micro iterations      ....    16
   Max. Number of Macro iterations      .... Maxiter - #DIIS iter
   Number of Davidson start vectors     ....     2
   Converg. threshold I  (grad. norm)   ....   1.000e-05
   Converg. threshold II (energy diff.) ....   1.000e-08
   Grad. Scal. Fac. for Micro threshold ....   0.100
   Minimum threshold for Micro iter.    ....   0.010
   NR start threshold (gradient norm)   ....   0.001
   Initial trust radius                 ....   0.400
   Minimum AH scaling param. (alpha)    ....   1.000
   Maximum AH scaling param. (alpha)    .... 1000.000
   Orbital update algorithm             .... Taylor
   White noise on init. David. guess    .... on
   Maximum white noise                  ....   0.010
   Quad. conv. algorithm                .... NR
 SOSCF                  CNVSOSCF        .... on
   Start iteration      SOSCFMaxIt      ....   150
   Startup grad/error   SOSCFStart      ....  0.001000
 Level Shifting         CNVShift        .... on
   Level shift para.    LevelShift      ....    0.2500
   Turn off err/grad.   ShiftErr        ....    0.0000
 Zerner damping         CNVZerner       .... off
 Static damping         CNVDamp         .... on
   Fraction old density DampFac         ....    0.8500
   Max. Damping (<1)    DampMax         ....    0.9800
   Min. Damping (>=0)   DampMin         ....    0.0000
   Turn off err/grad.   DampErr         ....    0.0300
 Fernandez-Rico         CNVRico         .... off

SCF Procedure:
 Maximum # iterations   MaxIter         ....   125
 SCF integral mode      SCFMode         .... Direct
   Integral package                     .... SHARK and LIBINT hybrid scheme
 Reset frequency        DirectResetFreq ....    20
 Integral Threshold     Thresh          ....  2.500e-11 Eh
 Primitive CutOff       TCut            ....  2.500e-12 Eh

Convergence Tolerance:
 Convergence Check Mode ConvCheckMode   .... Total+1el-Energy
 Convergence forced     ConvForced      .... 0
 Energy Change          TolE            ....  1.000e-08 Eh
 1-El. energy change                    ....  1.000e-05 Eh
 Orbital Gradient       TolG            ....  1.000e-05
 Orbital Rotation angle TolX            ....  1.000e-05
 DIIS Error             TolErr          ....  5.000e-07


Diagonalization of the overlap matrix:
Smallest eigenvalue                        ... 2.032e-03
Time for diagonalization                   ...    0.004 sec
Threshold for overlap eigenvalues          ... 1.000e-08
Number of eigenvalues below threshold      ... 0
Time for construction of square roots      ...    0.003 sec
Total time needed                          ...    0.007 sec

Time for model grid setup =    0.073 sec

------------------------------
INITIAL GUESS: MODEL POTENTIAL
------------------------------
Loading Hartree-Fock densities                     ... done
Calculating cut-offs                               ... done
Initializing the effective Hamiltonian             ... done
Setting up the integral package (SHARK)            ... done
Starting the Coulomb interaction                   ... done (   0.0 sec)
Reading the grid                                   ... done
Mapping shells                                     ... done
Starting the XC term evaluation                    ... done (   0.1 sec)
  promolecular density results
     # of electrons  =     42.990181588
     EX              =    -30.583175779
     EC              =     -1.393113864
     EX+EC           =    -31.976289644
Transforming the Hamiltonian                       ... done (   0.0 sec)
Diagonalizing the Hamiltonian                      ... done (   0.0 sec)
Back transforming the eigenvectors                 ... done (   0.0 sec)
Now organizing SCF variables                       ... done
                      ------------------
                      INITIAL GUESS DONE (   0.2 sec)
                      ------------------
-------------------
DFT GRID GENERATION
-------------------

General Integration Accuracy     IntAcc      ... 4.388
Radial Grid Type                 RadialGrid  ... OptM3 with GC (2021)
Angular Grid (max. ang.)         AngularGrid ... 4 (Lebedev-302)
Angular grid pruning method      GridPruning ... 4 (adaptive)
Weight generation scheme         WeightScheme... Becke
Basis function cutoff            BFCut       ... 1.0000e-11
Integration weight cutoff        WCut        ... 1.0000e-14
Angular grids for H and He will be reduced by one unit
Partially contracted basis set               ... off
Rotationally invariant grid construction     ... off

Total number of grid points                  ...    68613
Total number of batches                      ...     1081
Average number of points per batch           ...       63
Average number of grid points per atom       ...     4036
Time for grid setup =    0.397 sec

--------------------
COSX GRID GENERATION
--------------------

GRIDX 1
-------
General Integration Accuracy     IntAcc      ... 3.816
Radial Grid Type                 RadialGrid  ... OptM3 with GC (2021)
Angular Grid (max. ang.)         AngularGrid ... 1 (Lebedev-50)
Angular grid pruning method      GridPruning ... 4 (adaptive)
Weight generation scheme         WeightScheme... Becke
Basis function cutoff            BFCut       ... 1.0000e-11
Integration weight cutoff        WCut        ... 1.0000e-14
Angular grids for H and He will be reduced by one unit
Partially contracted basis set               ... on
Rotationally invariant grid construction     ... off

Total number of grid points                  ...     8820
Total number of batches                      ...      150
Average number of points per batch           ...       58
Average number of grid points per atom       ...      519
UseSFitting                                  ... on

GRIDX 2
-------
General Integration Accuracy     IntAcc      ... 4.020
Radial Grid Type                 RadialGrid  ... OptM3 with GC (2021)
Angular Grid (max. ang.)         AngularGrid ... 2 (Lebedev-110)
Angular grid pruning method      GridPruning ... 4 (adaptive)
Weight generation scheme         WeightScheme... Becke
Basis function cutoff            BFCut       ... 1.0000e-11
Integration weight cutoff        WCut        ... 1.0000e-14
Angular grids for H and He will be reduced by one unit
Partially contracted basis set               ... on
Rotationally invariant grid construction     ... off

Total number of grid points                  ...    18099
Total number of batches                      ...      292
Average number of points per batch           ...       61
Average number of grid points per atom       ...     1065
UseSFitting                                  ... on

GRIDX 3
-------
General Integration Accuracy     IntAcc      ... 4.338
Radial Grid Type                 RadialGrid  ... OptM3 with GC (2021)
Angular Grid (max. ang.)         AngularGrid ... 3 (Lebedev-194)
Angular grid pruning method      GridPruning ... 4 (adaptive)
Weight generation scheme         WeightScheme... Becke
Basis function cutoff            BFCut       ... 1.0000e-11
Integration weight cutoff        WCut        ... 1.0000e-14
Angular grids for H and He will be reduced by one unit
Partially contracted basis set               ... on
Rotationally invariant grid construction     ... off

Total number of grid points                  ...    39492
Total number of batches                      ...      625
Average number of points per batch           ...       63
Average number of grid points per atom       ...     2323
UseSFitting                                  ... on

Time for X-Grid setup             =    0.477 sec

--------------
SCF ITERATIONS
--------------
ITER       Energy         Delta-E        Max-DP      RMS-DP      [F,P]     Damp
               ***  Starting incremental Fock matrix formation  ***
  0   -213.8127872292   0.000000000000 0.03352561  0.00094909  0.1637881 0.8500
  1   -213.8414585918  -0.028671362584 0.03014984  0.00090940  0.1316492 0.8500
                               ***Turning on DIIS***
  2   -213.8631241734  -0.021665581626 0.02352934  0.00074652  0.1006179 0.8500
  3   -213.8791217517  -0.015997578281 0.01454998  0.00052976  0.0758504 0.8500
  4   -213.8914286936  -0.012306941884 0.00965985  0.00040388  0.0602079 0.8500
  5   -213.9011048694  -0.009676175857 0.00728634  0.00033004  0.0497436 0.8500
  6   -213.9089670204  -0.007862150985 0.00589162  0.00027788  0.0418608 0.8500
  7   -213.9154755641  -0.006508543657 0.00504511  0.00023920  0.0354888 0.8500
  8   -213.9209236914  -0.005448127340 0.00432576  0.00020581  0.0300327 0.8500
  9   -213.9254925651  -0.004568873657 0.02444441  0.00117388  0.0253490 0.0000
 10   -213.9502561564  -0.024763591355 0.00121843  0.00003554  0.0012151 0.0000
                      *** Initiating the SOSCF procedure ***
                           *** Shutting down DIIS ***
                      *** Re-Reading the Fockian *** 
                      *** Removing any level shift *** 
ITER      Energy       Delta-E        Grad      Rot      Max-DP    RMS-DP
 11   -213.95026484  -0.0000086829  0.000079  0.000079  0.000365  0.000014
               *** Restarting incremental Fock matrix formation ***
 12   -213.95032042  -0.0000555812  0.000042  0.000067  0.000316  0.000011
 13   -213.95032056  -0.0000001400  0.000015  0.000036  0.000130  0.000005
 14   -213.95032057  -0.0000000107  0.000009  0.000007  0.000029  0.000001
                  ***Gradient check signals convergence***
              ***Rediagonalizing the Fockian in SOSCF/NRSCF***

               *****************************************************
               *                     SUCCESS                       *
               *           SCF CONVERGED AFTER  15 CYCLES          *
               *****************************************************

Old exchange energy                            =    -10.466927514 Eh
New exchange energy                            =    -10.466954125 Eh
Exchange energy change after final integration =     -0.000026610 Eh
Total energy after final integration           =   -213.950347184 Eh
Final COS-X integration done in                =     3.606 sec

----------------
TOTAL SCF ENERGY
----------------

Total Energy       :         -213.95034718 Eh           -5821.88493 eV

Components:
Nuclear Repulsion  :          199.76220067 Eh            5435.80583 eV
Electronic Energy  :         -413.71254786 Eh          -11257.69076 eV
One Electron Energy:         -673.65003037 Eh          -18330.94925 eV
Two Electron Energy:          259.93748252 Eh            7073.25850 eV
Max COSX asymmetry :            0.00000369 Eh               0.00010 eV

Virial components:
Potential Energy   :         -425.28126281 Eh          -11572.49150 eV
Kinetic Energy     :          211.33091562 Eh            5750.60657 eV
Virial Ratio       :            2.01239493


DFT components:
N(Alpha)           :       20.999996557128 electrons
N(Beta)            :       20.999996557128 electrons
N(Total)           :       41.999993114256 electrons
E(XC)              :      -22.314403283441 Eh       
DFET-embed. en.    :        0.000000000000 Eh       

---------------
SCF CONVERGENCE
---------------

  Last Energy change         ...   -2.5655e-09  Tolerance :   1.0000e-08
  Last MAX-Density change    ...    2.2204e-15  Tolerance :   1.0000e-07
  Last RMS-Density change    ...    4.1105e-17  Tolerance :   5.0000e-09
  Last Orbital Gradient      ...    2.2238e-06  Tolerance :   1.0000e-05
  Last Orbital Rotation      ...    1.4033e-06  Tolerance :   1.0000e-05

             **** THE GBW FILE WAS UPDATED (butylamine_prot_aq_7.gbw) ****
             **** DENSITY butylamine_prot_aq_7.scfp WAS UPDATED ****
             **** ENERGY FILE WAS UPDATED (butylamine_prot_aq_7.en.tmp) ****
             **** THE GBW FILE WAS UPDATED (butylamine_prot_aq_7.gbw) ****
             **** DENSITY butylamine_prot_aq_7.scfp WAS UPDATED ****
----------------
ORBITAL ENERGIES
----------------

  NO   OCC          E(Eh)            E(eV) 
   0   2.0000     -14.744451      -401.2169 
   1   2.0000     -10.514442      -286.1125 
   2   2.0000     -10.440920      -284.1119 
   3   2.0000     -10.409427      -283.2549 
   4   2.0000     -10.393968      -282.8343 
   5   2.0000      -1.332791       -36.2671 
   6   2.0000      -1.098157       -29.8824 
   7   2.0000      -1.018428       -27.7128 
   8   2.0000      -0.947448       -25.7814 
   9   2.0000      -0.909783       -24.7564 
  10   2.0000      -0.903931       -24.5972 
  11   2.0000      -0.841147       -22.8888 
  12   2.0000      -0.808002       -21.9868 
  13   2.0000      -0.748753       -20.3746 
  14   2.0000      -0.708461       -19.2782 
  15   2.0000      -0.676236       -18.4013 
  16   2.0000      -0.660305       -17.9678 
  17   2.0000      -0.648271       -17.6403 
  18   2.0000      -0.589084       -16.0298 
  19   2.0000      -0.583778       -15.8854 
  20   2.0000      -0.580774       -15.8037 
  21   0.0000      -0.083394        -2.2693 
  22   0.0000      -0.025058        -0.6819 
  23   0.0000      -0.017991        -0.4896 
  24   0.0000       0.001810         0.0492 
  25   0.0000       0.017576         0.4783 
  26   0.0000       0.022114         0.6018 
  27   0.0000       0.063235         1.7207 
  28   0.0000       0.078516         2.1365 
  29   0.0000       0.083545         2.2734 
  30   0.0000       0.103409         2.8139 
  31   0.0000       0.118686         3.2296 
  32   0.0000       0.127326         3.4647 
  33   0.0000       0.137618         3.7448 
  34   0.0000       0.143890         3.9154 
  35   0.0000       0.176631         4.8064 
  36   0.0000       0.225037         6.1236 
  37   0.0000       0.305968         8.3258 
  38   0.0000       0.325999         8.8709 
  39   0.0000       0.333228         9.0676 
  40   0.0000       0.382859        10.4181 
  41   0.0000       0.404348        11.0029 
  42   0.0000       0.406413        11.0591 
  43   0.0000       0.416669        11.3381 
  44   0.0000       0.467526        12.7220 
  45   0.0000       0.520834        14.1726 
  46   0.0000       0.524469        14.2715 
  47   0.0000       0.539041        14.6681 
  48   0.0000       0.563948        15.3458 
  49   0.0000       0.582124        15.8404 
  50   0.0000       0.585967        15.9450 
  51   0.0000       0.603744        16.4287 
  52   0.0000       0.613117        16.6838 
  53   0.0000       0.619422        16.8553 
  54   0.0000       0.631433        17.1822 
  55   0.0000       0.634617        17.2688 
  56   0.0000       0.657641        17.8953 
  57   0.0000       0.672789        18.3075 
  58   0.0000       0.676202        18.4004 
  59   0.0000       0.683118        18.5886 
  60   0.0000       0.687689        18.7130 
  61   0.0000       0.699116        19.0239 
  62   0.0000       0.731996        19.9186 
  63   0.0000       0.773225        21.0405 
  64   0.0000       0.796000        21.6603 
  65   0.0000       0.828784        22.5524 
  66   0.0000       0.952728        25.9250 
  67   0.0000       1.012386        27.5484 
  68   0.0000       1.050593        28.5881 
  69   0.0000       1.098857        29.9014 
  70   0.0000       1.124992        30.6126 
  71   0.0000       1.208455        32.8837 
  72   0.0000       1.228000        33.4156 
  73   0.0000       1.271346        34.5951 
  74   0.0000       1.294843        35.2345 
  75   0.0000       1.343955        36.5709 
  76   0.0000       1.401506        38.1369 
  77   0.0000       1.431357        38.9492 
  78   0.0000       1.516922        41.2775 
  79   0.0000       1.534564        41.7576 
  80   0.0000       1.569681        42.7132 
  81   0.0000       1.636242        44.5244 
  82   0.0000       1.670516        45.4571 
  83   0.0000       1.685333        45.8602 
  84   0.0000       1.716692        46.7136 
  85   0.0000       1.725382        46.9500 
  86   0.0000       1.744639        47.4740 
  87   0.0000       1.755893        47.7803 
  88   0.0000       1.774464        48.2856 
  89   0.0000       1.782499        48.5043 
  90   0.0000       1.806633        49.1610 
  91   0.0000       1.818770        49.4912 
  92   0.0000       1.834661        49.9237 
  93   0.0000       1.851621        50.3852 
  94   0.0000       1.853110        50.4257 
  95   0.0000       1.866366        50.7864 
  96   0.0000       1.877978        51.1024 
  97   0.0000       1.894281        51.5460 
  98   0.0000       1.927693        52.4552 
  99   0.0000       1.975267        53.7497 
 100   0.0000       1.983083        53.9624 
 101   0.0000       2.018713        54.9320 
 102   0.0000       2.079596        56.5887 
 103   0.0000       2.122347        57.7520 
 104   0.0000       2.204635        59.9912 
 105   0.0000       2.216695        60.3193 
 106   0.0000       2.253715        61.3267 
 107   0.0000       2.271269        61.8044 
 108   0.0000       2.332380        63.4673 
 109   0.0000       2.383031        64.8456 
 110   0.0000       2.399145        65.2840 
 111   0.0000       2.434611        66.2491 
 112   0.0000       2.491103        67.7864 
 113   0.0000       2.554140        69.5017 
 114   0.0000       2.562758        69.7362 
 115   0.0000       2.592981        70.5586 
 116   0.0000       2.618520        71.2536 
 117   0.0000       2.643394        71.9304 
 118   0.0000       2.716558        73.9213 
 119   0.0000       2.820821        76.7584 
 120   0.0000       2.838177        77.2307 
 121   0.0000       2.903586        79.0106 
 122   0.0000       2.917281        79.3832 
 123   0.0000       2.938730        79.9669 
 124   0.0000       2.946226        80.1709 
 125   0.0000       2.986381        81.2636 
 126   0.0000       3.025944        82.3401 
 127   0.0000       3.065797        83.4246 
 128   0.0000       3.152231        85.7766 
 129   0.0000       3.159620        85.9776 

                    ********************************
                    * MULLIKEN POPULATION ANALYSIS *
                    ********************************

-----------------------
MULLIKEN ATOMIC CHARGES
-----------------------
   0 C :   -0.064982
   1 C :   -0.076701
   2 H :    0.010126
   3 H :    0.081652
   4 H :    0.038735
   5 C :   -0.104323
   6 H :    0.071131
   7 H :    0.056406
   8 C :    0.004143
   9 H :    0.037648
  10 H :    0.084328
  11 N :   -0.017861
  12 H :    0.110315
  13 H :    0.102801
  14 H :    0.224197
  15 H :    0.222979
  16 H :    0.219407
Sum of atomic charges:    1.0000000

--------------------------------
MULLIKEN REDUCED ORBITAL CHARGES
--------------------------------
  0 C s       :     3.021615  s :     3.021615
      pz      :     1.013291  p :     3.015356
      px      :     1.059535
      py      :     0.942529
      dz2     :     0.006869  d :     0.028011
      dxz     :     0.003177
      dyz     :     0.005641
      dx2y2   :     0.006456
      dxy     :     0.005868
  1 C s       :     3.059881  s :     3.059881
      pz      :     1.030349  p :     2.980577
      px      :     0.935414
      py      :     1.014814
      dz2     :     0.008373  d :     0.036243
      dxz     :     0.005291
      dyz     :     0.005746
      dx2y2   :     0.008315
      dxy     :     0.008518
  2 H s       :     0.965404  s :     0.965404
      pz      :     0.007880  p :     0.024470
      px      :     0.007773
      py      :     0.008816
  3 H s       :     0.894064  s :     0.894064
      pz      :     0.005831  p :     0.024284
      px      :     0.014320
      py      :     0.004133
  4 H s       :     0.937099  s :     0.937099
      pz      :     0.014648  p :     0.024165
      px      :     0.004739
      py      :     0.004779
  5 C s       :     3.059828  s :     3.059828
      pz      :     0.975158  p :     3.010389
      px      :     0.976347
      py      :     1.058884
      dz2     :     0.007281  d :     0.034106
      dxz     :     0.007114
      dyz     :     0.004093
      dx2y2   :     0.008826
      dxy     :     0.006792
  6 H s       :     0.905819  s :     0.905819
      pz      :     0.006779  p :     0.023050
      px      :     0.008550
      py      :     0.007720
  7 H s       :     0.920575  s :     0.920575
      pz      :     0.014606  p :     0.023020
      px      :     0.003882
      py      :     0.004532
  8 C s       :     3.060689  s :     3.060689
      pz      :     0.954327  p :     2.890269
      px      :     0.960958
      py      :     0.974984
      dz2     :     0.004562  d :     0.044898
      dxz     :     0.011593
      dyz     :     0.011829
      dx2y2   :     0.005158
      dxy     :     0.011756
  9 H s       :     0.938680  s :     0.938680
      pz      :     0.014347  p :     0.023672
      px      :     0.003897
      py      :     0.005429
 10 H s       :     0.892492  s :     0.892492
      pz      :     0.004141  p :     0.023180
      px      :     0.003570
      py      :     0.015469
 11 N s       :     3.310371  s :     3.310371
      pz      :     1.228041  p :     3.689257
      px      :     1.230232
      py      :     1.230983
      dz2     :     0.001931  d :     0.018233
      dxz     :     0.004847
      dyz     :     0.004840
      dx2y2   :     0.001945
      dxy     :     0.004671
 12 H s       :     0.866773  s :     0.866773
      pz      :     0.006400  p :     0.022912
      px      :     0.006488
      py      :     0.010024
 13 H s       :     0.873980  s :     0.873980
      pz      :     0.010007  p :     0.023219
      px      :     0.006292
      py      :     0.006920
 14 H s       :     0.732192  s :     0.732192
      pz      :     0.017836  p :     0.043611
      px      :     0.011432
      py      :     0.014343
 15 H s       :     0.733578  s :     0.733578
      pz      :     0.014176  p :     0.043442
      px      :     0.017719
      py      :     0.011548
 16 H s       :     0.736940  s :     0.736940
      pz      :     0.011698  p :     0.043653
      px      :     0.014323
      py      :     0.017632


                     *******************************
                     * LOEWDIN POPULATION ANALYSIS *
                     *******************************

----------------------
LOEWDIN ATOMIC CHARGES
----------------------
   0 C :   -0.061942
   1 C :   -0.032591
   2 H :    0.012666
   3 H :    0.050315
   4 H :    0.027508
   5 C :   -0.047371
   6 H :    0.045484
   7 H :    0.033856
   8 C :    0.054881
   9 H :    0.026398
  10 H :    0.050037
  11 N :    0.296223
  12 H :    0.055749
  13 H :    0.049140
  14 H :    0.146950
  15 H :    0.148051
  16 H :    0.144647

-------------------------------
LOEWDIN REDUCED ORBITAL CHARGES
-------------------------------
  0 C s       :     2.826646  s :     2.826646
      pz      :     1.066911  p :     3.163050
      px      :     1.078009
      py      :     1.018131
      dz2     :     0.018539  d :     0.072246
      dxz     :     0.008092
      dyz     :     0.013266
      dx2y2   :     0.017284
      dxy     :     0.015065
  1 C s       :     2.828988  s :     2.828988
      pz      :     1.065575  p :     3.114701
      px      :     1.001707
      py      :     1.047420
      dz2     :     0.021716  d :     0.088903
      dxz     :     0.013011
      dyz     :     0.012678
      dx2y2   :     0.021651
      dxy     :     0.019847
  2 H s       :     0.920078  s :     0.920078
      pz      :     0.020460  p :     0.067255
      px      :     0.021729
      py      :     0.025067
  3 H s       :     0.881982  s :     0.881982
      pz      :     0.015581  p :     0.067703
      px      :     0.039081
      py      :     0.013041
  4 H s       :     0.905359  s :     0.905359
      pz      :     0.039027  p :     0.067133
      px      :     0.013575
      py      :     0.014531
  5 C s       :     2.834665  s :     2.834665
      pz      :     1.034000  p :     3.126633
      px      :     1.023354
      py      :     1.069279
      dz2     :     0.019593  d :     0.086073
      dxz     :     0.017848
      dyz     :     0.010340
      dx2y2   :     0.022867
      dxy     :     0.015425
  6 H s       :     0.887003  s :     0.887003
      pz      :     0.019026  p :     0.067512
      px      :     0.024915
      py      :     0.023571
  7 H s       :     0.898685  s :     0.898685
      pz      :     0.039764  p :     0.067460
      px      :     0.012494
      py      :     0.015202
  8 C s       :     2.840984  s :     2.840984
      pz      :     0.997938  p :     3.001537
      px      :     0.997144
      py      :     1.006455
      dz2     :     0.008233  d :     0.102597
      dxz     :     0.027919
      dyz     :     0.028685
      dx2y2   :     0.009180
      dxy     :     0.028579
  9 H s       :     0.904800  s :     0.904800
      pz      :     0.039211  p :     0.068802
      px      :     0.013837
      py      :     0.015755
 10 H s       :     0.880818  s :     0.880818
      pz      :     0.012439  p :     0.069145
      px      :     0.013990
      py      :     0.042716
 11 N s       :     2.997477  s :     2.997477
      pz      :     1.221335  p :     3.660149
      px      :     1.218651
      py      :     1.220163
      dz2     :     0.003774  d :     0.046152
      dxz     :     0.012960
      dyz     :     0.012895
      dx2y2   :     0.003632
      dxy     :     0.012890
 12 H s       :     0.874769  s :     0.874769
      pz      :     0.019919  p :     0.069482
      px      :     0.020551
      py      :     0.029013
 13 H s       :     0.880881  s :     0.880881
      pz      :     0.030046  p :     0.069980
      px      :     0.019178
      py      :     0.020756
 14 H s       :     0.743370  s :     0.743370
      pz      :     0.045691  p :     0.109679
      px      :     0.028607
      py      :     0.035380
 15 H s       :     0.741941  s :     0.741941
      pz      :     0.035207  p :     0.110008
      px      :     0.045654
      py      :     0.029148
 16 H s       :     0.745537  s :     0.745537
      pz      :     0.029559  p :     0.109816
      px      :     0.035126
      py      :     0.045131


                      *****************************
                      * MAYER POPULATION ANALYSIS *
                      *****************************

  NA   - Mulliken gross atomic population
  ZA   - Total nuclear charge
  QA   - Mulliken gross atomic charge
  VA   - Mayer's total valence
  BVA  - Mayer's bonded valence
  FA   - Mayer's free valence

  ATOM       NA         ZA         QA         VA         BVA        FA
  0 C      6.0650     6.0000    -0.0650     3.9941     3.9941     0.0000
  1 C      6.0767     6.0000    -0.0767     4.0754     4.0754     0.0000
  2 H      0.9899     1.0000     0.0101     0.9929     0.9929    -0.0000
  3 H      0.9183     1.0000     0.0817     0.9916     0.9916     0.0000
  4 H      0.9613     1.0000     0.0387     0.9899     0.9899     0.0000
  5 C      6.1043     6.0000    -0.1043     4.0062     4.0062    -0.0000
  6 H      0.9289     1.0000     0.0711     0.9797     0.9797     0.0000
  7 H      0.9436     1.0000     0.0564     0.9780     0.9780     0.0000
  8 C      5.9959     6.0000     0.0041     3.8657     3.8657     0.0000
  9 H      0.9624     1.0000     0.0376     0.9955     0.9955    -0.0000
 10 H      0.9157     1.0000     0.0843     0.9794     0.9794    -0.0000
 11 N      7.0179     7.0000    -0.0179     3.7347     3.7347    -0.0000
 12 H      0.8897     1.0000     0.1103     0.9788     0.9788     0.0000
 13 H      0.8972     1.0000     0.1028     0.9943     0.9943    -0.0000
 14 H      0.7758     1.0000     0.2242     0.9567     0.9567    -0.0000
 15 H      0.7770     1.0000     0.2230     0.9563     0.9563    -0.0000
 16 H      0.7806     1.0000     0.2194     0.9654     0.9654    -0.0000

  Mayer bond orders larger than 0.100000
B(  0-C ,  1-C ) :   1.0722 B(  0-C ,  2-H ) :   0.9736 B(  0-C ,  3-H ) :   0.9695 
B(  0-C ,  4-H ) :   0.9759 B(  1-C ,  5-C ) :   1.0659 B(  1-C ,  6-H ) :   0.9521 
B(  1-C ,  7-H ) :   0.9584 B(  5-C ,  8-C ) :   1.0089 B(  5-C ,  9-H ) :   0.9689 
B(  5-C , 10-H ) :   0.9480 B(  8-C , 11-N ) :   0.9232 B(  8-C , 12-H ) :   0.9557 
B(  8-C , 13-H ) :   0.9615 B( 11-N , 14-H ) :   0.9324 B( 11-N , 15-H ) :   0.9296 
B( 11-N , 16-H ) :   0.9325 

-------
TIMINGS
-------

Total SCF time: 0 days 0 hours 0 min 27 sec 

Total time                  ....      27.023 sec
Sum of individual times     ....      26.696 sec  ( 98.8%)

Fock matrix formation       ....      25.307 sec  ( 93.7%)
  Split-RI-J                ....       1.191 sec  (  4.7% of F)
  Chain of spheres X        ....      19.467 sec  ( 76.9% of F)
  XC integration            ....       4.228 sec  ( 16.7% of F)
    Basis function eval.    ....       1.328 sec  ( 31.4% of XC)
    Density eval.           ....       0.687 sec  ( 16.2% of XC)
    XC-Functional eval.     ....       0.597 sec  ( 14.1% of XC)
    XC-Potential eval.      ....       0.794 sec  ( 18.8% of XC)
Diagonalization             ....       0.074 sec  (  0.3%)
Density matrix formation    ....       0.003 sec  (  0.0%)
Population analysis         ....       0.080 sec  (  0.3%)
Initial guess               ....       0.145 sec  (  0.5%)
Orbital Transformation      ....       0.000 sec  (  0.0%)
Orbital Orthonormalization  ....       0.000 sec  (  0.0%)
DIIS solution               ....       0.046 sec  (  0.2%)
SOSCF solution              ....       0.093 sec  (  0.3%)
Grid generation             ....       0.947 sec  (  3.5%)

Maximum memory used throughout the entire SCF-calculation: 50.3 MB


-------------------------------------------------------------------------------
                          DFT DISPERSION CORRECTION                            
                                                                               
                                 DFTD4 V2.5                                    
-------------------------------------------------------------------------------
The WB97X functional is recognized
Active option DFTDOPT                   ...         5   

Starting D4
-------------------------   ----------------
Dispersion correction           -0.001334127
-------------------------   ----------------


-------------------------   --------------------
FINAL SINGLE POINT ENERGY      -213.951681311044
-------------------------   --------------------



           ************************************************************
           *        Program running with 4 parallel MPI-processes     *
           *              working on a common directory               *
           ************************************************************
------------------------------------------------------------------------------
                         ORCA SCF GRADIENT CALCULATION
------------------------------------------------------------------------------

 ... reading COSX grid (gridx3)
Gradient of the Kohn-Sham DFT energy:
Kohn-Sham wavefunction type      ... RKS
Hartree-Fock exchange scaling    ...    0.158
Number of operators              ...    1
Number of atoms                  ...   17
Basis set dimensions             ...  130
Integral neglect threshold       ... 2.5e-11
Integral primitive cutoff        ... 2.5e-12
SHARK Integral package           ... ON

Nuc. rep. gradient       (SHARK) ... done (  0.0 sec)
HCore & Overlap gradient (SHARK) ... done (  0.0 sec)
RI-J gradient            (SHARK) ... done (  0.2 sec)
COSX-gradient                    ... done (  3.9 sec)
Exchange-correlation gradient    ... done
Dispersion correction            ... Starting D4
Starting D4
Starting D4
Starting D4


------------------- 
Dispersion Gradient 
------------------- 
   1  :   -0.000019461   -0.000009362   -0.000000141
   2  :   -0.000014612    0.000007130   -0.000003223
   3  :   -0.000007052   -0.000001160   -0.000000154
   4  :   -0.000006924   -0.000001466   -0.000000230
   5  :   -0.000007698   -0.000001116   -0.000000103
   6  :    0.000000353    0.000007609    0.000003891
   7  :   -0.000004875    0.000000568    0.000000022
   8  :   -0.000004567    0.000000966    0.000000479
   9  :    0.000006454    0.000004459   -0.000007427
  10  :    0.000000586    0.000001088   -0.000001981
  11  :    0.000000231    0.000002955   -0.000000547
  12  :    0.000021581   -0.000003630   -0.000000126
  13  :    0.000005168    0.000000059    0.000000917
  14  :    0.000004626    0.000000997    0.000002162
  15  :    0.000010188    0.000004241    0.000007489
  16  :    0.000014463   -0.000006820   -0.000005170
  17  :    0.000001539   -0.000006517    0.000004142

  |G| =    0.000045184

done

------------------
CARTESIAN GRADIENT
------------------

   1   C   :   -0.000439909   -0.013556156    0.001987538
   2   C   :   -0.003327074    0.010250835   -0.006534036
   3   H   :   -0.005706407    0.008830860    0.005540391
   4   H   :    0.006930181    0.003232630    0.002708751
   5   H   :    0.000122980    0.003629648   -0.009205639
   6   C   :    0.006588735    0.002575607    0.010594289
   7   H   :    0.003068266   -0.005564903   -0.001624906
   8   H   :    0.000830066   -0.004179645    0.007199220
   9   C   :    0.012818943   -0.011075611   -0.004660274
  10   H   :   -0.001695304    0.001510382   -0.010082681
  11   H   :   -0.004567600   -0.006761142   -0.002074377
  12   N   :   -0.001708826    0.000017066    0.004523929
  13   H   :   -0.007387736   -0.000888724    0.002852441
  14   H   :   -0.001661229    0.007271844    0.004245351
  15   H   :   -0.000229644    0.004226697    0.000049190
  16   H   :   -0.000155560    0.001044457   -0.004591776
  17   H   :   -0.003786544   -0.000569970   -0.000715390

Difference to translation invariance:
           :   -0.0003066625   -0.0000061263    0.0002120206

Difference to rotation invariance:
           :   -0.0008091448    0.0009864080    0.0001488373

Norm of the cartesian gradient     ...    0.0403645406
RMS gradient                       ...    0.0056521662
MAX gradient                       ...    0.0135561559

-------
TIMINGS
-------

Total SCF gradient time            ...        5.579 sec

One electron gradient       ....       0.044 sec  (  0.8%)
RI-J Coulomb gradient       ....       0.239 sec  (  4.3%)
COSX gradient               ....       3.869 sec  ( 69.4%)
XC gradient                 ....       1.118 sec  ( 20.0%)

Maximum memory used throughout the entire SCFGRAD-calculation: 38.8 MB
------------------------------------------------------------------------------
                         ORCA GEOMETRY RELAXATION STEP
------------------------------------------------------------------------------

Reading the OPT-File                    .... done
Getting information on internals        .... done
Copying old internal coords+grads       .... done
Making the new internal coordinates     .... (new redundants).... done
Validating the new internal coordinates .... (new redundants).... done
Calculating the B-matrix                .... done
Calculating the G,G- and P matrices     .... done
Transforming gradient to internals      .... done
Projecting the internal gradient        .... done
Number of atoms                         ....  17
Number of internal coordinates          ....  82
Current Energy                          ....  -213.951681311 Eh
Current gradient norm                   ....     0.040364541 Eh/bohr
Maximum allowed component of the step   ....  0.300
Current trust radius                    ....  0.300
Evaluating the initial hessian          ....  (Almloef) done
Projecting the Hessian                  .... done
Forming the augmented Hessian           .... done
Diagonalizing the augmented Hessian     .... done
Last element of RFO vector              ....  0.992546480
Lowest eigenvalues of augmented Hessian:
 -0.003008019  0.010828530  0.011096019  0.011472280  0.013652223
Length of the computed step             ....  0.122781823
The final length of the internal step   ....  0.122781823
Converting the step to cartesian space:
 Initial RMS(Int)=    0.0135589841
Transforming coordinates:
 Iter   0:  RMS(Cart)=    0.0237069371 RMS(Int)=    0.0135443500
 Iter   1:  RMS(Cart)=    0.0002812550 RMS(Int)=    0.0001795070
 Iter   2:  RMS(Cart)=    0.0000049591 RMS(Int)=    0.0000034608
 Iter   3:  RMS(Cart)=    0.0000001154 RMS(Int)=    0.0000000857
 Iter   4:  RMS(Cart)=    0.0000000028 RMS(Int)=    0.0000000021
done
Storing new coordinates                 .... done

                                .--------------------.
          ----------------------|Geometry convergence|-------------------------
          Item                value                   Tolerance       Converged
          ---------------------------------------------------------------------
          RMS gradient        0.0033418108            0.0001000000      NO
          MAX gradient        0.0117376418            0.0003000000      NO
          RMS step            0.0135589841            0.0020000000      NO
          MAX step            0.0319468957            0.0040000000      NO
          ........................................................
          Max(Bonds)      0.0169      Max(Angles)    1.18
          Max(Dihed)        1.76      Max(Improp)    0.00
          ---------------------------------------------------------------------

The optimization has not yet converged - more geometry cycles are needed


    ---------------------------------------------------------------------------
                         Redundant Internal Coordinates
                            (Angstroem and degrees)

        Definition                    Value    dE/dq     Step     New-Value
    ----------------------------------------------------------------------------
     1. B(C   1,C   0)                1.5259 -0.002202  0.0030    1.5290   
     2. B(H   2,C   0)                1.0868 -0.011738  0.0169    1.1037   
     3. B(H   3,C   0)                1.0877 -0.007761  0.0112    1.0989   
     4. B(H   4,C   0)                1.0878 -0.009846  0.0142    1.1020   
     5. B(C   5,C   1)                1.5312 -0.001895  0.0027    1.5338   
     6. B(H   6,C   1)                1.0912 -0.006113  0.0089    1.1001   
     7. B(H   7,C   1)                1.0912 -0.007985  0.0117    1.1029   
     8. B(C   8,C   5)                1.5342 -0.002338  0.0033    1.5376   
     9. B(H   9,C   5)                1.0908 -0.010076  0.0147    1.1055   
    10. B(H  10,C   5)                1.0891 -0.007411  0.0108    1.0999   
    11. B(N  11,C   8)                1.4909 -0.006524  0.0089    1.4998   
    12. B(H  12,C   8)                1.0894 -0.006136  0.0089    1.0983   
    13. B(H  13,C   8)                1.0899 -0.006490  0.0095    1.0993   
    14. B(H  14,N  11)                1.0307  0.002279 -0.0030    1.0277   
    15. B(H  15,N  11)                1.0303  0.001962 -0.0026    1.0277   
    16. B(H  16,N  11)                1.0309  0.002161 -0.0028    1.0281   
    17. A(H   3,C   0,H   4)          107.62  0.001529   -0.19    107.43   
    18. A(C   1,C   0,H   4)          110.67 -0.001060    0.22    110.89   
    19. A(C   1,C   0,H   2)          112.01 -0.001463    0.23    112.24   
    20. A(H   2,C   0,H   4)          109.10  0.001539   -0.32    108.78   
    21. A(H   2,C   0,H   3)          107.33  0.002297   -0.47    106.86   
    22. A(C   1,C   0,H   3)          109.95 -0.002604    0.49    110.44   
    23. A(C   0,C   1,C   5)          112.76 -0.001268    0.39    113.16   
    24. A(H   6,C   1,H   7)          107.18  0.000834   -0.62    106.56   
    25. A(C   5,C   1,H   7)          109.76  0.000842   -0.26    109.49   
    26. A(C   0,C   1,H   7)          109.80 -0.000284    0.17    109.96   
    27. A(C   5,C   1,H   6)          108.56  0.001169   -0.22    108.34   
    28. A(C   0,C   1,H   6)          108.62 -0.001192    0.50    109.12   
    29. A(C   1,C   5,H   9)          107.84 -0.000527    0.24    108.08   
    30. A(C   1,C   5,C   8)          112.63 -0.000361    0.27    112.90   
    31. A(C   8,C   5,H   9)          110.36  0.000473   -0.27    110.09   
    32. A(H   9,C   5,H  10)          107.28  0.001041   -0.68    106.60   
    33. A(C   8,C   5,H  10)          110.08  0.001688   -0.39    109.69   
    34. A(C   1,C   5,H  10)          108.47 -0.002330    0.80    109.28   
    35. A(H  12,C   8,H  13)          108.18 -0.000037   -0.05    108.13   
    36. A(N  11,C   8,H  13)          108.41  0.003733   -1.18    107.23   
    37. A(C   5,C   8,H  13)          109.95 -0.002848    1.02    110.96   
    38. A(N  11,C   8,H  12)          108.44  0.003283   -1.04    107.40   
    39. A(C   5,C   8,H  12)          110.58 -0.002515    0.96    111.54   
    40. A(C   5,C   8,N  11)          111.20 -0.001387    0.21    111.42   
    41. A(H  15,N  11,H  16)          108.80  0.003584   -0.61    108.19   
    42. A(H  14,N  11,H  16)          108.58  0.003440   -0.75    107.83   
    43. A(C   8,N  11,H  16)          109.93 -0.002660    0.45    110.39   
    44. A(H  14,N  11,H  15)          108.71  0.003703   -0.60    108.12   
    45. A(C   8,N  11,H  15)          110.69 -0.004600    0.89    111.57   
    46. A(C   8,N  11,H  14)          110.07 -0.003171    0.56    110.64   
    47. D(H   6,C   1,C   0,H   4)    -62.02  0.000201    0.09    -61.93   
    48. D(H   7,C   1,C   0,H   4)   -178.92  0.000044    0.46   -178.47   
    49. D(H   7,C   1,C   0,H   3)    -60.16 -0.000365    0.67    -59.50   
    50. D(H   6,C   1,C   0,H   2)    175.99 -0.000000    0.18    176.17   
    51. D(C   5,C   1,C   0,H   4)     58.35  0.000049    0.40     58.75   
    52. D(H   6,C   1,C   0,H   3)     56.74 -0.000207    0.30     57.04   
    53. D(C   5,C   1,C   0,H   3)    177.11 -0.000359    0.61    177.72   
    54. D(C   5,C   1,C   0,H   2)    -63.64 -0.000152    0.50    -63.14   
    55. D(H   7,C   1,C   0,H   2)     59.09 -0.000158    0.55     59.64   
    56. D(H   9,C   5,C   1,H   6)     68.35 -0.001048   -0.54     67.81   
    57. D(C   8,C   5,C   1,H   7)    -52.79  0.001091   -1.56    -54.34   
    58. D(C   8,C   5,C   1,H   6)   -169.63 -0.001049   -0.53   -170.17   
    59. D(C   8,C   5,C   1,C   0)     69.96  0.000455   -1.26     68.70   
    60. D(H   9,C   5,C   1,H   7)   -174.80  0.001092   -1.56   -176.36   
    61. D(H  10,C   5,C   1,H   7)     69.32  0.001357   -1.31     68.01   
    62. D(H  10,C   5,C   1,H   6)    -47.53 -0.000783   -0.29    -47.82   
    63. D(H  10,C   5,C   1,C   0)   -167.93  0.000722   -1.01   -168.95   
    64. D(H   9,C   5,C   1,C   0)    -52.05  0.000456   -1.27    -53.32   
    65. D(H  13,C   8,C   5,H   9)    115.16  0.000812   -0.52    114.64   
    66. D(H  13,C   8,C   5,C   1)     -5.42  0.001398   -0.82     -6.25   
    67. D(H  12,C   8,C   5,H  10)     -7.22 -0.000008   -0.57     -7.79   
    68. D(H  12,C   8,C   5,H   9)   -125.45 -0.002622    0.67   -124.78   
    69. D(H  12,C   8,C   5,C   1)    113.97 -0.002036    0.37    114.34   
    70. D(N  11,C   8,C   5,H  10)    113.31  0.001524   -1.09    112.22   
    71. D(N  11,C   8,C   5,H   9)     -4.92 -0.001090    0.15     -4.77   
    72. D(H  13,C   8,C   5,H  10)   -126.61  0.003427   -1.76   -128.37   
    73. D(N  11,C   8,C   5,C   1)   -125.50 -0.000505   -0.16   -125.66   
    74. D(H  15,N  11,C   8,C   5)    179.78 -0.000003    0.05    179.84   
    75. D(H  14,N  11,C   8,H  13)    179.01  0.001555   -0.38    178.63   
    76. D(H  14,N  11,C   8,H  12)     61.77 -0.002233    0.89     62.66   
    77. D(H  14,N  11,C   8,C   5)    -60.01 -0.000401    0.25    -59.76   
    78. D(H  16,N  11,C   8,H  13)    -61.43  0.002156   -0.67    -62.09   
    79. D(H  16,N  11,C   8,H  12)   -178.66 -0.001632    0.60   -178.06   
    80. D(H  16,N  11,C   8,C   5)     59.56  0.000200   -0.04     59.51   
    81. D(H  15,N  11,C   8,H  13)     58.80  0.001952   -0.57     58.23   
    82. D(H  15,N  11,C   8,H  12)    -58.43 -0.001836    0.70    -57.74   
    ----------------------------------------------------------------------------

         *************************************************************
         *                GEOMETRY OPTIMIZATION CYCLE   2            *
         *************************************************************
---------------------------------
CARTESIAN COORDINATES (ANGSTROEM)
---------------------------------
  C     -1.878658   -0.830299   -0.024499
  C     -1.431488    0.619827   -0.211269
  H     -1.249802   -1.537787   -0.592032
  H     -2.909506   -0.963017   -0.381329
  H     -1.858981   -1.113517    1.040340
  C     -0.017315    0.887929    0.318705
  H     -2.131055    1.283622    0.318164
  H     -1.483134    0.895392   -1.277964
  C      1.074557    0.193597   -0.511848
  H      0.026968    0.543098    1.368138
  H      0.164255    1.972597    0.336467
  N      1.958105   -0.659565    0.348843
  H      1.718245    0.922918   -1.021742
  H      0.631093   -0.462500   -1.274336
  H      2.419526   -0.090904    1.069885
  H      2.687196   -1.126938   -0.204525
  H      1.403821   -1.382669    0.825097

----------------------------
CARTESIAN COORDINATES (A.U.)
----------------------------
  NO LB      ZA    FRAG     MASS         X           Y           Z
   0 C     6.0000    0    12.011   -3.550150   -1.569038   -0.046297
   1 C     6.0000    0    12.011   -2.705120    1.171303   -0.399241
   2 H     1.0000    0     1.008   -2.361784   -2.905996   -1.118778
   3 H     1.0000    0     1.008   -5.498169   -1.819839   -0.720607
   4 H     1.0000    0     1.008   -3.512965   -2.104243    1.965958
   5 C     6.0000    0    12.011   -0.032720    1.677943    0.602266
   6 H     1.0000    0     1.008   -4.027110    2.425694    0.601244
   7 H     1.0000    0     1.008   -2.802718    1.692046   -2.415001
   8 C     6.0000    0    12.011    2.030619    0.365846   -0.967253
   9 H     1.0000    0     1.008    0.050962    1.026306    2.585407
  10 H     1.0000    0     1.008    0.310397    3.727669    0.635830
  11 N     7.0000    0    14.007    3.700282   -1.246397    0.659218
  12 H     1.0000    0     1.008    3.247013    1.744063   -1.930812
  13 H     1.0000    0     1.008    1.192593   -0.873999   -2.408146
  14 H     1.0000    0     1.008    4.572242   -0.171784    2.021789
  15 H     1.0000    0     1.008    5.078065   -2.129604   -0.386497
  16 H     1.0000    0     1.008    2.652837   -2.612865    1.559207

--------------------------------
INTERNAL COORDINATES (ANGSTROEM)
--------------------------------
 C      0   0   0     0.000000000000     0.00000000     0.00000000
 C      1   0   0     1.528956951932     0.00000000     0.00000000
 H      1   2   0     1.103672075821   112.24212607     0.00000000
 H      1   2   3     1.098902847871   110.44059689   240.86277201
 H      1   2   3     1.102035934888   110.88878313   121.89551112
 C      2   1   3     1.533830958263   113.15530437   296.85629132
 H      2   1   3     1.100144232674   109.11708362   176.17248638
 H      2   1   3     1.102923751172   109.96309520    59.63943753
 C      6   2   1     1.537563071576   112.90202315    68.70099376
 H      6   2   1     1.105522500086   108.08352985   306.68329758
 H      6   2   1     1.099903506705   109.27793212   191.05330239
 N      9   6   2     1.499777318689   111.42247791   234.34306487
 H      9   6   2     1.098287176521   111.53727150   114.34036592
 H      9   6   2     1.099323438124   110.95966026   353.74944802
 H     12   9   6     1.027708907371   110.63241752   300.23746191
 H     12   9   6     1.027729490182   111.56952836   179.83627337
 H     12   9   6     1.028069942648   110.38577513    59.51321719

---------------------------
INTERNAL COORDINATES (A.U.)
---------------------------
 C      0   0   0     0.000000000000     0.00000000     0.00000000
 C      1   0   0     2.889309909707     0.00000000     0.00000000
[...]
     29       0.006015  -0.004722   0.011883   0.675289  -0.034979   0.089917
     30      -0.020968   0.016794   0.005205   0.232103  -0.010849  -0.044792
     31      -0.002008  -0.001796   0.000139   0.591587  -0.023290  -0.125311
     32       0.024672  -0.003890   0.019635   0.086193  -0.004323  -0.019575
     33      -0.100697   0.010594   0.017168   0.000119  -0.000083   0.000089
     34       0.009147   0.040583  -0.021094  -0.000175   0.000082   0.000027
     35      -0.041157  -0.016397  -0.038824  -0.000358   0.000052  -0.000142
     36      -0.137856  -0.039792  -0.042952   0.005269   0.000088   0.003573
     37      -0.156223   0.004848  -0.000889   0.014713   0.000493   0.002904
     38      -0.078805  -0.021570  -0.021408  -0.029281  -0.001205  -0.009384
     39      -0.065553   0.050637  -0.030182  -0.006333  -0.005188   0.002933
     40       0.063781  -0.000312   0.002674  -0.022755  -0.014242   0.008199
     41      -0.200961   0.025480  -0.018347  -0.002082  -0.001356   0.001058
     42       0.440302  -0.407008  -0.159978   0.005391   0.000467  -0.001174
     43      -0.236899   0.185143  -0.048002   0.003464   0.000109  -0.000074
     44       0.194259   0.101861   0.660396  -0.000689   0.000166   0.000273
     45       0.353670  -0.167269  -0.252029   0.002593  -0.000480   0.000272
     46       0.104975  -0.584696  -0.146369  -0.000110   0.000014  -0.000524
     47       0.394290   0.363238  -0.226848   0.001516  -0.000032   0.000183
     48       0.542275   0.377885   0.149756   0.003331  -0.000091  -0.000157
     49       0.048504  -0.331290   0.551702  -0.004930   0.000058  -0.000124
     50       0.034082  -0.164220   0.256191   0.004397  -0.000509   0.000327
                 42         43         44         45         46         47    
      0       0.000965  -0.002335   0.025419  -0.030506  -0.075362  -0.004211
      1      -0.001147  -0.000355  -0.004943   0.005535   0.036252   0.002106
      2       0.000289   0.004241  -0.051036   0.067090  -0.039759   0.002372
      3      -0.006273  -0.000787  -0.035307  -0.026443  -0.001609  -0.000266
      4       0.012568   0.001564   0.019816   0.012482   0.003547   0.000321
      5      -0.001386  -0.000579   0.060938   0.049095  -0.000457   0.000262
      6      -0.002932   0.012360  -0.205887   0.264526   0.094880   0.022881
      7       0.003487  -0.015801   0.252951  -0.332538  -0.123200  -0.027038
      8       0.004442  -0.018955   0.285386  -0.372228  -0.152159  -0.030509
      9      -0.011720   0.011001  -0.072374   0.064472   0.832857   0.029531
     10       0.002485  -0.001480   0.012139  -0.009539  -0.133722  -0.004986
     11      -0.003666   0.005416  -0.039225   0.036479   0.305411   0.011403
     12      -0.001067   0.002268  -0.024861   0.035859  -0.036117  -0.000013
     13      -0.000240   0.021208  -0.209517   0.274158  -0.180401   0.005649
     14      -0.002814  -0.036662   0.359210  -0.464432   0.319116  -0.009460
     15       0.027905   0.003691  -0.001077  -0.000889   0.000500   0.002785
     16       0.079005   0.013184  -0.003779  -0.003070   0.000199   0.008107
     17      -0.036094  -0.007714   0.005144   0.003598   0.000330  -0.004245
     18       0.082168   0.010849   0.387227   0.284042   0.020928   0.002145
     19      -0.087976  -0.011537  -0.408962  -0.304792  -0.023406  -0.003088
     20      -0.087281  -0.009930  -0.403069  -0.298664  -0.021676  -0.002241
     21      -0.008683   0.000416   0.027214   0.028048  -0.003175   0.001751
     22      -0.052328  -0.008525   0.178336   0.158471  -0.015162  -0.001162
     23       0.099672   0.015762  -0.322167  -0.283658   0.024868   0.002145
     24      -0.001103  -0.007580   0.001123  -0.000384  -0.000860   0.026336
     25      -0.004051  -0.026486   0.001487  -0.001800  -0.002851   0.083707
     26       0.015040  -0.063671  -0.003858   0.003662   0.001662  -0.040434
     27      -0.056496  -0.014221   0.005375   0.001526   0.001261  -0.010194
     28      -0.262401  -0.057079   0.029304   0.020978   0.000708  -0.028308
     29       0.545110   0.121332  -0.058764  -0.045518  -0.000185   0.061826
     30      -0.270726  -0.036696   0.005961   0.007274  -0.000706  -0.023720
     31      -0.679620  -0.088040   0.015613   0.017413  -0.001178  -0.070837
     32      -0.114167  -0.014120   0.002216   0.001591   0.000285  -0.012324
     33       0.000051   0.000770   0.000032   0.000050   0.000052  -0.000666
     34       0.000492   0.000717   0.000003  -0.000091   0.000035  -0.002152
     35      -0.000606   0.001779   0.000081  -0.000101  -0.000058   0.001013
     36       0.023215  -0.104264  -0.005759   0.008583   0.003392  -0.092696
     37       0.084271  -0.315423  -0.021705   0.020281   0.010664  -0.266875
     38      -0.172412   0.654555   0.043520  -0.043556  -0.022705   0.572808
     39      -0.006920   0.195781   0.000078  -0.000129   0.008173  -0.219653
     40      -0.034963   0.617105   0.001035  -0.000306   0.023191  -0.714567
     41      -0.003582   0.076725  -0.000501   0.000897   0.002814  -0.097972
     42      -0.006212  -0.002917   0.000255  -0.000383  -0.000333  -0.002289
     43      -0.003582  -0.008571   0.000127  -0.000630  -0.000962   0.013326
     44      -0.000631  -0.000479   0.000174  -0.000067  -0.000084  -0.001604
     45       0.000107  -0.005358  -0.000278   0.000135  -0.000311  -0.000061
     46      -0.001104  -0.001336   0.000066   0.000464   0.000377  -0.000273
     47       0.001504  -0.004737  -0.000112   0.000680   0.000343   0.000956
     48       0.002441   0.003622  -0.000128  -0.000893  -0.000122   0.007934
     49      -0.004065   0.003603   0.000656   0.000655  -0.000034   0.005114
     50       0.006190  -0.006651  -0.001111  -0.001067   0.000235  -0.008117
                 48         49         50    
      0      -0.000072   0.000023   0.000015
      1       0.000004   0.000019   0.000002
      2       0.000075  -0.000059   0.000029
      3      -0.000019  -0.000025  -0.000061
      4      -0.000057   0.000028  -0.000014
      5      -0.000079  -0.000038  -0.000024
      6       0.000165  -0.000123   0.000075
      7      -0.000624  -0.000005  -0.000171
      8      -0.000793  -0.000056  -0.000149
      9       0.000809   0.000050  -0.000185
     10      -0.000067  -0.000070   0.000048
     11       0.000135  -0.000015  -0.000120
     12      -0.000044  -0.000156   0.000082
     13       0.000298  -0.000254   0.000105
     14      -0.000471   0.000401  -0.000198
     15       0.000420   0.000256  -0.000241
     16       0.000321   0.000773   0.000227
     17       0.000782  -0.000375   0.000362
     18       0.001333   0.000087   0.000103
     19      -0.000521  -0.000054  -0.000040
     20      -0.000248  -0.000091   0.000077
     21      -0.000041  -0.000068   0.000080
     22       0.000303  -0.000313   0.000080
     23      -0.000216   0.000861  -0.000216
     24      -0.000568  -0.000332  -0.000421
     25      -0.000336  -0.001028   0.000035
     26      -0.000953   0.000543  -0.000267
     27      -0.000288   0.000077  -0.000197
     28       0.002129  -0.003013   0.001375
     29      -0.003472   0.003925  -0.002284
     30      -0.002398  -0.002757  -0.001256
     31      -0.003650  -0.004483  -0.001820
     32      -0.000436  -0.000056  -0.000298
     33      -0.038161  -0.020432   0.031694
     34      -0.000247  -0.070362  -0.041286
     35      -0.021311   0.035649  -0.063172
     36       0.002567  -0.001073   0.000699
     37      -0.003130   0.005991  -0.001779
     38       0.007196  -0.010351   0.005960
     39       0.005298   0.006694   0.002481
     40       0.005640   0.011346   0.004538
     41       0.002052   0.001598   0.002008
     42       0.216460   0.266502   0.135281
     43       0.548343   0.658501   0.323920
     44       0.077274   0.101431   0.041161
     45       0.354314  -0.029923  -0.542957
     46      -0.287282   0.015428   0.433900
     47      -0.306474   0.027276   0.457915
     48      -0.045052   0.045530  -0.026187
     49      -0.257195   0.297134  -0.189436
     50       0.523673  -0.621136   0.372785


-----------
IR SPECTRUM
-----------

 Mode   freq       eps      Int      T**2         TX        TY        TZ
       cm**-1   L/(mol*cm) km/mol    a.u.
----------------------------------------------------------------------------
  6:     84.44   0.000292    1.47  0.001077  ( 0.003658  0.024206 -0.021864)
  7:    108.55   0.001156    5.84  0.003323  ( 0.036218  0.043079 -0.012455)
  8:    206.52   0.000713    3.60  0.001077  (-0.009487 -0.018929 -0.025076)
  9:    234.44   0.000017    0.08  0.000022  (-0.000239 -0.001998 -0.004267)
 10:    284.90   0.000344    1.74  0.000377  (-0.010769  0.006384  0.014849)
 11:    338.37   0.001324    6.69  0.001221  ( 0.031983 -0.012745 -0.005980)
 12:    480.07   0.001055    5.33  0.000686  ( 0.023927 -0.010654 -0.000044)
 13:    753.67   0.001035    5.23  0.000428  (-0.012427 -0.009294  0.013699)
 14:    795.45   0.000898    4.54  0.000352  ( 0.005185  0.017986 -0.001438)
 15:    880.36   0.001867    9.44  0.000662  (-0.019955  0.012336  0.010561)
 16:    900.68   0.001356    6.85  0.000470  ( 0.006579  0.011885 -0.016889)
 17:    929.24   0.002185   11.04  0.000734  ( 0.022407 -0.014911 -0.003091)
 18:   1006.97   0.000712    3.60  0.000221  ( 0.000010 -0.003481  0.014436)
 19:   1009.44   0.001549    7.83  0.000479  ( 0.015946  0.014436  0.004025)
 20:   1042.77   0.001761    8.90  0.000527  (-0.010110  0.012959  0.016025)
 21:   1114.37   0.000719    3.63  0.000201  (-0.013566  0.000545 -0.004115)
 22:   1169.88   0.001923    9.72  0.000513  ( 0.015848 -0.015169 -0.005624)
 23:   1197.57   0.000714    3.61  0.000186  ( 0.001790  0.005002 -0.012559)
 24:   1288.36   0.000287    1.45  0.000070  (-0.006621 -0.001992  0.004661)
 25:   1313.53   0.000196    0.99  0.000046  ( 0.004088 -0.001251  0.005308)
 26:   1345.66   0.001634    8.26  0.000379  ( 0.005558  0.017727 -0.005806)
 27:   1356.91   0.000430    2.18  0.000099  ( 0.005368  0.004757 -0.006895)
 28:   1386.43   0.000529    2.67  0.000119  (-0.010273  0.000978 -0.003547)
 29:   1424.36   0.002396   12.11  0.000525  ( 0.022173  0.005264  0.002370)
 30:   1429.85   0.000834    4.21  0.000182  ( 0.001126  0.013441 -0.000082)
 31:   1469.46   0.000493    2.49  0.000105  (-0.001923 -0.009559  0.003087)
 32:   1473.91   0.001176    5.94  0.000249  ( 0.009575 -0.008514 -0.009205)
 33:   1484.68   0.001157    5.85  0.000243  ( 0.012730 -0.007159  0.005465)
 34:   1486.50   0.002292   11.58  0.000481  ( 0.006984  0.003529 -0.020493)
 35:   1492.27   0.004385   22.16  0.000917  ( 0.012338  0.011147  0.025307)
 36:   1502.42   0.028595  144.51  0.005939  ( 0.070878 -0.007848  0.029225)
 37:   1623.80   0.009650   48.77  0.001855  (-0.009875 -0.038387  0.016836)
 38:   1635.10   0.007096   35.86  0.001354  (-0.016319  0.014929  0.029414)
 39:   3057.62   0.002856   14.43  0.000291  (-0.009450 -0.004263 -0.013564)
 40:   3066.75   0.002403   12.14  0.000245  ( 0.001351 -0.015534 -0.001183)
 41:   3085.75   0.001988   10.05  0.000201  ( 0.003137 -0.011714  0.007348)
 42:   3118.86   0.002361   11.93  0.000236  ( 0.004464  0.013846 -0.004964)
 43:   3122.22   0.000215    1.08  0.000021  ( 0.001351  0.000005 -0.004429)
 44:   3144.49   0.000076    0.39  0.000008  ( 0.002080 -0.000380 -0.001758)
 45:   3161.20   0.004629   23.39  0.000457  (-0.009742  0.002554  0.018856)
 46:   3185.08   0.000894    4.52  0.000088  (-0.007022  0.005058 -0.003568)
 47:   3198.13   0.000042    0.21  0.000004  (-0.000515  0.001967 -0.000099)
 48:   3440.56   0.012184   61.57  0.001105  ( 0.030848 -0.002053  0.012219)
 49:   3533.46   0.022831  115.38  0.002016  ( 0.011087  0.038835 -0.019630)
 50:   3541.42   0.025515  128.94  0.002248  (-0.020084  0.023894  0.035694)

* The epsilon (eps) is given for a Dirac delta lineshape.
** The dipole moment derivative (T) already includes vibrational overlap.

The first frequency considered to be a vibration is 6
The total number of vibrations considered is 45


--------------------------
THERMOCHEMISTRY AT 298.15K
--------------------------

Temperature         ... 298.15 K
Pressure            ... 1.00 atm
Total Mass          ... 74.15 AMU

Throughout the following assumptions are being made:
  (1) The electronic state is orbitally nondegenerate
  (2) There are no thermally accessible electronically excited states
  (3) Hindered rotations indicated by low frequency modes are not
      treated as such but are treated as vibrations and this may
      cause some error
  (4) All equations used are the standard statistical mechanics
      equations for an ideal gas
  (5) All vibrations are strictly harmonic

freq.      84.44  E(vib)   ...       0.48 
freq.     108.55  E(vib)   ...       0.45 
freq.     206.52  E(vib)   ...       0.35 
freq.     234.44  E(vib)   ...       0.32 
freq.     284.90  E(vib)   ...       0.28 
freq.     338.37  E(vib)   ...       0.23 
freq.     480.07  E(vib)   ...       0.15 
freq.     753.67  E(vib)   ...       0.06 
freq.     795.45  E(vib)   ...       0.05 
freq.     880.36  E(vib)   ...       0.04 
freq.     900.68  E(vib)   ...       0.03 
freq.     929.24  E(vib)   ...       0.03 
freq.    1006.97  E(vib)   ...       0.02 
freq.    1009.44  E(vib)   ...       0.02 
freq.    1042.77  E(vib)   ...       0.02 
freq.    1114.37  E(vib)   ...       0.01 
freq.    1169.88  E(vib)   ...       0.01 
freq.    1197.57  E(vib)   ...       0.01 
freq.    1288.36  E(vib)   ...       0.01 
freq.    1313.53  E(vib)   ...       0.01 
freq.    1345.66  E(vib)   ...       0.01 
freq.    1356.91  E(vib)   ...       0.01 
freq.    1386.43  E(vib)   ...       0.00 
freq.    1424.36  E(vib)   ...       0.00 
freq.    1429.85  E(vib)   ...       0.00 
freq.    1469.46  E(vib)   ...       0.00 
freq.    1473.91  E(vib)   ...       0.00 
freq.    1484.68  E(vib)   ...       0.00 
freq.    1486.50  E(vib)   ...       0.00 
freq.    1492.27  E(vib)   ...       0.00 
freq.    1502.42  E(vib)   ...       0.00 
freq.    1623.80  E(vib)   ...       0.00 
freq.    1635.10  E(vib)   ...       0.00 
freq.    3057.62  E(vib)   ...       0.00 
freq.    3066.75  E(vib)   ...       0.00 
freq.    3085.75  E(vib)   ...       0.00 
freq.    3118.86  E(vib)   ...       0.00 
freq.    3122.22  E(vib)   ...       0.00 
freq.    3144.49  E(vib)   ...       0.00 
freq.    3161.20  E(vib)   ...       0.00 
freq.    3185.08  E(vib)   ...       0.00 
freq.    3198.13  E(vib)   ...       0.00 
freq.    3440.56  E(vib)   ...       0.00 
freq.    3533.46  E(vib)   ...       0.00 
freq.    3541.42  E(vib)   ...       0.00 

------------
INNER ENERGY
------------

The inner energy is: U= E(el) + E(ZPE) + E(vib) + E(rot) + E(trans)
    E(el)   - is the total energy from the electronic structure calculation
              = E(kin-el) + E(nuc-el) + E(el-el) + E(nuc-nuc)
    E(ZPE)  - the the zero temperature vibrational energy from the frequency calculation
    E(vib)  - the the finite temperature correction to E(ZPE) due to population
              of excited vibrational states
    E(rot)  - is the rotational thermal energy
    E(trans)- is the translational thermal energy

Summary of contributions to the inner energy U:
Electronic energy                ...   -213.95821801 Eh
Zero point energy                ...      0.16609316 Eh     104.22 kcal/mol
Thermal vibrational correction   ...      0.00418944 Eh       2.63 kcal/mol
Thermal rotational correction    ...      0.00141627 Eh       0.89 kcal/mol
Thermal translational correction ...      0.00141627 Eh       0.89 kcal/mol
-----------------------------------------------------------------------
Total thermal energy                   -213.78510287 Eh


Summary of corrections to the electronic energy:
(perhaps to be used in another calculation)
Total thermal correction                  0.00702198 Eh       4.41 kcal/mol
Non-thermal (ZPE) correction              0.16609316 Eh     104.22 kcal/mol
-----------------------------------------------------------------------
Total correction                          0.17311514 Eh     108.63 kcal/mol


--------
ENTHALPY
--------

The enthalpy is H = U + kB*T
                kB is Boltzmann's constant
Total free energy                 ...   -213.78510287 Eh 
Thermal Enthalpy correction       ...      0.00094421 Eh       0.59 kcal/mol
-----------------------------------------------------------------------
Total Enthalpy                    ...   -213.78415866 Eh


Note: Only C1 symmetry has been detected, increase convergence thresholds 
      if your molecule has a higher symmetry. Symmetry factor of 1.0 is   
      used for the rotational entropy correction. 
 

Note: Rotational entropy computed according to Herzberg 
Infrared and Raman Spectra, Chapter V,1, Van Nostrand Reinhold, 1945 
Point Group:  C1, Symmetry Number:   1  
Rotational constants in cm-1:     0.384118     0.075164     0.069225 

Vibrational entropy computed according to the QRRHO of S. Grimme
Chem.Eur.J. 2012 18 9955


-------
ENTROPY
-------

The entropy contributions are T*S = T*(S(el)+S(vib)+S(rot)+S(trans))
     S(el)   - electronic entropy
     S(vib)  - vibrational entropy
     S(rot)  - rotational entropy
     S(trans)- translational entropy
The entropies will be listed as multiplied by the temperature to get
units of energy

Electronic entropy                ...      0.00000000 Eh      0.00 kcal/mol
Vibrational entropy               ...      0.00724454 Eh      4.55 kcal/mol
Rotational entropy                ...      0.01244498 Eh      7.81 kcal/mol
Translational entropy             ...      0.01844761 Eh     11.58 kcal/mol
-----------------------------------------------------------------------
Final entropy term                ...      0.03813713 Eh     23.93 kcal/mol

In case the symmetry of your molecule has not been determined correctly
or in case you have a reason to use a different symmetry number we print 
out the resulting rotational entropy values for sn=1,12 :
 --------------------------------------------------------
|  sn= 1 | S(rot)=       0.01244498 Eh      7.81 kcal/mol|
|  sn= 2 | S(rot)=       0.01179053 Eh      7.40 kcal/mol|
|  sn= 3 | S(rot)=       0.01140769 Eh      7.16 kcal/mol|
|  sn= 4 | S(rot)=       0.01113607 Eh      6.99 kcal/mol|
|  sn= 5 | S(rot)=       0.01092538 Eh      6.86 kcal/mol|
|  sn= 6 | S(rot)=       0.01075324 Eh      6.75 kcal/mol|
|  sn= 7 | S(rot)=       0.01060769 Eh      6.66 kcal/mol|
|  sn= 8 | S(rot)=       0.01048161 Eh      6.58 kcal/mol|
|  sn= 9 | S(rot)=       0.01037040 Eh      6.51 kcal/mol|
|  sn=10 | S(rot)=       0.01027092 Eh      6.45 kcal/mol|
|  sn=11 | S(rot)=       0.01018093 Eh      6.39 kcal/mol|
|  sn=12 | S(rot)=       0.01009878 Eh      6.34 kcal/mol|
 --------------------------------------------------------


-------------------
GIBBS FREE ENERGY
-------------------

The Gibbs free energy is G = H - T*S

Total enthalpy                    ...   -213.78415866 Eh 
Total entropy correction          ...     -0.03813713 Eh    -23.93 kcal/mol
-----------------------------------------------------------------------
Final Gibbs free energy         ...   -213.82229579 Eh

For completeness - the Gibbs free energy minus the electronic energy
G-E(el)                           ...      0.13592223 Eh     85.29 kcal/mol


Timings for individual modules:

Sum of individual times         ...     1138.339 sec (=  18.972 min)
GTO integral calculation        ...       25.284 sec (=   0.421 min)   2.2 %
SCF iterations                  ...      777.465 sec (=  12.958 min)  68.3 %
SCF Gradient evaluation         ...      276.283 sec (=   4.605 min)  24.3 %
Geometry relaxation             ...        2.274 sec (=   0.038 min)   0.2 %
Analytical frequency calculation...       57.033 sec (=   0.951 min)   5.0 %
                             ****ORCA TERMINATED NORMALLY****
TOTAL RUN TIME: 0 days 0 hours 19 minutes 20 seconds 185 msec
