
                                 *****************
                                 * O   R   C   A *
                                 *****************

                                            #,                                       
                                            ###                                      
                                            ####                                     
                                            #####                                    
                                            ######                                   
                                           ########,                                 
                                     ,,################,,,,,                         
                               ,,#################################,,                 
                          ,,##########################################,,             
                       ,#########################################, ''#####,          
                    ,#############################################,,   '####,        
                  ,##################################################,,,,####,       
                ,###########''''           ''''###############################       
              ,#####''   ,,,,##########,,,,          '''####'''          '####       
            ,##' ,,,,###########################,,,                        '##       
           ' ,,###''''                  '''############,,,                           
         ,,##''                                '''############,,,,        ,,,,,,###''
      ,#''                                            '''#######################'''  
     '                                                          ''''####''''         
             ,#######,   #######,   ,#######,      ##                                
            ,#'     '#,  ##    ##  ,#'     '#,    #''#        ######   ,####,        
            ##       ##  ##   ,#'  ##            #'  '#       #        #'  '#        
            ##       ##  #######   ##           ,######,      #####,   #    #        
            '#,     ,#'  ##    ##  '#,     ,#' ,#      #,         ##   #,  ,#        
             '#######'   ##     ##  '#######'  #'      '#     #####' # '####'        



                  #######################################################
                  #                        -***-                        #
                  #          Department of theory and spectroscopy      #
                  #    Directorship and core code : Frank Neese         #
                  #        Max Planck Institute fuer Kohlenforschung    #
                  #                Kaiser Wilhelm Platz 1               #
                  #                 D-45470 Muelheim/Ruhr               #
                  #                      Germany                        #
                  #                                                     #
                  #                  All rights reserved                #
                  #                        -***-                        #
                  #######################################################


                         Program Version 5.0.4 -  RELEASE  -


 With contributions from (in alphabetic order):
   Daniel Aravena         : Magnetic Suceptibility
   Michael Atanasov       : Ab Initio Ligand Field Theory (pilot matlab implementation)
   Alexander A. Auer      : GIAO ZORA, VPT2 properties, NMR spectrum
   Ute Becker             : Parallelization
   Giovanni Bistoni       : ED, misc. LED, open-shell LED, HFLD
   Martin Brehm           : Molecular dynamics
   Dmytro Bykov           : SCF Hessian
   Vijay G. Chilkuri      : MRCI spin determinant printing, contributions to CSF-ICE
   Dipayan Datta          : RHF DLPNO-CCSD density
   Achintya Kumar Dutta   : EOM-CC, STEOM-CC
   Dmitry Ganyushin       : Spin-Orbit,Spin-Spin,Magnetic field MRCI
   Miquel Garcia          : C-PCM and meta-GGA Hessian, CC/C-PCM, Gaussian charge scheme
   Yang Guo               : DLPNO-NEVPT2, F12-NEVPT2, CIM, IAO-localization
   Andreas Hansen         : Spin unrestricted coupled pair/coupled cluster methods
   Benjamin Helmich-Paris : MC-RPA, TRAH-SCF, COSX integrals
   Lee Huntington         : MR-EOM, pCC
   Robert Izsak           : Overlap fitted RIJCOSX, COSX-SCS-MP3, EOM
   Marcus Kettner         : VPT2
   Christian Kollmar      : KDIIS, OOCD, Brueckner-CCSD(T), CCSD density, CASPT2, CASPT2-K
   Simone Kossmann        : Meta GGA functionals, TD-DFT gradient, OOMP2, MP2 Hessian
   Martin Krupicka        : Initial AUTO-CI
   Lucas Lang             : DCDCAS
   Marvin Lechner         : AUTO-CI (C++ implementation), FIC-MRCC
   Dagmar Lenk            : GEPOL surface, SMD
   Dimitrios Liakos       : Extrapolation schemes; Compound Job, initial MDCI parallelization
   Dimitrios Manganas     : Further ROCIS development; embedding schemes
   Dimitrios Pantazis     : SARC Basis sets
   Anastasios Papadopoulos: AUTO-CI, single reference methods and gradients
   Taras Petrenko         : DFT Hessian,TD-DFT gradient, ASA, ECA, R-Raman, ABS, FL, XAS/XES, NRVS
   Peter Pinski           : DLPNO-MP2, DLPNO-MP2 Gradient
   Christoph Reimann      : Effective Core Potentials
   Marius Retegan         : Local ZFS, SOC
   Christoph Riplinger    : Optimizer, TS searches, QM/MM, DLPNO-CCSD(T), (RO)-DLPNO pert. Triples
   Tobias Risthaus        : Range-separated hybrids, TD-DFT gradient, RPA, STAB
   Michael Roemelt        : Original ROCIS implementation
   Masaaki Saitow         : Open-shell DLPNO-CCSD energy and density
   Barbara Sandhoefer     : DKH picture change effects
   Avijit Sen             : IP-ROCIS
   Kantharuban Sivalingam : CASSCF convergence, NEVPT2, FIC-MRCI
   Bernardo de Souza      : ESD, SOC TD-DFT
   Georgi Stoychev        : AutoAux, RI-MP2 NMR, DLPNO-MP2 response
   Willem Van den Heuvel  : Paramagnetic NMR
   Boris Wezisla          : Elementary symmetry handling
   Frank Wennmohs         : Technical directorship


 We gratefully acknowledge several colleagues who have allowed us to
 interface, adapt or use parts of their codes:
   Stefan Grimme, W. Hujo, H. Kruse, P. Pracht,  : VdW corrections, initial TS optimization,
                  C. Bannwarth, S. Ehlert          DFT functionals, gCP, sTDA/sTD-DF
   Ed Valeev, F. Pavosevic, A. Kumar             : LibInt (2-el integral package), F12 methods
   Garnet Chan, S. Sharma, J. Yang, R. Olivares  : DMRG
   Ulf Ekstrom                                   : XCFun DFT Library
   Mihaly Kallay                                 : mrcc  (arbitrary order and MRCC methods)
   Jiri Pittner, Ondrej Demel                    : Mk-CCSD
   Frank Weinhold                                : gennbo (NPA and NBO analysis)
   Christopher J. Cramer and Donald G. Truhlar   : smd solvation model
   Lars Goerigk                                  : TD-DFT with DH, B97 family of functionals
   V. Asgeirsson, H. Jonsson                     : NEB implementation
   FAccTs GmbH                                   : IRC, NEB, NEB-TS, DLPNO-Multilevel, CI-OPT
                                                   MM, QMMM, 2- and 3-layer-ONIOM, Crystal-QMMM,
                                                   LR-CPCM, SF, NACMEs, symmetry and pop. for TD-DFT,
                                                   nearIR, NL-DFT gradient (VV10), updates on ESD,
                                                   ML-optimized integration grids
   S Lehtola, MJT Oliveira, MAL Marques          : LibXC Library
   Liviu Ungur et al                             : ANISO software


 Your calculation uses the libint2 library for the computation of 2-el integrals
 For citations please refer to: http://libint.valeyev.net

 Your ORCA version has been built with support for libXC version: 5.1.0
 For citations please refer to: https://tddft.org/programs/libxc/

 This ORCA versions uses:
   CBLAS   interface :  Fast vector & matrix operations
   LAPACKE interface :  Fast linear algebra routines
   SCALAPACK package :  Parallel linear algebra routines
   Shared memory     :  Shared parallel matrices
   BLAS/LAPACK       :  OpenBLAS 0.3.15  USE64BITINT DYNAMIC_ARCH NO_AFFINITY SkylakeX SINGLE_THREADED
        Core in use  :  SkylakeX
   Copyright (c) 2011-2014, The OpenBLAS Project




***************************************
The coordinates will be read from file: butylamine_prot_aq_3.xyz
***************************************


Your calculation utilizes the atom-pairwise dispersion correction
based on tight binding partial charges (D4)
Cite in your paper:
E.Caldeweyher, C.Bannwarth, S.Grimme, J.Chem.Phys., (2017), 147, 034112.
E.Caldeweyher, S.Ehlert, A.Hansen, H.Neugebauer, S.Grimme, J.Chem.Phys., (2018), in progress.
   

XCFun DFT library Copyright 2009-2010 Ulf Ekstrom and contributors.
See http://admol.org/xcfun for more information.
This is free software; see the source code for copying conditions.
There is ABSOLUTELY NO WARRANTY; not even for MERCHANTABILITY or FITNESS FOR A PARTICULAR PURPOSE.
For details see the documentation.
Scientific users of this library should cite U. Ekstrom, L. Visscher, R. Bast, A. J. Thorvaldsen and K. Ruud;
J.Chem.Theor.Comp. 2010, DOI: 10.1021/ct100117s
XCFun Version 0.99 

================================================================================

----- Orbital basis set information -----
Your calculation utilizes the basis: def2-SVP
   F. Weigend and R. Ahlrichs, Phys. Chem. Chem. Phys. 7, 3297 (2005).

----- AuxJ basis set information -----
Your calculation utilizes the auxiliary basis: def2/J
   F. Weigend, Phys. Chem. Chem. Phys. 8, 1057 (2006).

================================================================================
                                        WARNINGS
                       Please study these warnings very carefully!
================================================================================


WARNING: Geometry Optimization
  ===> : Switching off AutoStart
         For restart on a previous wavefunction, please use MOREAD

INFO   : the flag for use of the SHARK integral package has been found!

================================================================================
                                       INPUT FILE
================================================================================
NAME = butylamine_prot_aq_3.inp
|  1> # ORCA 5.0.4 - /users/bwb16179/postgrad/2024_06/pKa_Reviewer_Comments/CREST_Confs/butylamine/butylamine_prot_aq_3.inp # write input file
|  2> # Basic Mode
|  3> #
|  4> ! Opt Freq wB97X Def2-SVP D4 SlowConv TightSCF Defgrid2 Def2/J RIJCOSX 
|  5> 
|  6> %PAL NPROCS 4 END
|  7> 
|  8> %maxcore 4500
|  9> 
| 10> %geom
| 11> Maxiter 150
| 12> END
| 13> 
| 14> * xyzfile 1 1 butylamine_prot_aq_3.xyz
| 15> 
| 16>                          ****END OF INPUT****
================================================================================

                       *****************************
                       * Geometry Optimization Run *
                       *****************************

Geometry optimization settings:
Update method            Update   .... BFGS
Choice of coordinates    CoordSys .... Z-matrix Internals
Initial Hessian          InHess   .... Almoef's Model

Convergence Tolerances:
Energy Change            TolE     ....  5.0000e-06 Eh
Max. Gradient            TolMAXG  ....  3.0000e-04 Eh/bohr
RMS Gradient             TolRMSG  ....  1.0000e-04 Eh/bohr
Max. Displacement        TolMAXD  ....  4.0000e-03 bohr
RMS Displacement         TolRMSD  ....  2.0000e-03 bohr
Strict Convergence                ....  False
------------------------------------------------------------------------------
                        ORCA OPTIMIZATION COORDINATE SETUP
------------------------------------------------------------------------------

The optimization will be done in new redundant internal coordinates
Making redundant internal coordinates   ...  (new redundants) done
Evaluating the initial hessian          ...  (Almloef) done
Evaluating the coordinates              ...  done
Calculating the B-matrix                .... done
Calculating the G-matrix                .... done
Diagonalizing the G-matrix              .... done
Small eigenvalue found = 2.611e-02
The first mode is                       ....   37
The number of degrees of freedom        ....   45

    -----------------------------------------------------------------
                    Redundant Internal Coordinates


    -----------------------------------------------------------------
         Definition                    Initial Value    Approx d2E/dq
    -----------------------------------------------------------------
      1. B(C   1,C   0)                  1.5262         0.378850   
      2. B(H   2,C   0)                  1.0878         0.363078   
      3. B(H   3,C   0)                  1.0866         0.364638   
      4. B(H   4,C   0)                  1.0878         0.363077   
      5. B(C   5,C   1)                  1.5321         0.370692   
      6. B(H   6,C   1)                  1.0915         0.358160   
      7. B(H   7,C   1)                  1.0914         0.358224   
      8. B(C   8,C   5)                  1.5245         0.381247   
      9. B(H   9,C   5)                  1.0911         0.358648   
     10. B(H  10,C   5)                  1.0902         0.359837   
     11. B(N  11,C   8)                  1.4908         0.386454   
     12. B(H  12,C   8)                  1.0901         0.360005   
     13. B(H  13,C   8)                  1.0893         0.360977   
     14. B(H  14,N  11)                  1.0295         0.402792   
     15. B(H  15,N  11)                  1.0303         0.401558   
     16. B(H  16,N  11)                  1.0308         0.400852   
     17. A(H   3,C   0,H   4)          108.4407         0.291790   
     18. A(C   1,C   0,H   4)          110.5246         0.325507   
     19. A(C   1,C   0,H   2)          109.9993         0.325507   
     20. A(H   2,C   0,H   4)          107.7391         0.291593   
     21. A(H   2,C   0,H   3)          107.4925         0.291790   
     22. A(C   1,C   0,H   3)          112.4823         0.325737   
     23. A(C   0,C   1,C   5)          113.3131         0.363741   
     24. A(H   6,C   1,H   7)          106.3801         0.290355   
     25. A(C   5,C   1,H   7)          107.5241         0.323629   
     26. A(C   0,C   1,H   7)          108.3219         0.324788   
     27. A(C   5,C   1,H   6)          111.4271         0.323620   
     28. A(C   0,C   1,H   6)          109.5706         0.324778   
     29. A(C   1,C   5,H   9)          109.0086         0.323692   
     30. A(C   1,C   5,C   8)          114.6166         0.364134   
     31. A(C   8,C   5,H   9)          109.7970         0.325188   
     32. A(H   9,C   5,H  10)          107.1336         0.290621   
     33. A(C   8,C   5,H  10)          107.6429         0.325365   
     34. A(C   1,C   5,H  10)          108.3691         0.323868   
     35. A(H  12,C   8,H  13)          108.6498         0.290939   
     36. A(N  11,C   8,H  13)          108.9439         0.324309   
     37. A(C   5,C   8,H  13)          110.1981         0.325534   
     38. A(N  11,C   8,H  12)          108.6430         0.324166   
     39. A(C   5,C   8,H  12)          109.3195         0.325390   
     40. A(C   5,C   8,N  11)          111.0367         0.364454   
     41. A(H  15,N  11,H  16)          108.4152         0.296050   
     42. A(H  14,N  11,H  16)          109.0193         0.296194   
     43. A(C   8,N  11,H  16)          109.9441         0.327148   
     44. A(H  14,N  11,H  15)          108.8757         0.296276   
     45. A(C   8,N  11,H  15)          109.7109         0.327243   
     46. A(C   8,N  11,H  14)          110.8283         0.327409   
     47. D(H   6,C   1,C   0,H   4)   -178.2934         0.011443   
     48. D(H   7,C   1,C   0,H   4)     66.0482         0.011443   
     49. D(H   7,C   1,C   0,H   3)   -172.5874         0.011443   
     50. D(H   6,C   1,C   0,H   2)     62.8599         0.011443   
     51. D(C   5,C   1,C   0,H   4)    -53.1667         0.011443   
     52. D(H   6,C   1,C   0,H   3)    -56.9289         0.011443   
     53. D(C   5,C   1,C   0,H   3)     68.1977         0.011443   
     54. D(C   5,C   1,C   0,H   2)   -172.0135         0.011443   
     55. D(H   7,C   1,C   0,H   2)    -52.7985         0.011443   
     56. D(H   9,C   5,C   1,H   6)    -60.8304         0.010982   
     57. D(C   8,C   5,C   1,H   7)    178.8721         0.010982   
     58. D(C   8,C   5,C   1,H   6)     62.6656         0.010982   
     59. D(C   8,C   5,C   1,C   0)    -61.4558         0.010982   
     60. D(H   9,C   5,C   1,H   7)     55.3762         0.010982   
     61. D(H  10,C   5,C   1,H   7)    -60.9010         0.010982   
     62. D(H  10,C   5,C   1,H   6)   -177.1075         0.010982   
     63. D(H  10,C   5,C   1,C   0)     58.7711         0.010982   
     64. D(H   9,C   5,C   1,C   0)    175.0483         0.010982   
     65. D(H  13,C   8,C   5,H   9)    178.7983         0.011580   
     66. D(H  13,C   8,C   5,C   1)     55.7254         0.011580   
     67. D(H  12,C   8,C   5,H  10)     54.4400         0.011580   
     68. D(H  12,C   8,C   5,H   9)    -61.8583         0.011580   
     69. D(H  12,C   8,C   5,C   1)    175.0688         0.011580   
     70. D(N  11,C   8,C   5,H  10)    174.2924         0.011580   
     71. D(N  11,C   8,C   5,H   9)     57.9941         0.011580   
     72. D(H  13,C   8,C   5,H  10)    -64.9034         0.011580   
     73. D(N  11,C   8,C   5,C   1)    -65.0788         0.011580   
     74. D(H  15,N  11,C   8,C   5)     61.2827         0.013665   
     75. D(H  14,N  11,C   8,H  13)     60.0048         0.013665   
     76. D(H  14,N  11,C   8,H  12)    -58.1994         0.013665   
     77. D(H  14,N  11,C   8,C   5)   -178.4540         0.013665   
     78. D(H  16,N  11,C   8,H  13)   -179.4005         0.013665   
     79. D(H  16,N  11,C   8,H  12)     62.3953         0.013665   
     80. D(H  16,N  11,C   8,C   5)    -57.8592         0.013665   
     81. D(H  15,N  11,C   8,H  13)    -60.2586         0.013665   
     82. D(H  15,N  11,C   8,H  12)   -178.4628         0.013665   
    -----------------------------------------------------------------

Number of atoms                         .... 17
Number of degrees of freedom            .... 82

         *************************************************************
         *                GEOMETRY OPTIMIZATION CYCLE   1            *
         *************************************************************
---------------------------------
CARTESIAN COORDINATES (ANGSTROEM)
---------------------------------
  C     -1.924997   -0.346151   -0.645490
  C     -1.150223   -0.172313    0.657867
  H     -2.792695   -0.981083   -0.480631
  H     -1.326441   -0.807341   -1.426333
  H     -2.281928    0.615262   -1.008124
  C     -0.024338    0.862231    0.560609
  H     -0.773888   -1.141016    0.991472
  H     -1.845024    0.169454    1.427054
  C      1.059997    0.526897   -0.457117
  H      0.422863    0.994583    1.547014
  H     -0.461028    1.819416    0.274895
  N      1.802866   -0.703649   -0.061760
  H      1.765733    1.355414   -0.518383
  H      0.617888    0.372436   -1.440651
  H      2.550909   -0.912640   -0.737502
  H      1.154771   -1.503734   -0.023916
  H      2.219727   -0.577779    0.872566

----------------------------
CARTESIAN COORDINATES (A.U.)
----------------------------
  NO LB      ZA    FRAG     MASS         X           Y           Z
   0 C     6.0000    0    12.011   -3.637717   -0.654131   -1.219799
   1 C     6.0000    0    12.011   -2.173606   -0.325624    1.243189
   2 H     1.0000    0     1.008   -5.277429   -1.853978   -0.908261
   3 H     1.0000    0     1.008   -2.506610   -1.525653   -2.695378
   4 H     1.0000    0     1.008   -4.312220    1.162676   -1.905078
   5 C     6.0000    0    12.011   -0.045992    1.629381    1.059398
   6 H     1.0000    0     1.008   -1.462436   -2.156208    1.873611
   7 H     1.0000    0     1.008   -3.486590    0.320222    2.696741
   8 C     6.0000    0    12.011    2.003103    0.995691   -0.863826
   9 H     1.0000    0     1.008    0.799095    1.879489    2.923433
  10 H     1.0000    0     1.008   -0.871216    3.438199    0.519477
  11 N     7.0000    0    14.007    3.406923   -1.329704   -0.116709
  12 H     1.0000    0     1.008    3.336751    2.561360   -0.979602
  13 H     1.0000    0     1.008    1.167639    0.703801   -2.722436
  14 H     1.0000    0     1.008    4.820519   -1.724640   -1.393678
  15 H     1.0000    0     1.008    2.182200   -2.841646   -0.045195
  16 H     1.0000    0     1.008    4.194677   -1.091844    1.648911

--------------------------------
INTERNAL COORDINATES (ANGSTROEM)
--------------------------------
 C      0   0   0     0.000000000000     0.00000000     0.00000000
 C      1   0   0     1.526182915252     0.00000000     0.00000000
 H      1   2   0     1.087757899033   109.99934172     0.00000000
 H      1   2   3     1.086591277193   112.48226680   240.21116495
 H      1   2   3     1.087758551684   110.52455702   118.84672143
 C      2   1   3     1.532108998476   113.31314856   187.98654678
 H      2   1   3     1.091470334952   109.57055878    62.85988972
 H      2   1   3     1.091421510501   108.32186625   307.20146363
 C      6   2   1     1.524466193424   114.61657661   298.54419319
 H      6   2   1     1.091100041744   109.00858970   175.04825068
 H      6   2   1     1.090199203626   108.36909991    58.77109548
 N      9   6   2     1.490773562753   111.03668290   294.92118956
 H      9   6   2     1.090071840892   109.31952622   175.06881652
 H      9   6   2     1.089337930524   110.19811809    55.72538678
 H     12   9   6     1.029501684564   110.82833963   181.54603196
 H     12   9   6     1.030337426653   109.71089477    61.28265607
 H     12   9   6     1.030816298978   109.94406795   302.14075994

---------------------------
INTERNAL COORDINATES (A.U.)
---------------------------
 C      0   0   0     0.000000000000     0.00000000     0.00000000
 C      1   0   0     2.884067740096     0.00000000     0.00000000
 H      1   2   0     2.055564529181   109.99934172     0.00000000
 H      1   2   3     2.053359933402   112.48226680   240.21116495
 H      1   2   3     2.055565762513   110.52455702   118.84672143
 C      2   1   3     2.895266414436   113.31314856   187.98654678
 H      2   1   3     2.062580016358   109.57055878    62.85988972
 H      2   1   3     2.062487751517   108.32186625   307.20146363
 C      6   2   1     2.880823605992   114.61657661   298.54419319
 H      6   2   1     2.061880263607   109.00858970   175.04825068
 H      6   2   1     2.060177926273   108.36909991    58.77109548
 N      9   6   2     2.817153761294   111.03668290   294.92118956
 H      9   6   2     2.059937245586   109.31952622   175.06881652
 H      9   6   2     2.058550355983   110.19811809    55.72538678
 H     12   9   6     1.945476238237   110.82833963   181.54603196
 H     12   9   6     1.947055561903   109.71089477    61.28265607
 H     12   9   6     1.947960499451   109.94406795   302.14075994

---------------------
BASIS SET INFORMATION
---------------------
There are 3 groups of distinct atoms

 Group   1 Type C   : 7s4p1d contracted to 3s2p1d pattern {511/31/1}
 Group   2 Type H   : 4s1p contracted to 2s1p pattern {31/1}
 Group   3 Type N   : 7s4p1d contracted to 3s2p1d pattern {511/31/1}

Atom   0C    basis set group =>   1
Atom   1C    basis set group =>   1
Atom   2H    basis set group =>   2
Atom   3H    basis set group =>   2
Atom   4H    basis set group =>   2
Atom   5C    basis set group =>   1
Atom   6H    basis set group =>   2
Atom   7H    basis set group =>   2
Atom   8C    basis set group =>   1
Atom   9H    basis set group =>   2
Atom  10H    basis set group =>   2
Atom  11N    basis set group =>   3
Atom  12H    basis set group =>   2
Atom  13H    basis set group =>   2
Atom  14H    basis set group =>   2
Atom  15H    basis set group =>   2
Atom  16H    basis set group =>   2
---------------------------------
AUXILIARY/J BASIS SET INFORMATION
---------------------------------
There are 3 groups of distinct atoms

 Group   1 Type C   : 12s5p4d2f1g contracted to 6s4p3d1f1g pattern {711111/2111/211/2/1}
 Group   2 Type H   : 5s2p1d contracted to 3s1p1d pattern {311/2/1}
 Group   3 Type N   : 12s5p4d2f1g contracted to 6s4p3d1f1g pattern {711111/2111/211/2/1}

Atom   0C    basis set group =>   1
Atom   1C    basis set group =>   1
Atom   2H    basis set group =>   2
Atom   3H    basis set group =>   2
Atom   4H    basis set group =>   2
Atom   5C    basis set group =>   1
Atom   6H    basis set group =>   2
Atom   7H    basis set group =>   2
Atom   8C    basis set group =>   1
Atom   9H    basis set group =>   2
Atom  10H    basis set group =>   2
Atom  11N    basis set group =>   3
Atom  12H    basis set group =>   2
Atom  13H    basis set group =>   2
Atom  14H    basis set group =>   2
Atom  15H    basis set group =>   2
Atom  16H    basis set group =>   2


           ************************************************************
           *        Program running with 4 parallel MPI-processes     *
           *              working on a common directory               *
           ************************************************************
------------------------------------------------------------------------------
                           ORCA GTO INTEGRAL CALCULATION
                           -- RI-GTO INTEGRALS CHOSEN --
------------------------------------------------------------------------------
------------------------------------------------------------------------------
                   ___                                                        
                  /   \      - P O W E R E D   B Y -                         
                 /     \                                                     
                 |  |  |   _    _      __       _____    __    __             
                 |  |  |  | |  | |    /  \     |  _  \  |  |  /  |          
                  \  \/   | |  | |   /    \    | | | |  |  | /  /          
                 / \  \   | |__| |  /  /\  \   | |_| |  |  |/  /          
                |  |  |   |  __  | /  /__\  \  |    /   |      \           
                |  |  |   | |  | | |   __   |  |    \   |  |\   \          
                \     /   | |  | | |  |  |  |  | |\  \  |  | \   \       
                 \___/    |_|  |_| |__|  |__|  |_| \__\ |__|  \__/        
                                                                              
                      - O R C A' S   B I G   F R I E N D -                    
                                      &                                       
                       - I N T E G R A L  F E E D E R -                       
                                                                              
 v1 FN, 2020, v2 2021                                                         
------------------------------------------------------------------------------


Reading SHARK input file butylamine_prot_aq_3.SHARKINP.tmp ... ok
----------------------
SHARK INTEGRAL PACKAGE
----------------------

Number of atoms                             ...     17
Number of basis functions                   ...    130
Number of shells                            ...     66
Maximum angular momentum                    ...      2
Integral batch strategy                     ... SHARK/LIBINT Hybrid
RI-J (if used) integral strategy            ... SPLIT-RIJ (Revised 2003 algorithm where possible)
Printlevel                                  ...      1
Contraction scheme used                     ... SEGMENTED contraction
Coulomb Range Separation                    ... NOT USED
Exchange Range Separation                   ... Long Range
   Mu parameter                             ...  0.300000
   Scaling (regular/separated)              ...  0.157706  0.842294
Finite Nucleus Model                        ... NOT USED
Auxiliary Coulomb fitting basis             ... AVAILABLE
   # of basis functions in Aux-J            ...    377
   # of shells in Aux-J                     ...    135
   Maximum angular momentum in Aux-J        ...      4
Auxiliary J/K fitting basis                 ... NOT available
Auxiliary Correlation fitting basis         ... NOT available
Auxiliary 'external' fitting basis          ... NOT available
Integral threshold                          ...     2.500000e-11
Primitive cut-off                           ...     2.500000e-12
Primitive pair pre-selection threshold      ...     2.500000e-12

Calculating pre-screening integrals         ... done (  0.0 sec) Dimension = 66
Organizing shell pair data                  ... done (  0.0 sec)
Shell pair information
Total number of shell pairs                 ...      2211
Shell pairs after pre-screening             ...      2174
Total number of primitive shell pairs       ...      7361
Primitive shell pairs kept                  ...      5746
          la=0 lb=0:    769 shell pairs
          la=1 lb=0:    841 shell pairs
          la=1 lb=1:    247 shell pairs
          la=2 lb=0:    193 shell pairs
          la=2 lb=1:    109 shell pairs
          la=2 lb=2:     15 shell pairs

Calculating one electron integrals          ... done (  0.0 sec)
Calculating RI/J V-Matrix + Cholesky decomp.... done (  0.0 sec)
Calculating Nuclear repulsion               ... done (  0.0 sec) ENN=    201.738583517725 Eh

SHARK setup successfully completed in   0.2 seconds

Maximum memory used throughout the entire GTOINT-calculation: 10.8 MB


           ************************************************************
           *        Program running with 4 parallel MPI-processes     *
           *              working on a common directory               *
           ************************************************************
-------------------------------------------------------------------------------
                                 ORCA SCF
-------------------------------------------------------------------------------

------------
SCF SETTINGS
------------
Hamiltonian:
 Density Functional     Method          .... DFT(GTOs)
 Exchange Functional    Exchange        .... WB97X
 Correlation Functional Correlation     .... WB97X
 Gradients option       PostSCFGGA      .... off
 Hybrid DFT is turned on
   Fraction HF Exchange ScalHFX         ....  0.157706
   Scaling of DF-GGA-X  ScalDFX         ....  0.000000
   Scaling of DF-GGA-C  ScalDFC         ....  1.000000
   Scaling of DF-LDA-C  ScalLDAC        ....  1.000000
   Perturbative correction              ....  0.000000
   Density functional embedding theory  .... OFF
 Long-range corrected/Screened/Range-Separated Hybrid DFT is turned on
   Amount of maximum screened exact exchange              ....  0.842294
   Range separation parameter mu (erf(mu*r12)/r12)        ....  0.300000
 RI-approximation to the Coulomb term is turned on
   Number of AuxJ basis functions       .... 377
   RIJ-COSX (HFX calculated with COS-X)).... on


General Settings:
 Integral files         IntName         .... butylamine_prot_aq_3
 Hartree-Fock type      HFTyp           .... RHF
 Total Charge           Charge          ....    1
 Multiplicity           Mult            ....    1
 Number of Electrons    NEL             ....   42
 Basis Dimension        Dim             ....  130
 Nuclear Repulsion      ENuc            ....    201.7385835177 Eh

Convergence Acceleration:
 DIIS                   CNVDIIS         .... on
   Start iteration      DIISMaxIt       ....     0
   Startup error        DIISStart       ....  0.200000
   # of expansion vecs  DIISMaxEq       ....     5
   Bias factor          DIISBfac        ....   1.050
   Max. coefficient     DIISMaxC        ....  10.000
 Trust-Rad. Augm. Hess. CNVTRAH         .... auto
   Auto Start mean grad. ratio tolernc. ....  1.125000
   Auto Start start iteration           ....    20
   Auto Start num. interpolation iter.  ....    10
   Max. Number of Micro iterations      ....    16
   Max. Number of Macro iterations      .... Maxiter - #DIIS iter
   Number of Davidson start vectors     ....     2
   Converg. threshold I  (grad. norm)   ....   1.000e-05
   Converg. threshold II (energy diff.) ....   1.000e-08
   Grad. Scal. Fac. for Micro threshold ....   0.100
   Minimum threshold for Micro iter.    ....   0.010
   NR start threshold (gradient norm)   ....   0.001
   Initial trust radius                 ....   0.400
   Minimum AH scaling param. (alpha)    ....   1.000
   Maximum AH scaling param. (alpha)    .... 1000.000
   Orbital update algorithm             .... Taylor
   White noise on init. David. guess    .... on
   Maximum white noise                  ....   0.010
   Quad. conv. algorithm                .... NR
 SOSCF                  CNVSOSCF        .... on
   Start iteration      SOSCFMaxIt      ....   150
   Startup grad/error   SOSCFStart      ....  0.001000
 Level Shifting         CNVShift        .... on
   Level shift para.    LevelShift      ....    0.2500
   Turn off err/grad.   ShiftErr        ....    0.0000
 Zerner damping         CNVZerner       .... off
 Static damping         CNVDamp         .... on
   Fraction old density DampFac         ....    0.8500
   Max. Damping (<1)    DampMax         ....    0.9800
   Min. Damping (>=0)   DampMin         ....    0.0000
   Turn off err/grad.   DampErr         ....    0.0300
 Fernandez-Rico         CNVRico         .... off

SCF Procedure:
 Maximum # iterations   MaxIter         ....   125
 SCF integral mode      SCFMode         .... Direct
   Integral package                     .... SHARK and LIBINT hybrid scheme
 Reset frequency        DirectResetFreq ....    20
 Integral Threshold     Thresh          ....  2.500e-11 Eh
 Primitive CutOff       TCut            ....  2.500e-12 Eh

Convergence Tolerance:
 Convergence Check Mode ConvCheckMode   .... Total+1el-Energy
 Convergence forced     ConvForced      .... 0
 Energy Change          TolE            ....  1.000e-08 Eh
 1-El. energy change                    ....  1.000e-05 Eh
 Orbital Gradient       TolG            ....  1.000e-05
 Orbital Rotation angle TolX            ....  1.000e-05
 DIIS Error             TolErr          ....  5.000e-07


Diagonalization of the overlap matrix:
Smallest eigenvalue                        ... 2.302e-03
Time for diagonalization                   ...    0.003 sec
Threshold for overlap eigenvalues          ... 1.000e-08
Number of eigenvalues below threshold      ... 0
Time for construction of square roots      ...    0.003 sec
Total time needed                          ...    0.006 sec

Time for model grid setup =    0.155 sec

------------------------------
INITIAL GUESS: MODEL POTENTIAL
------------------------------
Loading Hartree-Fock densities                     ... done
Calculating cut-offs                               ... done
Initializing the effective Hamiltonian             ... done
Setting up the integral package (SHARK)            ... done
Starting the Coulomb interaction                   ... done (   0.0 sec)
Reading the grid                                   ... done
Mapping shells                                     ... done
Starting the XC term evaluation                    ... done (   0.1 sec)
  promolecular density results
     # of electrons  =     42.992722015
     EX              =    -30.586011875
     EC              =     -1.394441915
     EX+EC           =    -31.980453790
Transforming the Hamiltonian                       ... done (   0.0 sec)
Diagonalizing the Hamiltonian                      ... done (   0.0 sec)
Back transforming the eigenvectors                 ... done (   0.0 sec)
Now organizing SCF variables                       ... done
                      ------------------
                      INITIAL GUESS DONE (   0.3 sec)
                      ------------------
-------------------
DFT GRID GENERATION
-------------------

General Integration Accuracy     IntAcc      ... 4.388
Radial Grid Type                 RadialGrid  ... OptM3 with GC (2021)
Angular Grid (max. ang.)         AngularGrid ... 4 (Lebedev-302)
Angular grid pruning method      GridPruning ... 4 (adaptive)
Weight generation scheme         WeightScheme... Becke
Basis function cutoff            BFCut       ... 1.0000e-11
Integration weight cutoff        WCut        ... 1.0000e-14
Angular grids for H and He will be reduced by one unit
Partially contracted basis set               ... off
Rotationally invariant grid construction     ... off

Total number of grid points                  ...    68570
Total number of batches                      ...     1079
Average number of points per batch           ...       63
Average number of grid points per atom       ...     4034
Time for grid setup =    0.358 sec

--------------------
COSX GRID GENERATION
--------------------

GRIDX 1
-------
General Integration Accuracy     IntAcc      ... 3.816
Radial Grid Type                 RadialGrid  ... OptM3 with GC (2021)
Angular Grid (max. ang.)         AngularGrid ... 1 (Lebedev-50)
Angular grid pruning method      GridPruning ... 4 (adaptive)
Weight generation scheme         WeightScheme... Becke
Basis function cutoff            BFCut       ... 1.0000e-11
Integration weight cutoff        WCut        ... 1.0000e-14
Angular grids for H and He will be reduced by one unit
Partially contracted basis set               ... on
Rotationally invariant grid construction     ... off

Total number of grid points                  ...     8818
Total number of batches                      ...      150
Average number of points per batch           ...       58
Average number of grid points per atom       ...      519
UseSFitting                                  ... on

GRIDX 2
-------
General Integration Accuracy     IntAcc      ... 4.020
Radial Grid Type                 RadialGrid  ... OptM3 with GC (2021)
Angular Grid (max. ang.)         AngularGrid ... 2 (Lebedev-110)
Angular grid pruning method      GridPruning ... 4 (adaptive)
Weight generation scheme         WeightScheme... Becke
Basis function cutoff            BFCut       ... 1.0000e-11
Integration weight cutoff        WCut        ... 1.0000e-14
Angular grids for H and He will be reduced by one unit
Partially contracted basis set               ... on
Rotationally invariant grid construction     ... off

Total number of grid points                  ...    18066
Total number of batches                      ...      294
Average number of points per batch           ...       61
Average number of grid points per atom       ...     1063
UseSFitting                                  ... on

GRIDX 3
-------
General Integration Accuracy     IntAcc      ... 4.338
Radial Grid Type                 RadialGrid  ... OptM3 with GC (2021)
Angular Grid (max. ang.)         AngularGrid ... 3 (Lebedev-194)
Angular grid pruning method      GridPruning ... 4 (adaptive)
Weight generation scheme         WeightScheme... Becke
Basis function cutoff            BFCut       ... 1.0000e-11
Integration weight cutoff        WCut        ... 1.0000e-14
Angular grids for H and He will be reduced by one unit
Partially contracted basis set               ... on
Rotationally invariant grid construction     ... off

Total number of grid points                  ...    39381
Total number of batches                      ...      624
Average number of points per batch           ...       63
Average number of grid points per atom       ...     2317
UseSFitting                                  ... on

Time for X-Grid setup             =    0.389 sec

--------------
SCF ITERATIONS
--------------
ITER       Energy         Delta-E        Max-DP      RMS-DP      [F,P]     Damp
               ***  Starting incremental Fock matrix formation  ***
  0   -213.8186638899   0.000000000000 0.03341377  0.00095599  0.1593231 0.8500
  1   -213.8471236305  -0.028459740575 0.03006206  0.00091435  0.1277326 0.8500
                               ***Turning on DIIS***
  2   -213.8686210399  -0.021497409401 0.02346170  0.00074932  0.0972997 0.8500
  3   -213.8844986928  -0.015877652890 0.01450702  0.00053009  0.0730716 0.8500
  4   -213.8967158225  -0.012217129744 0.00963786  0.00040263  0.0578950 0.8500
  5   -213.9063220798  -0.009606257298 0.00728930  0.00032819  0.0478228 0.8500
  6   -213.9141286177  -0.007806537926 0.00594309  0.00027582  0.0402585 0.8500
  7   -213.9205920819  -0.006463464125 0.00510513  0.00023711  0.0341426 0.8500
  8   -213.9260032863  -0.005411204459 0.02916817  0.00135832  0.0288881 0.0000
  9   -213.9551216673  -0.029118380979 0.00126978  0.00004186  0.0012987 0.0000
                      *** Initiating the SOSCF procedure ***
                           *** Shutting down DIIS ***
                      *** Re-Reading the Fockian *** 
                      *** Removing any level shift *** 
ITER      Energy       Delta-E        Grad      Rot      Max-DP    RMS-DP
 10   -213.95513213  -0.0000104580  0.000126  0.000126  0.000439  0.000017
               *** Restarting incremental Fock matrix formation ***
 11   -213.95509618   0.0000359477  0.000054  0.000068  0.000362  0.000014
 12   -213.95509638  -0.0000002053  0.000032  0.000046  0.000178  0.000007
 13   -213.95509641  -0.0000000221  0.000020  0.000015  0.000047  0.000002
                 **** Energy Check signals convergence ****
              ***Rediagonalizing the Fockian in SOSCF/NRSCF***

               *****************************************************
               *                     SUCCESS                       *
               *           SCF CONVERGED AFTER  14 CYCLES          *
               *****************************************************

Old exchange energy                            =    -10.467215176 Eh
New exchange energy                            =    -10.467241335 Eh
Exchange energy change after final integration =     -0.000026159 Eh
Total energy after final integration           =   -213.955122569 Eh
Final COS-X integration done in                =     3.493 sec

----------------
TOTAL SCF ENERGY
----------------

Total Energy       :         -213.95512257 Eh           -5822.01487 eV

Components:
Nuclear Repulsion  :          201.73858352 Eh            5489.58594 eV
Electronic Energy  :         -415.69370609 Eh          -11311.60081 eV
One Electron Energy:         -677.48941533 Eh          -18435.42423 eV
Two Electron Energy:          261.79570924 Eh            7123.82342 eV
Max COSX asymmetry :            0.00000170 Eh               0.00005 eV

Virial components:
Potential Energy   :         -425.27479292 Eh          -11572.31544 eV
Kinetic Energy     :          211.31967035 Eh            5750.30057 eV
Virial Ratio       :            2.01247140


DFT components:
N(Alpha)           :       21.000061255750 electrons
N(Beta)            :       21.000061255750 electrons
N(Total)           :       42.000122511500 electrons
E(XC)              :      -22.316425269088 Eh       
DFET-embed. en.    :        0.000000000000 Eh       

---------------
SCF CONVERGENCE
---------------

  Last Energy change         ...   -5.6819e-09  Tolerance :   1.0000e-08
  Last MAX-Density change    ...    3.5527e-15  Tolerance :   1.0000e-07
  Last RMS-Density change    ...    4.9693e-17  Tolerance :   5.0000e-09
  Last Orbital Gradient      ...    8.4262e-07  Tolerance :   1.0000e-05
  Last Orbital Rotation      ...    7.7920e-07  Tolerance :   1.0000e-05

             **** THE GBW FILE WAS UPDATED (butylamine_prot_aq_3.gbw) ****
             **** DENSITY butylamine_prot_aq_3.scfp WAS UPDATED ****
             **** ENERGY FILE WAS UPDATED (butylamine_prot_aq_3.en.tmp) ****
             **** THE GBW FILE WAS UPDATED (butylamine_prot_aq_3.gbw) ****
             **** DENSITY butylamine_prot_aq_3.scfp WAS UPDATED ****
----------------
ORBITAL ENERGIES
----------------

  NO   OCC          E(Eh)            E(eV) 
   0   2.0000     -14.743142      -401.1813 
   1   2.0000     -10.513791      -286.0948 
   2   2.0000     -10.442416      -284.1526 
   3   2.0000     -10.421235      -283.5762 
   4   2.0000     -10.396456      -282.9020 
   5   2.0000      -1.332224       -36.2517 
   6   2.0000      -1.100828       -29.9551 
   7   2.0000      -1.024104       -27.8673 
   8   2.0000      -0.948574       -25.8120 
   9   2.0000      -0.909569       -24.7506 
  10   2.0000      -0.900421       -24.5017 
  11   2.0000      -0.858320       -23.3561 
  12   2.0000      -0.793505       -21.5924 
  13   2.0000      -0.746687       -20.3184 
  14   2.0000      -0.727752       -19.8031 
  15   2.0000      -0.678422       -18.4608 
  16   2.0000      -0.660268       -17.9668 
  17   2.0000      -0.650507       -17.7012 
  18   2.0000      -0.595728       -16.2106 
  19   2.0000      -0.588725       -16.0200 
  20   2.0000      -0.586729       -15.9657 
  21   0.0000      -0.085338        -2.3222 
  22   0.0000      -0.025955        -0.7063 
  23   0.0000      -0.019901        -0.5415 
  24   0.0000       0.006807         0.1852 
  25   0.0000       0.031285         0.8513 
  26   0.0000       0.048066         1.3079 
  27   0.0000       0.054938         1.4949 
  28   0.0000       0.074257         2.0206 
  29   0.0000       0.089426         2.4334 
  30   0.0000       0.098296         2.6748 
  31   0.0000       0.103031         2.8036 
  32   0.0000       0.121649         3.3102 
  33   0.0000       0.130411         3.5487 
  34   0.0000       0.136442         3.7128 
  35   0.0000       0.165728         4.5097 
  36   0.0000       0.209115         5.6903 
  37   0.0000       0.312514         8.5039 
  38   0.0000       0.318042         8.6544 
  39   0.0000       0.326310         8.8793 
  40   0.0000       0.352796         9.6001 
  41   0.0000       0.378469        10.2987 
  42   0.0000       0.402605        10.9554 
  43   0.0000       0.437642        11.9088 
  44   0.0000       0.475513        12.9394 
  45   0.0000       0.488951        13.3050 
  46   0.0000       0.535249        14.5649 
  47   0.0000       0.543247        14.7825 
  48   0.0000       0.566598        15.4179 
  49   0.0000       0.573957        15.6182 
  50   0.0000       0.596569        16.2335 
  51   0.0000       0.608959        16.5706 
  52   0.0000       0.617077        16.7915 
  53   0.0000       0.633000        17.2248 
  54   0.0000       0.638034        17.3618 
  55   0.0000       0.642133        17.4733 
  56   0.0000       0.656023        17.8513 
  57   0.0000       0.661976        18.0133 
  58   0.0000       0.670097        18.2343 
  59   0.0000       0.680972        18.5302 
  60   0.0000       0.691840        18.8259 
  61   0.0000       0.696232        18.9454 
  62   0.0000       0.726596        19.7717 
  63   0.0000       0.777549        21.1582 
  64   0.0000       0.841766        22.9056 
  65   0.0000       0.903887        24.5960 
  66   0.0000       0.953198        25.9378 
  67   0.0000       1.010451        27.4958 
  68   0.0000       1.038060        28.2470 
  69   0.0000       1.105963        30.0948 
  70   0.0000       1.146490        31.1976 
  71   0.0000       1.170687        31.8560 
  72   0.0000       1.210277        32.9333 
  73   0.0000       1.227614        33.4051 
  74   0.0000       1.277657        34.7668 
  75   0.0000       1.358300        36.9612 
  76   0.0000       1.415223        38.5102 
  77   0.0000       1.456229        39.6260 
  78   0.0000       1.501657        40.8622 
  79   0.0000       1.530222        41.6395 
  80   0.0000       1.608361        43.7657 
  81   0.0000       1.649594        44.8877 
  82   0.0000       1.672799        45.5192 
  83   0.0000       1.696925        46.1757 
  84   0.0000       1.707923        46.4750 
  85   0.0000       1.727223        47.0001 
  86   0.0000       1.753751        47.7220 
  87   0.0000       1.763603        47.9901 
  88   0.0000       1.780324        48.4451 
  89   0.0000       1.785423        48.5838 
  90   0.0000       1.791891        48.7598 
  91   0.0000       1.798045        48.9273 
  92   0.0000       1.818339        49.4795 
  93   0.0000       1.839564        50.0571 
  94   0.0000       1.849114        50.3169 
  95   0.0000       1.858493        50.5722 
  96   0.0000       1.868564        50.8462 
  97   0.0000       1.878293        51.1110 
  98   0.0000       1.919114        52.2217 
  99   0.0000       1.945294        52.9341 
 100   0.0000       1.956790        53.2470 
 101   0.0000       2.039140        55.4878 
 102   0.0000       2.065328        56.2004 
 103   0.0000       2.141045        58.2608 
 104   0.0000       2.212560        60.2068 
 105   0.0000       2.222029        60.4645 
 106   0.0000       2.238185        60.9041 
 107   0.0000       2.291903        62.3658 
 108   0.0000       2.328747        63.3684 
 109   0.0000       2.373253        64.5795 
 110   0.0000       2.399656        65.2980 
 111   0.0000       2.470654        67.2299 
 112   0.0000       2.503782        68.1314 
 113   0.0000       2.541607        69.1606 
 114   0.0000       2.553631        69.4878 
 115   0.0000       2.577612        70.1404 
 116   0.0000       2.607427        70.9517 
 117   0.0000       2.644040        71.9480 
 118   0.0000       2.713924        73.8496 
 119   0.0000       2.823639        76.8351 
 120   0.0000       2.848438        77.5099 
 121   0.0000       2.860119        77.8278 
 122   0.0000       2.903597        79.0109 
 123   0.0000       2.963965        80.6536 
 124   0.0000       2.979217        81.0686 
 125   0.0000       2.999798        81.6287 
 126   0.0000       3.034238        82.5658 
 127   0.0000       3.066779        83.4513 
 128   0.0000       3.160373        85.9981 
 129   0.0000       3.172266        86.3217 

                    ********************************
                    * MULLIKEN POPULATION ANALYSIS *
                    ********************************

-----------------------
MULLIKEN ATOMIC CHARGES
-----------------------
   0 C :   -0.051462
   1 C :   -0.106475
   2 H :    0.076404
   3 H :    0.015690
   4 H :    0.057501
   5 C :   -0.085846
   6 H :    0.013342
   7 H :    0.080352
   8 C :   -0.011741
   9 H :    0.059290
  10 H :    0.088920
  11 N :   -0.008234
  12 H :    0.110175
  13 H :    0.103312
  14 H :    0.226046
  15 H :    0.213977
  16 H :    0.218750
Sum of atomic charges:    1.0000000

--------------------------------
MULLIKEN REDUCED ORBITAL CHARGES
--------------------------------
  0 C s       :     3.019730  s :     3.019730
      pz      :     0.944789  p :     3.003963
      px      :     1.014418
      py      :     1.044756
      dz2     :     0.005758  d :     0.027769
      dxz     :     0.007376
      dyz     :     0.005277
      dx2y2   :     0.002990
      dxy     :     0.006369
  1 C s       :     3.065266  s :     3.065266
      pz      :     1.049427  p :     3.004657
      px      :     0.989230
      py      :     0.965999
      dz2     :     0.007206  d :     0.036553
      dxz     :     0.009083
      dyz     :     0.005808
      dx2y2   :     0.005712
      dxy     :     0.008743
  2 H s       :     0.899314  s :     0.899314
      pz      :     0.004364  p :     0.024282
      px      :     0.011592
      py      :     0.008326
  3 H s       :     0.959857  s :     0.959857
      pz      :     0.010023  p :     0.024453
      px      :     0.007330
      py      :     0.007100
  4 H s       :     0.918234  s :     0.918234
      pz      :     0.005497  p :     0.024265
      px      :     0.005870
      py      :     0.012898
  5 C s       :     3.061741  s :     3.061741
      pz      :     0.972056  p :     2.989260
      px      :     0.955598
      py      :     1.061606
      dz2     :     0.006640  d :     0.034845
      dxz     :     0.010316
      dyz     :     0.003772
      dx2y2   :     0.007130
      dxy     :     0.006988
  6 H s       :     0.963604  s :     0.963604
      pz      :     0.005585  p :     0.023055
      px      :     0.004989
      py      :     0.012481
  7 H s       :     0.896545  s :     0.896545
      pz      :     0.009240  p :     0.023102
      px      :     0.008623
      py      :     0.005239
  8 C s       :     3.055390  s :     3.055390
      pz      :     1.079648  p :     2.910589
      px      :     1.008583
      py      :     0.822357
      dz2     :     0.011032  d :     0.045763
      dxz     :     0.007447
      dyz     :     0.005676
      dx2y2   :     0.006251
      dxy     :     0.015357
  9 H s       :     0.917590  s :     0.917590
      pz      :     0.013573  p :     0.023120
      px      :     0.005128
      py      :     0.004420
 10 H s       :     0.887571  s :     0.887571
      pz      :     0.004870  p :     0.023509
      px      :     0.005796
      py      :     0.012843
 11 N s       :     3.303262  s :     3.303262
      pz      :     1.207393  p :     3.686903
      px      :     1.223680
      py      :     1.255830
      dz2     :     0.003665  d :     0.018068
      dxz     :     0.004616
      dyz     :     0.001925
      dx2y2   :     0.003082
      dxy     :     0.004780
 12 H s       :     0.867129  s :     0.867129
      pz      :     0.004061  p :     0.022696
      px      :     0.007621
      py      :     0.011014
 13 H s       :     0.873553  s :     0.873553
      pz      :     0.013972  p :     0.023135
      px      :     0.006324
      py      :     0.002839
 14 H s       :     0.730385  s :     0.730385
      pz      :     0.017082  p :     0.043568
      px      :     0.018583
      py      :     0.007903
 15 H s       :     0.741573  s :     0.741573
      pz      :     0.008093  p :     0.044450
      px      :     0.017018
      py      :     0.019339
 16 H s       :     0.737611  s :     0.737611
      pz      :     0.025183  p :     0.043639
      px      :     0.010926
      py      :     0.007529


                     *******************************
                     * LOEWDIN POPULATION ANALYSIS *
                     *******************************

----------------------
LOEWDIN ATOMIC CHARGES
----------------------
   0 C :   -0.057312
   1 C :   -0.047563
   2 H :    0.047989
   3 H :    0.014427
   4 H :    0.037853
   5 C :   -0.042988
   6 H :    0.012017
   7 H :    0.051069
   8 C :    0.052057
   9 H :    0.035854
  10 H :    0.057692
  11 N :    0.296908
  12 H :    0.055285
  13 H :    0.050281
  14 H :    0.148778
  15 H :    0.141122
  16 H :    0.146531

-------------------------------
LOEWDIN REDUCED ORBITAL CHARGES
-------------------------------
  0 C s       :     2.825338  s :     2.825338
      pz      :     1.021495  p :     3.160079
      px      :     1.058339
      py      :     1.080245
      dz2     :     0.014753  d :     0.071895
      dxz     :     0.020251
      dyz     :     0.012714
      dx2y2   :     0.007625
      dxy     :     0.016553
  1 C s       :     2.829235  s :     2.829235
      pz      :     1.063707  p :     3.129019
      px      :     1.033578
      py      :     1.031735
      dz2     :     0.017518  d :     0.089309
      dxz     :     0.022751
      dyz     :     0.012673
      dx2y2   :     0.013147
      dxy     :     0.023219
  2 H s       :     0.884270  s :     0.884270
      pz      :     0.013135  p :     0.067741
      px      :     0.031966
      py      :     0.022639
  3 H s       :     0.918220  s :     0.918220
      pz      :     0.027692  p :     0.067353
      px      :     0.020833
      py      :     0.018828
  4 H s       :     0.894681  s :     0.894681
      pz      :     0.015835  p :     0.067466
      px      :     0.016731
      py      :     0.034900
  5 C s       :     2.832318  s :     2.832318
      pz      :     1.031125  p :     3.122738
      px      :     1.019351
      py      :     1.072262
      dz2     :     0.017367  d :     0.087932
      dxz     :     0.026792
      dyz     :     0.008504
      dx2y2   :     0.015797
      dxy     :     0.019472
  6 H s       :     0.920833  s :     0.920833
      pz      :     0.017381  p :     0.067150
      px      :     0.015921
      py      :     0.033847
  7 H s       :     0.880987  s :     0.880987
      pz      :     0.027661  p :     0.067943
      px      :     0.025329
      py      :     0.014953
  8 C s       :     2.838256  s :     2.838256
      pz      :     1.084303  p :     3.004734
      px      :     1.027064
      py      :     0.893366
      dz2     :     0.024831  d :     0.104953
      dxz     :     0.019265
      dyz     :     0.011535
      dx2y2   :     0.013178
      dxy     :     0.036143
  9 H s       :     0.895658  s :     0.895658
      pz      :     0.036981  p :     0.068487
      px      :     0.016695
      py      :     0.014812
 10 H s       :     0.873626  s :     0.873626
      pz      :     0.013957  p :     0.068682
      px      :     0.017810
      py      :     0.036915
 11 N s       :     2.994358  s :     2.994358
      pz      :     1.212201  p :     3.662924
      px      :     1.214587
      py      :     1.236135
      dz2     :     0.009919  d :     0.045811
      dxz     :     0.012337
      dyz     :     0.004060
      dx2y2   :     0.006502
      dxy     :     0.012993
 12 H s       :     0.875330  s :     0.875330
      pz      :     0.014095  p :     0.069385
      px      :     0.023863
      py      :     0.031428
 13 H s       :     0.879368  s :     0.879368
      pz      :     0.040848  p :     0.070351
      px      :     0.020046
      py      :     0.009457
 14 H s       :     0.740853  s :     0.740853
      pz      :     0.041530  p :     0.110369
      px      :     0.046936
      py      :     0.021903
 15 H s       :     0.747539  s :     0.747539
      pz      :     0.017817  p :     0.111339
      px      :     0.041337
      py      :     0.052185
 16 H s       :     0.743781  s :     0.743781
      pz      :     0.063180  p :     0.109688
      px      :     0.026498
      py      :     0.020009


                      *****************************
                      * MAYER POPULATION ANALYSIS *
                      *****************************

  NA   - Mulliken gross atomic population
  ZA   - Total nuclear charge
  QA   - Mulliken gross atomic charge
  VA   - Mayer's total valence
  BVA  - Mayer's bonded valence
  FA   - Mayer's free valence

  ATOM       NA         ZA         QA         VA         BVA        FA
  0 C      6.0515     6.0000    -0.0515     3.9842     3.9842    -0.0000
  1 C      6.1065     6.0000    -0.1065     4.0491     4.0491    -0.0000
  2 H      0.9236     1.0000     0.0764     0.9903     0.9903    -0.0000
  3 H      0.9843     1.0000     0.0157     0.9931     0.9931    -0.0000
  4 H      0.9425     1.0000     0.0575     0.9928     0.9928    -0.0000
  5 C      6.0858     6.0000    -0.0858     4.0237     4.0237    -0.0000
  6 H      0.9867     1.0000     0.0133     0.9825     0.9825     0.0000
  7 H      0.9196     1.0000     0.0804     0.9804     0.9804     0.0000
  8 C      6.0117     6.0000    -0.0117     3.9075     3.9075    -0.0000
  9 H      0.9407     1.0000     0.0593     0.9830     0.9830    -0.0000
 10 H      0.9111     1.0000     0.0889     0.9870     0.9870    -0.0000
 11 N      7.0082     7.0000    -0.0082     3.7113     3.7113    -0.0000
 12 H      0.8898     1.0000     0.1102     0.9779     0.9779    -0.0000
 13 H      0.8967     1.0000     0.1033     0.9917     0.9917    -0.0000
 14 H      0.7740     1.0000     0.2260     0.9538     0.9538    -0.0000
 15 H      0.7860     1.0000     0.2140     0.9760     0.9760     0.0000
 16 H      0.7812     1.0000     0.2188     0.9632     0.9632     0.0000

  Mayer bond orders larger than 0.100000
B(  0-C ,  1-C ) :   1.0667 B(  0-C ,  2-H ) :   0.9686 B(  0-C ,  3-H ) :   0.9733 
B(  0-C ,  4-H ) :   0.9755 B(  1-C ,  5-C ) :   1.0572 B(  1-C ,  6-H ) :   0.9562 
B(  1-C ,  7-H ) :   0.9475 B(  5-C ,  8-C ) :   1.0573 B(  5-C ,  9-H ) :   0.9533 
B(  5-C , 10-H ) :   0.9415 B(  8-C , 11-N ) :   0.9143 B(  8-C , 12-H ) :   0.9551 
B(  8-C , 13-H ) :   0.9521 B( 11-N , 14-H ) :   0.9298 B( 11-N , 15-H ) :   0.9309 
B( 11-N , 16-H ) :   0.9316 

-------
TIMINGS
-------

Total SCF time: 0 days 0 hours 0 min 25 sec 

Total time                  ....      25.845 sec
Sum of individual times     ....      25.542 sec  ( 98.8%)

Fock matrix formation       ....      24.418 sec  ( 94.5%)
  Split-RI-J                ....       1.369 sec  (  5.6% of F)
  Chain of spheres X        ....      18.711 sec  ( 76.6% of F)
  XC integration            ....       3.944 sec  ( 16.2% of F)
    Basis function eval.    ....       1.308 sec  ( 33.2% of XC)
    Density eval.           ....       0.670 sec  ( 17.0% of XC)
    XC-Functional eval.     ....       0.559 sec  ( 14.2% of XC)
    XC-Potential eval.      ....       0.759 sec  ( 19.3% of XC)
Diagonalization             ....       0.050 sec  (  0.2%)
Density matrix formation    ....       0.003 sec  (  0.0%)
Population analysis         ....       0.015 sec  (  0.1%)
Initial guess               ....       0.097 sec  (  0.4%)
Orbital Transformation      ....       0.000 sec  (  0.0%)
Orbital Orthonormalization  ....       0.000 sec  (  0.0%)
DIIS solution               ....       0.041 sec  (  0.2%)
SOSCF solution              ....       0.015 sec  (  0.1%)
Grid generation             ....       0.902 sec  (  3.5%)

Maximum memory used throughout the entire SCF-calculation: 50.4 MB


-------------------------------------------------------------------------------
                          DFT DISPERSION CORRECTION                            
                                                                               
                                 DFTD4 V2.5                                    
-------------------------------------------------------------------------------
The WB97X functional is recognized
Active option DFTDOPT                   ...         5   

Starting D4
-------------------------   ----------------
Dispersion correction           -0.001352853
-------------------------   ----------------


-------------------------   --------------------
FINAL SINGLE POINT ENERGY      -213.956475422673
-------------------------   --------------------



           ************************************************************
           *        Program running with 4 parallel MPI-processes     *
           *              working on a common directory               *
           ************************************************************
------------------------------------------------------------------------------
                         ORCA SCF GRADIENT CALCULATION
------------------------------------------------------------------------------

 ... reading COSX grid (gridx3)
Gradient of the Kohn-Sham DFT energy:
Kohn-Sham wavefunction type      ... RKS
Hartree-Fock exchange scaling    ...    0.158
Number of operators              ...    1
Number of atoms                  ...   17
Basis set dimensions             ...  130
Integral neglect threshold       ... 2.5e-11
Integral primitive cutoff        ... 2.5e-12
SHARK Integral package           ... ON

Nuc. rep. gradient       (SHARK) ... done (  0.0 sec)
HCore & Overlap gradient (SHARK) ... done (  0.0 sec)
RI-J gradient            (SHARK) ... done (  0.2 sec)
COSX-gradient                    ... done (  3.9 sec)
Exchange-correlation gradient    ... done
Dispersion correction            ... Starting D4
Starting D4
Starting D4
Starting D4


------------------- 
Dispersion Gradient 
------------------- 
   1  :   -0.000020313   -0.000002630   -0.000008192
   2  :   -0.000010049   -0.000002161    0.000006836
   3  :   -0.000007260   -0.000001380   -0.000000846
   4  :   -0.000006826   -0.000001193   -0.000000512
   5  :   -0.000006845   -0.000001029   -0.000000370
   6  :    0.000000066    0.000008556    0.000005095
   7  :   -0.000003303    0.000001240   -0.000000014
   8  :   -0.000005144    0.000000529    0.000000700
   9  :    0.000006773    0.000008314   -0.000005049
  10  :    0.000001317    0.000000807    0.000000742
  11  :   -0.000000724    0.000001330    0.000000930
  12  :    0.000019124   -0.000002157   -0.000002472
  13  :    0.000005134    0.000000127    0.000000381
  14  :    0.000004497   -0.000000029    0.000001908
  15  :    0.000014731   -0.000004288   -0.000007968
  16  :   -0.000000006   -0.000006231    0.000000262
  17  :    0.000008828    0.000000194    0.000008569

  |G| =    0.000040881

done

------------------
CARTESIAN GRADIENT
------------------

   1   C   :   -0.003209357   -0.000299056   -0.011618842
   2   C   :    0.001582988   -0.008732929    0.012416970
   3   H   :    0.006134594    0.004829457    0.000559176
   4   H   :   -0.004755637    0.004588990    0.009016943
   5   H   :    0.003350250   -0.007488846    0.004171189
   6   C   :    0.002479514    0.014934227    0.002429617
   7   H   :   -0.003081021    0.008599893   -0.006067446
   8   H   :    0.002100280    0.000071450   -0.006562612
   9   C   :    0.012855186   -0.013378958   -0.009173403
  10   H   :   -0.005016091   -0.004325079   -0.007226932
  11   H   :    0.000140144   -0.007561244    0.002077045
  12   N   :   -0.000363007   -0.001221077    0.003394751
  13   H   :   -0.007776700   -0.001138604    0.002017048
  14   H   :   -0.001064028    0.004023939    0.007226303
  15   H   :    0.000347458    0.002807669   -0.003300231
  16   H   :   -0.003338772    0.000903813   -0.001508960
  17   H   :   -0.000402914    0.003480997    0.002108662

Difference to translation invariance:
           :   -0.0000171129    0.0000946411   -0.0000407234

Difference to rotation invariance:
           :    0.0001728835   -0.0006682888   -0.0006741235

Norm of the cartesian gradient     ...    0.0428547057
RMS gradient                       ...    0.0060008591
MAX gradient                       ...    0.0149342266

-------
TIMINGS
-------

Total SCF gradient time            ...        5.619 sec

One electron gradient       ....       0.044 sec  (  0.8%)
RI-J Coulomb gradient       ....       0.245 sec  (  4.4%)
COSX gradient               ....       3.891 sec  ( 69.2%)
XC gradient                 ....       1.150 sec  ( 20.5%)

Maximum memory used throughout the entire SCFGRAD-calculation: 38.8 MB
------------------------------------------------------------------------------
                         ORCA GEOMETRY RELAXATION STEP
------------------------------------------------------------------------------

Reading the OPT-File                    .... done
Getting information on internals        .... done
Copying old internal coords+grads       .... done
Making the new internal coordinates     .... (new redundants).... done
Validating the new internal coordinates .... (new redundants).... done
Calculating the B-matrix                .... done
Calculating the G,G- and P matrices     .... done
Transforming gradient to internals      .... done
Projecting the internal gradient        .... done
Number of atoms                         ....  17
Number of internal coordinates          ....  82
Current Energy                          ....  -213.956475423 Eh
Current gradient norm                   ....     0.042854706 Eh/bohr
Maximum allowed component of the step   ....  0.300
Current trust radius                    ....  0.300
Evaluating the initial hessian          ....  (Almloef) done
Projecting the Hessian                  .... done
Forming the augmented Hessian           .... done
Diagonalizing the augmented Hessian     .... done
Last element of RFO vector              ....  0.991471171
Lowest eigenvalues of augmented Hessian:
 -0.003075211  0.010984061  0.011446390  0.011643721  0.013673364
Length of the computed step             ....  0.131447286
The final length of the internal step   ....  0.131447286
Converting the step to cartesian space:
 Initial RMS(Int)=    0.0145159243
Transforming coordinates:
 Iter   0:  RMS(Cart)=    0.0269577167 RMS(Int)=    0.6925405435
 Iter   1:  RMS(Cart)=    0.0004135945 RMS(Int)=    0.0002292317
 Iter   2:  RMS(Cart)=    0.0000095954 RMS(Int)=    0.0000052424
 Iter   3:  RMS(Cart)=    0.0000002836 RMS(Int)=    0.0000001648
 Iter   4:  RMS(Cart)=    0.0000000062 RMS(Int)=    0.0000000044
done
Storing new coordinates                 .... done

                                .--------------------.
          ----------------------|Geometry convergence|-------------------------
          Item                value                   Tolerance       Converged
          ---------------------------------------------------------------------
          RMS gradient        0.0033279245            0.0001000000      NO
          MAX gradient        0.0110503834            0.0003000000      NO
          RMS step            0.0145159243            0.0020000000      NO
          MAX step            0.0420966759            0.0040000000      NO
          ........................................................
          Max(Bonds)      0.0159      Max(Angles)    1.31
          Max(Dihed)        2.41      Max(Improp)    0.00
          ---------------------------------------------------------------------

The optimization has not yet converged - more geometry cycles are needed


    ---------------------------------------------------------------------------
                         Redundant Internal Coordinates
                            (Angstroem and degrees)

        Definition                    Value    dE/dq     Step     New-Value
    ----------------------------------------------------------------------------
     1. B(C   1,C   0)                1.5262 -0.002816  0.0039    1.5301   
     2. B(H   2,C   0)                1.0878 -0.007614  0.0110    1.0988   
     3. B(H   3,C   0)                1.0866 -0.011050  0.0159    1.1025   
     4. B(H   4,C   0)                1.0878 -0.009130  0.0132    1.1010   
     5. B(C   5,C   1)                1.5321 -0.002432  0.0034    1.5356   
     6. B(H   6,C   1)                1.0915 -0.010535  0.0154    1.1069   
     7. B(H   7,C   1)                1.0914 -0.005940  0.0087    1.1001   
     8. B(C   8,C   5)                1.5245  0.000697 -0.0010    1.5235   
     9. B(H   9,C   5)                1.0911 -0.009115  0.0133    1.1044   
    10. B(H  10,C   5)                1.0902 -0.007242  0.0106    1.1008   
    11. B(N  11,C   8)                1.4908 -0.006633  0.0090    1.4998   
    12. B(H  12,C   8)                1.0901 -0.006017  0.0088    1.0988   
    13. B(H  13,C   8)                1.0893 -0.006656  0.0097    1.0990   
    14. B(H  14,N  11)                1.0295  0.001856 -0.0024    1.0271   
    15. B(H  15,N  11)                1.0303  0.001335 -0.0017    1.0286   
    16. B(H  16,N  11)                1.0308  0.002170 -0.0028    1.0280   
    17. A(H   3,C   0,H   4)          108.44  0.001642   -0.33    108.11   
    18. A(C   1,C   0,H   4)          110.52 -0.001137    0.23    110.75   
    19. A(C   1,C   0,H   2)          110.00 -0.001745    0.33    110.33   
    20. A(H   2,C   0,H   4)          107.74  0.001225   -0.16    107.58   
    21. A(H   2,C   0,H   3)          107.49  0.001914   -0.38    107.11   
    22. A(C   1,C   0,H   3)          112.48 -0.001659    0.28    112.76   
    23. A(C   0,C   1,C   5)          113.31 -0.002100    0.63    113.95   
    24. A(H   6,C   1,H   7)          106.38  0.001245   -0.96    105.42   
    25. A(C   5,C   1,H   7)          107.52  0.000884   -0.09    107.44   
    26. A(C   0,C   1,H   7)          108.32 -0.000881    0.50    108.82   
    27. A(C   5,C   1,H   6)          111.43  0.001269   -0.34    111.09   
    28. A(C   0,C   1,H   6)          109.57 -0.000243    0.17    109.74   
    29. A(C   1,C   5,H   9)          109.01 -0.001548    0.63    109.64   
    30. A(C   1,C   5,C   8)          114.62 -0.000115    0.18    114.80   
    31. A(C   8,C   5,H   9)          109.80  0.000833   -0.19    109.60   
    32. A(H   9,C   5,H  10)          107.13  0.001010   -0.60    106.53   
    33. A(C   8,C   5,H  10)          107.64  0.001943   -0.64    107.00   
    34. A(C   1,C   5,H  10)          108.37 -0.002029    0.56    108.93   
    35. A(H  12,C   8,H  13)          108.65  0.000366   -0.03    108.62   
    36. A(N  11,C   8,H  13)          108.94  0.002964   -1.19    107.76   
    37. A(C   5,C   8,H  13)          110.20 -0.002942    0.84    111.03   
    38. A(N  11,C   8,H  12)          108.64  0.002426   -0.77    107.87   
    39. A(C   5,C   8,H  12)          109.32 -0.003682    1.31    110.63   
    40. A(C   5,C   8,N  11)          111.04  0.000954   -0.18    110.85   
    41. A(H  15,N  11,H  16)          108.42  0.003499   -0.73    107.69   
    42. A(H  14,N  11,H  16)          109.02  0.003626   -0.64    108.38   
    43. A(C   8,N  11,H  16)          109.94 -0.003109    0.54    110.48   
    44. A(H  14,N  11,H  15)          108.88  0.003461   -0.57    108.31   
    45. A(C   8,N  11,H  15)          109.71 -0.003177    0.57    110.28   
    46. A(C   8,N  11,H  14)          110.83 -0.004032    0.77    111.60   
    47. D(H   6,C   1,C   0,H   4)   -178.29  0.000256   -0.60   -178.90   
    48. D(H   7,C   1,C   0,H   4)     66.05 -0.000606    0.18     66.22   
    49. D(H   7,C   1,C   0,H   3)   -172.59 -0.000454    0.10   -172.49   
    50. D(H   6,C   1,C   0,H   2)     62.86  0.000546   -0.75     62.11   
    51. D(C   5,C   1,C   0,H   4)    -53.17  0.000187   -0.45    -53.61   
    52. D(H   6,C   1,C   0,H   3)    -56.93  0.000408   -0.68    -57.61   
    53. D(C   5,C   1,C   0,H   3)     68.20  0.000339   -0.52     67.67   
    54. D(C   5,C   1,C   0,H   2)   -172.01  0.000477   -0.60   -172.61   
    55. D(H   7,C   1,C   0,H   2)    -52.80 -0.000316    0.02    -52.77   
    56. D(H   9,C   5,C   1,H   6)    -60.83 -0.001458    0.70    -60.13   
    57. D(C   8,C   5,C   1,H   7)    178.87  0.001065   -0.33    178.54   
    58. D(C   8,C   5,C   1,H   6)     62.67 -0.001650    1.06     63.73   
    59. D(C   8,C   5,C   1,C   0)    -61.46 -0.000716    0.62    -60.84   
    60. D(H   9,C   5,C   1,H   7)     55.38  0.001257   -0.70     54.68   
    61. D(H  10,C   5,C   1,H   7)    -60.90  0.002006   -0.63    -61.53   
    62. D(H  10,C   5,C   1,H   6)   -177.11 -0.000709    0.76   -176.34   
    63. D(H  10,C   5,C   1,C   0)     58.77  0.000225    0.32     59.09   
    64. D(H   9,C   5,C   1,C   0)    175.05 -0.000524    0.25    175.30   
    65. D(H  13,C   8,C   5,H   9)    178.80  0.000283    1.13    179.93   
    66. D(H  13,C   8,C   5,C   1)     55.73  0.001758    0.32     56.05   
    67. D(H  12,C   8,C   5,H  10)     54.44 -0.000608    1.23     55.67   
    68. D(H  12,C   8,C   5,H   9)    -61.86 -0.003339    2.41    -59.45   
    69. D(H  12,C   8,C   5,C   1)    175.07 -0.001864    1.60    176.67   
    70. D(N  11,C   8,C   5,H  10)    174.29  0.000623    1.01    175.30   
    71. D(N  11,C   8,C   5,H   9)     57.99 -0.002107    2.19     60.18   
    72. D(H  13,C   8,C   5,H  10)    -64.90  0.003014   -0.05    -64.95   
    73. D(N  11,C   8,C   5,C   1)    -65.08 -0.000632    1.38    -63.70   
    74. D(H  15,N  11,C   8,C   5)     61.28  0.000811   -0.83     60.45   
    75. D(H  14,N  11,C   8,H  13)     60.00  0.001588   -0.82     59.19   
    76. D(H  14,N  11,C   8,H  12)    -58.20 -0.001915    0.34    -57.86   
    77. D(H  14,N  11,C   8,C   5)   -178.45  0.000489   -0.68   -179.13   
    78. D(H  16,N  11,C   8,H  13)   -179.40  0.001473   -0.76   -180.16   
    79. D(H  16,N  11,C   8,H  12)     62.40 -0.002030    0.39     62.78   
    80. D(H  16,N  11,C   8,C   5)    -57.86  0.000375   -0.62    -58.48   
    81. D(H  15,N  11,C   8,H  13)    -60.26  0.001910   -0.98    -61.23   
    82. D(H  15,N  11,C   8,H  12)   -178.46 -0.001593    0.18   -178.28   
    ----------------------------------------------------------------------------

         *************************************************************
         *                GEOMETRY OPTIMIZATION CYCLE   2            *
         *************************************************************
---------------------------------
CARTESIAN COORDINATES (ANGSTROEM)
---------------------------------
  C     -1.926297   -0.360299   -0.646009
  C     -1.151061   -0.165961    0.658751
  H     -2.794469   -1.013150   -0.480656
  H     -1.317261   -0.825138   -1.438784
  H     -2.301967    0.603187   -1.023719
  C     -0.025046    0.873914    0.565628
  H     -0.764553   -1.140907    1.012766
  H     -1.848775    0.172760    1.438962
  C      1.062667    0.548745   -0.450353
  H      0.429699    1.018823    1.561612
  H     -0.457537    1.843486    0.274850
  N      1.790170   -0.706568   -0.070508
  H      1.799127    1.362579   -0.502803
  H      0.634919    0.398348   -1.451473
  H      2.536098   -0.928672   -0.740701
  H      1.137587   -1.500991   -0.038452
  H      2.210890   -0.610170    0.862462

----------------------------
CARTESIAN COORDINATES (A.U.)
----------------------------
  NO LB      ZA    FRAG     MASS         X           Y           Z
   0 C     6.0000    0    12.011   -3.640174   -0.680866   -1.220781
   1 C     6.0000    0    12.011   -2.175189   -0.313621    1.244858
   2 H     1.0000    0     1.008   -5.280781   -1.914575   -0.908308
   3 H     1.0000    0     1.008   -2.489263   -1.559285   -2.718908
   4 H     1.0000    0     1.008   -4.350088    1.139859   -1.934549
   5 C     6.0000    0    12.011   -0.047331    1.651458    1.068881
   6 H     1.0000    0     1.008   -1.444795   -2.156002    1.913851
   7 H     1.0000    0     1.008   -3.493679    0.326470    2.719244
   8 C     6.0000    0    12.011    2.008149    1.036977   -0.851044
   9 H     1.0000    0     1.008    0.812014    1.925296    2.951018
  10 H     1.0000    0     1.008   -0.864620    3.483684    0.519392
  11 N     7.0000    0    14.007    3.382932   -1.335221   -0.133241
  12 H     1.0000    0     1.008    3.399858    2.574900   -0.950159
  13 H     1.0000    0     1.008    1.199823    0.752768   -2.742886
  14 H     1.0000    0     1.008    4.792531   -1.754936   -1.399722
  15 H     1.0000    0     1.008    2.149727   -2.836461   -0.072663
  16 H     1.0000    0     1.008    4.177977   -1.153054    1.629817

--------------------------------
INTERNAL COORDINATES (ANGSTROEM)
--------------------------------
 C      0   0   0     0.000000000000     0.00000000     0.00000000
 C      1   0   0     1.530084191012     0.00000000     0.00000000
 H      1   2   0     1.098761839605   110.33264097     0.00000000
 H      1   2   3     1.102493932449   112.75823772   240.28616043
 H      1   2   3     1.100953621892   110.74965158   118.99896066
 C      2   1   3     1.535551684541   113.94327052   187.38742796
 H      2   1   3     1.106903743417   109.74125869    62.10381103
 H      2   1   3     1.100121584290   108.81644966   307.22818915
 C      6   2   1     1.523506401099   114.79947684   299.16072024
 H      6   2   1     1.104434894888   109.63909330   175.29800542
 H      6   2   1     1.100759039772   108.92913117    59.08936332
 N      9   6   2     1.499784722902   110.85885770   296.29772978
 H      9   6   2     1.098840717037   110.62549436   176.67262587
 H      9   6   2     1.099012364406   111.02643848    56.04009548
 H     12   9   6     1.027082098221   111.59381695   180.87072854
 H     12   9   6     1.028591199093   110.27871763    60.44877630
 H     12   9   6     1.027973908431   110.48095987   301.51908246

---------------------------
INTERNAL COORDINATES (A.U.)
---------------------------
 C      0   0   0     0.000000000000     0.00000000     0.00000000
 C      1   0   0     2.891440082854     0.00000000     0.00000000
 H      1   2   0     2.076358963256   110.33264097     0.00000000
[...]
     29       0.013444   0.000178   0.005368   0.055166  -0.025663   0.755126
     30       0.006791   0.020262   0.009747   0.012255   0.003671  -0.215716
     31      -0.023374   0.010826  -0.003598  -0.025909  -0.004937   0.462168
     32      -0.102349   0.017757  -0.025174   0.006757   0.002137  -0.154430
     33       0.042432  -0.025617   0.034599  -0.000241   0.000289  -0.000481
     34      -0.083970  -0.014977   0.009082  -0.000444   0.000212   0.000251
     35       0.013299  -0.034023  -0.029891  -0.000376   0.000016  -0.000293
     36       0.092741   0.016258  -0.021473  -0.000669  -0.007082  -0.018660
     37      -0.078167  -0.036787   0.045790   0.001363  -0.007083  -0.023983
     38       0.186734   0.001410  -0.014018   0.000566  -0.001630  -0.002907
     39      -0.073863  -0.028429  -0.010815  -0.000817   0.010187  -0.011171
     40      -0.220546   0.056541   0.026398   0.000574   0.001596  -0.000418
     41       0.029073  -0.013833  -0.005917  -0.002466   0.022810  -0.025559
     42      -0.047984   0.467186  -0.159352   0.002580   0.000299   0.000740
     43       0.403292   0.379104   0.219019   0.002440  -0.000044  -0.000317
     44      -0.239489   0.352167  -0.295735  -0.001236  -0.000074   0.000605
     45      -0.365385  -0.275603   0.131001   0.001333  -0.001885   0.000201
     46       0.308676   0.219677  -0.094103   0.009663  -0.004209   0.000911
     47      -0.085320   0.420700   0.562558   0.006903   0.002097  -0.000117
     48      -0.133809   0.266945  -0.561420  -0.001258  -0.001088   0.005424
     49       0.449425  -0.318824  -0.325350  -0.001756  -0.000010  -0.002711
     50       0.081044  -0.158561   0.256533   0.000949  -0.000836   0.004380
                 42         43         44         45         46         47    
      0      -0.007547  -0.041999  -0.017775  -0.058010   0.042579   0.002410
      1       0.004860   0.027122   0.012392   0.040171   0.077080  -0.001306
      2       0.000057   0.008788   0.003370   0.012802  -0.031430  -0.001098
      3       0.002342   0.047928   0.004853  -0.036685   0.000075   0.000804
      4      -0.002417  -0.030112  -0.005243   0.027081   0.001723  -0.000189
      5      -0.001367  -0.040882  -0.000861   0.027835  -0.002486  -0.000673
      6       0.032867   0.163130   0.061775   0.201966  -0.648503  -0.008886
      7       0.029539   0.146988   0.056689   0.180138  -0.528766  -0.007538
      8      -0.005799  -0.032053  -0.011852  -0.036363   0.122185   0.002019
      9       0.023060   0.196294   0.086326   0.292474  -0.051277  -0.016254
     10      -0.017160  -0.133264  -0.058862  -0.202180   0.047709   0.010631
     11      -0.027796  -0.223140  -0.099116  -0.340511   0.059756   0.018865
     12       0.029958   0.140071   0.058941   0.193792   0.198042  -0.005018
     13      -0.071285  -0.335083  -0.144403  -0.456922  -0.433954   0.012023
     14       0.032635   0.156051   0.065697   0.215138   0.196986  -0.005634
     15       0.006382  -0.010037   0.044028  -0.006926  -0.000424  -0.002733
     16      -0.009347   0.008468  -0.053225   0.010381  -0.000288   0.000801
     17       0.010394  -0.014386   0.054919  -0.008258  -0.000394  -0.005524
     18      -0.005266  -0.041335  -0.016331   0.057383   0.011763  -0.000372
     19       0.015021   0.108906   0.049805  -0.138418  -0.024462   0.000132
     20      -0.006583  -0.053908  -0.021510   0.067159   0.013452  -0.000220
     21      -0.024622  -0.521083  -0.035781   0.377133  -0.012695  -0.005045
     22       0.012032   0.253009   0.016448  -0.184711   0.005748   0.002850
     23       0.024629   0.530974   0.034055  -0.388501   0.013630   0.005397
     24       0.020664  -0.001752  -0.007519  -0.001988   0.000225  -0.065496
     25       0.034990  -0.001948  -0.010386  -0.001787   0.000216  -0.045818
     26      -0.056097   0.003720   0.007611   0.000260   0.000399  -0.055204
     27      -0.033663   0.061268  -0.199006   0.027295   0.001468   0.023329
     28      -0.013701   0.024823  -0.079021   0.009729  -0.000154   0.010844
     29      -0.069750   0.132147  -0.440323   0.060474   0.002744   0.060383
     30      -0.050904   0.057778  -0.320175   0.056606  -0.000551   0.010352
     31       0.120237  -0.128668   0.708300  -0.131714  -0.002070  -0.019761
     32      -0.039620   0.039057  -0.215910   0.039379  -0.000169   0.006853
     33      -0.000376   0.000149  -0.000224   0.000532   0.000077   0.001651
     34      -0.001295   0.000031   0.000938   0.000311   0.000108   0.001185
     35       0.001569  -0.000291   0.000063  -0.000009   0.000002   0.001412
     36      -0.490162   0.028065   0.124618   0.026246  -0.001703   0.523222
     37      -0.458844   0.025820   0.117980   0.024232  -0.001834   0.485993
     38      -0.017248   0.000828   0.001915   0.000075   0.000163   0.008083
     39       0.262154  -0.016773  -0.032385  -0.002965  -0.002975   0.244369
     40       0.057191  -0.003114  -0.007700  -0.000106  -0.000311   0.052738
     41       0.659119  -0.040089  -0.088576  -0.006278  -0.004583   0.641616
     42      -0.001475   0.000875  -0.000291  -0.000180   0.000203   0.000745
     43       0.006699  -0.000418  -0.000114  -0.000726  -0.000185   0.000124
     44      -0.003408   0.000115   0.000036   0.000481  -0.000294   0.000123
     45       0.007588  -0.001765  -0.002025  -0.002820  -0.001237  -0.012336
     46       0.005504  -0.000857  -0.000827  -0.007058  -0.001417  -0.003124
     47       0.001151   0.001642   0.001564   0.000380  -0.000576  -0.001770
     48      -0.004569   0.001243  -0.003621   0.000253   0.000511  -0.002360
     49      -0.001897  -0.000648   0.001458  -0.000350   0.000056  -0.007162
     50      -0.008946   0.001932  -0.001849  -0.000213   0.000744  -0.010617
                 48         49         50    
      0       0.000201   0.000296   0.000061
      1      -0.000217  -0.000204  -0.000056
      2      -0.000162  -0.000269  -0.000017
      3       0.000018   0.000169   0.000012
      4      -0.000453  -0.000654  -0.000280
      5       0.000184   0.000353   0.000135
      6       0.001102   0.000488   0.000065
      7       0.000516   0.000083  -0.000001
      8      -0.000137   0.000123  -0.000003
      9      -0.002273  -0.002860  -0.000367
     10       0.000703   0.001430   0.000112
     11       0.002764   0.004016   0.000717
     12      -0.001103  -0.001014  -0.000370
     13       0.001703   0.001490   0.000678
     14      -0.000448  -0.000286  -0.000187
     15       0.000296  -0.000224  -0.000059
     16      -0.000342  -0.000072   0.000270
     17       0.000524  -0.000521   0.000406
     18      -0.000909  -0.001525  -0.001381
     19       0.003748   0.005826   0.002637
     20      -0.002774  -0.004341  -0.001450
     21       0.000250  -0.001068  -0.000012
     22       0.000844   0.001455   0.000394
     23      -0.000285   0.000123  -0.000264
     24      -0.000104   0.000580  -0.000381
     25       0.001181   0.000778   0.000316
     26      -0.000692   0.000711  -0.000279
     27      -0.002070   0.002905  -0.001669
     28      -0.000091   0.000619  -0.000405
     29      -0.003445   0.003786  -0.002769
     30       0.001291  -0.000064  -0.000390
     31       0.000748   0.000966   0.001104
     32      -0.001453  -0.000001  -0.000220
     33      -0.011037   0.065532   0.037787
     34       0.040866   0.035144  -0.003274
     35      -0.012034   0.032807  -0.072449
     36      -0.003580  -0.007181  -0.001445
     37      -0.009109  -0.010980  -0.002397
     38       0.000390  -0.000731   0.001069
     39       0.004233  -0.005955   0.003267
     40      -0.002910   0.001034  -0.001459
     41       0.007021  -0.009414   0.007975
     42       0.356236  -0.138155  -0.591989
     43      -0.111610   0.049222   0.191018
     44      -0.342607   0.140665   0.560610
     45      -0.445002  -0.494881  -0.142447
     46      -0.467468  -0.532264  -0.156262
     47      -0.006372  -0.001525  -0.009385
     48       0.240309  -0.271103   0.216049
     49       0.013040  -0.005437   0.007102
     50       0.516307  -0.591561   0.447722


-----------
IR SPECTRUM
-----------

 Mode   freq       eps      Int      T**2         TX        TY        TZ
       cm**-1   L/(mol*cm) km/mol    a.u.
----------------------------------------------------------------------------
  6:     65.29   0.002352   11.88  0.011240  ( 0.094764  0.019274  0.043455)
  7:    167.45   0.000119    0.60  0.000221  ( 0.009963  0.007778 -0.007849)
  8:    201.29   0.001374    6.94  0.002130  (-0.043495  0.001963  0.015296)
  9:    269.01   0.001212    6.13  0.001406  (-0.033992  0.005596  0.014810)
 10:    272.42   0.000696    3.52  0.000797  (-0.024796  0.009031  0.010025)
 11:    391.35   0.001099    5.56  0.000877  (-0.021054  0.010737  0.017832)
 12:    505.99   0.000516    2.61  0.000318  ( 0.008262 -0.012573 -0.009590)
 13:    736.89   0.001609    8.13  0.000681  (-0.025704  0.001123 -0.004409)
 14:    802.70   0.001373    6.94  0.000534  (-0.020407 -0.008242 -0.007023)
 15:    849.01   0.000312    1.58  0.000115  ( 0.001206 -0.008604 -0.006260)
 16:    896.83   0.001320    6.67  0.000459  (-0.014210 -0.010916 -0.011764)
 17:    916.95   0.002457   12.42  0.000836  ( 0.025041 -0.003658 -0.013992)
 18:    996.59   0.001326    6.70  0.000415  (-0.006023 -0.011322  0.015833)
 19:   1023.66   0.000938    4.74  0.000286  ( 0.004344  0.012873  0.010067)
 20:   1032.06   0.002599   13.14  0.000786  (-0.024520  0.010212  0.008967)
 21:   1105.13   0.000514    2.60  0.000145  ( 0.001223 -0.009796  0.006915)
 22:   1155.24   0.000217    1.10  0.000059  ( 0.005642 -0.001225 -0.005024)
 23:   1183.28   0.002072   10.47  0.000547  ( 0.011562  0.006498 -0.019252)
 24:   1269.92   0.000515    2.60  0.000127  (-0.003277  0.000059  0.010763)
 25:   1309.92   0.000047    0.24  0.000011  ( 0.001004  0.002673  0.001727)
 26:   1346.73   0.003776   19.08  0.000875  (-0.022070 -0.015952 -0.011548)
 27:   1367.16   0.000771    3.90  0.000176  (-0.013021 -0.000758  0.002418)
 28:   1400.68   0.000219    1.11  0.000049  ( 0.000668 -0.001548  0.006786)
 29:   1424.27   0.001428    7.22  0.000313  (-0.015275 -0.001828 -0.008729)
 30:   1434.85   0.000509    2.57  0.000111  (-0.001764 -0.005145 -0.009005)
 31:   1460.82   0.001929    9.75  0.000412  ( 0.004963 -0.016066 -0.011369)
 32:   1471.07   0.004761   24.06  0.001010  ( 0.001586 -0.031581  0.003196)
 33:   1481.02   0.001280    6.47  0.000270  (-0.001279 -0.011143  0.011996)
 34:   1485.74   0.003752   18.96  0.000788  (-0.005850 -0.013429  0.023949)
 35:   1489.30   0.005006   25.30  0.001049  ( 0.025521 -0.011288 -0.016435)
 36:   1501.34   0.028195  142.49  0.005861  (-0.043484  0.062322 -0.009252)
 37:   1619.23   0.007936   40.11  0.001529  ( 0.018289  0.019830  0.028316)
 38:   1630.64   0.006049   30.57  0.001158  (-0.029472 -0.005423  0.016113)
 39:   3040.08   0.007099   35.88  0.000729  ( 0.009813 -0.019901  0.015374)
 40:   3059.94   0.003766   19.03  0.000384  (-0.007939  0.007637  0.016210)
 41:   3084.17   0.001477    7.46  0.000149  (-0.007915 -0.004064 -0.008383)
 42:   3129.03   0.000105    0.53  0.000010  ( 0.001615  0.001232 -0.002521)
 43:   3139.95   0.000345    1.74  0.000034  (-0.005574  0.001431 -0.001075)
 44:   3147.92   0.000615    3.11  0.000061  (-0.001245  0.000711  0.007678)
 45:   3154.47   0.003768   19.04  0.000373  (-0.014913  0.010938  0.005540)
 46:   3188.44   0.000514    2.60  0.000050  ( 0.003092  0.005570 -0.003118)
 47:   3202.94   0.000011    0.06  0.000001  (-0.000351 -0.000514 -0.000850)
 48:   3439.10   0.008644   43.68  0.000784  ( 0.010817 -0.025216  0.005608)
 49:   3528.46   0.025554  129.14  0.002260  (-0.041641 -0.015499 -0.016907)
 50:   3546.50   0.026927  136.08  0.002369  (-0.025066  0.004420  0.041491)

* The epsilon (eps) is given for a Dirac delta lineshape.
** The dipole moment derivative (T) already includes vibrational overlap.

The first frequency considered to be a vibration is 6
The total number of vibrations considered is 45


--------------------------
THERMOCHEMISTRY AT 298.15K
--------------------------

Temperature         ... 298.15 K
Pressure            ... 1.00 atm
Total Mass          ... 74.15 AMU

Throughout the following assumptions are being made:
  (1) The electronic state is orbitally nondegenerate
  (2) There are no thermally accessible electronically excited states
  (3) Hindered rotations indicated by low frequency modes are not
      treated as such but are treated as vibrations and this may
      cause some error
  (4) All equations used are the standard statistical mechanics
      equations for an ideal gas
  (5) All vibrations are strictly harmonic

freq.      65.29  E(vib)   ...       0.50 
freq.     167.45  E(vib)   ...       0.39 
freq.     201.29  E(vib)   ...       0.35 
freq.     269.01  E(vib)   ...       0.29 
freq.     272.42  E(vib)   ...       0.29 
freq.     391.35  E(vib)   ...       0.20 
freq.     505.99  E(vib)   ...       0.14 
freq.     736.89  E(vib)   ...       0.06 
freq.     802.70  E(vib)   ...       0.05 
freq.     849.01  E(vib)   ...       0.04 
freq.     896.83  E(vib)   ...       0.03 
freq.     916.95  E(vib)   ...       0.03 
freq.     996.59  E(vib)   ...       0.02 
freq.    1023.66  E(vib)   ...       0.02 
freq.    1032.06  E(vib)   ...       0.02 
freq.    1105.13  E(vib)   ...       0.02 
freq.    1155.24  E(vib)   ...       0.01 
freq.    1183.28  E(vib)   ...       0.01 
freq.    1269.92  E(vib)   ...       0.01 
freq.    1309.92  E(vib)   ...       0.01 
freq.    1346.73  E(vib)   ...       0.01 
freq.    1367.16  E(vib)   ...       0.01 
freq.    1400.68  E(vib)   ...       0.00 
freq.    1424.27  E(vib)   ...       0.00 
freq.    1434.85  E(vib)   ...       0.00 
freq.    1460.82  E(vib)   ...       0.00 
freq.    1471.07  E(vib)   ...       0.00 
freq.    1481.02  E(vib)   ...       0.00 
freq.    1485.74  E(vib)   ...       0.00 
freq.    1489.30  E(vib)   ...       0.00 
freq.    1501.34  E(vib)   ...       0.00 
freq.    1619.23  E(vib)   ...       0.00 
freq.    1630.64  E(vib)   ...       0.00 
freq.    3040.08  E(vib)   ...       0.00 
freq.    3059.94  E(vib)   ...       0.00 
freq.    3084.17  E(vib)   ...       0.00 
freq.    3129.03  E(vib)   ...       0.00 
freq.    3139.95  E(vib)   ...       0.00 
freq.    3147.92  E(vib)   ...       0.00 
freq.    3154.47  E(vib)   ...       0.00 
freq.    3188.44  E(vib)   ...       0.00 
freq.    3202.94  E(vib)   ...       0.00 
freq.    3439.10  E(vib)   ...       0.00 
freq.    3528.46  E(vib)   ...       0.00 
freq.    3546.50  E(vib)   ...       0.00 

------------
INNER ENERGY
------------

The inner energy is: U= E(el) + E(ZPE) + E(vib) + E(rot) + E(trans)
    E(el)   - is the total energy from the electronic structure calculation
              = E(kin-el) + E(nuc-el) + E(el-el) + E(nuc-nuc)
    E(ZPE)  - the the zero temperature vibrational energy from the frequency calculation
    E(vib)  - the the finite temperature correction to E(ZPE) due to population
              of excited vibrational states
    E(rot)  - is the rotational thermal energy
    E(trans)- is the translational thermal energy

Summary of contributions to the inner energy U:
Electronic energy                ...   -213.95903933 Eh
Zero point energy                ...      0.16613502 Eh     104.25 kcal/mol
Thermal vibrational correction   ...      0.00404172 Eh       2.54 kcal/mol
Thermal rotational correction    ...      0.00141627 Eh       0.89 kcal/mol
Thermal translational correction ...      0.00141627 Eh       0.89 kcal/mol
-----------------------------------------------------------------------
Total thermal energy                   -213.78603006 Eh


Summary of corrections to the electronic energy:
(perhaps to be used in another calculation)
Total thermal correction                  0.00687426 Eh       4.31 kcal/mol
Non-thermal (ZPE) correction              0.16613502 Eh     104.25 kcal/mol
-----------------------------------------------------------------------
Total correction                          0.17300928 Eh     108.56 kcal/mol


--------
ENTHALPY
--------

The enthalpy is H = U + kB*T
                kB is Boltzmann's constant
Total free energy                 ...   -213.78603006 Eh 
Thermal Enthalpy correction       ...      0.00094421 Eh       0.59 kcal/mol
-----------------------------------------------------------------------
Total Enthalpy                    ...   -213.78508585 Eh


Note: Only C1 symmetry has been detected, increase convergence thresholds 
      if your molecule has a higher symmetry. Symmetry factor of 1.0 is   
      used for the rotational entropy correction. 
 

Note: Rotational entropy computed according to Herzberg 
Infrared and Raman Spectra, Chapter V,1, Van Nostrand Reinhold, 1945 
Point Group:  C1, Symmetry Number:   1  
Rotational constants in cm-1:     0.248740     0.098863     0.089153 

Vibrational entropy computed according to the QRRHO of S. Grimme
Chem.Eur.J. 2012 18 9955


-------
ENTROPY
-------

The entropy contributions are T*S = T*(S(el)+S(vib)+S(rot)+S(trans))
     S(el)   - electronic entropy
     S(vib)  - vibrational entropy
     S(rot)  - rotational entropy
     S(trans)- translational entropy
The entropies will be listed as multiplied by the temperature to get
units of energy

Electronic entropy                ...      0.00000000 Eh      0.00 kcal/mol
Vibrational entropy               ...      0.00684885 Eh      4.30 kcal/mol
Rotational entropy                ...      0.01240131 Eh      7.78 kcal/mol
Translational entropy             ...      0.01844761 Eh     11.58 kcal/mol
-----------------------------------------------------------------------
Final entropy term                ...      0.03769777 Eh     23.66 kcal/mol

In case the symmetry of your molecule has not been determined correctly
or in case you have a reason to use a different symmetry number we print 
out the resulting rotational entropy values for sn=1,12 :
 --------------------------------------------------------
|  sn= 1 | S(rot)=       0.01240131 Eh      7.78 kcal/mol|
|  sn= 2 | S(rot)=       0.01174685 Eh      7.37 kcal/mol|
|  sn= 3 | S(rot)=       0.01136402 Eh      7.13 kcal/mol|
|  sn= 4 | S(rot)=       0.01109240 Eh      6.96 kcal/mol|
|  sn= 5 | S(rot)=       0.01088171 Eh      6.83 kcal/mol|
|  sn= 6 | S(rot)=       0.01070957 Eh      6.72 kcal/mol|
|  sn= 7 | S(rot)=       0.01056402 Eh      6.63 kcal/mol|
|  sn= 8 | S(rot)=       0.01043794 Eh      6.55 kcal/mol|
|  sn= 9 | S(rot)=       0.01032673 Eh      6.48 kcal/mol|
|  sn=10 | S(rot)=       0.01022725 Eh      6.42 kcal/mol|
|  sn=11 | S(rot)=       0.01013726 Eh      6.36 kcal/mol|
|  sn=12 | S(rot)=       0.01005511 Eh      6.31 kcal/mol|
 --------------------------------------------------------


-------------------
GIBBS FREE ENERGY
-------------------

The Gibbs free energy is G = H - T*S

Total enthalpy                    ...   -213.78508585 Eh 
Total entropy correction          ...     -0.03769777 Eh    -23.66 kcal/mol
-----------------------------------------------------------------------
Final Gibbs free energy         ...   -213.82278361 Eh

For completeness - the Gibbs free energy minus the electronic energy
G-E(el)                           ...      0.13625572 Eh     85.50 kcal/mol


Timings for individual modules:

Sum of individual times         ...      282.484 sec (=   4.708 min)
GTO integral calculation        ...        4.032 sec (=   0.067 min)   1.4 %
SCF iterations                  ...      152.645 sec (=   2.544 min)  54.0 %
SCF Gradient evaluation         ...       41.363 sec (=   0.689 min)  14.6 %
Geometry relaxation             ...        0.302 sec (=   0.005 min)   0.1 %
Analytical frequency calculation...       84.141 sec (=   1.402 min)  29.8 %
                             ****ORCA TERMINATED NORMALLY****
TOTAL RUN TIME: 0 days 0 hours 4 minutes 45 seconds 540 msec
