
                                 *****************
                                 * O   R   C   A *
                                 *****************

                                            #,                                       
                                            ###                                      
                                            ####                                     
                                            #####                                    
                                            ######                                   
                                           ########,                                 
                                     ,,################,,,,,                         
                               ,,#################################,,                 
                          ,,##########################################,,             
                       ,#########################################, ''#####,          
                    ,#############################################,,   '####,        
                  ,##################################################,,,,####,       
                ,###########''''           ''''###############################       
              ,#####''   ,,,,##########,,,,          '''####'''          '####       
            ,##' ,,,,###########################,,,                        '##       
           ' ,,###''''                  '''############,,,                           
         ,,##''                                '''############,,,,        ,,,,,,###''
      ,#''                                            '''#######################'''  
     '                                                          ''''####''''         
             ,#######,   #######,   ,#######,      ##                                
            ,#'     '#,  ##    ##  ,#'     '#,    #''#        ######   ,####,        
            ##       ##  ##   ,#'  ##            #'  '#       #        #'  '#        
            ##       ##  #######   ##           ,######,      #####,   #    #        
            '#,     ,#'  ##    ##  '#,     ,#' ,#      #,         ##   #,  ,#        
             '#######'   ##     ##  '#######'  #'      '#     #####' # '####'        



                  #######################################################
                  #                        -***-                        #
                  #          Department of theory and spectroscopy      #
                  #    Directorship and core code : Frank Neese         #
                  #        Max Planck Institute fuer Kohlenforschung    #
                  #                Kaiser Wilhelm Platz 1               #
                  #                 D-45470 Muelheim/Ruhr               #
                  #                      Germany                        #
                  #                                                     #
                  #                  All rights reserved                #
                  #                        -***-                        #
                  #######################################################


                         Program Version 5.0.4 -  RELEASE  -


 With contributions from (in alphabetic order):
   Daniel Aravena         : Magnetic Suceptibility
   Michael Atanasov       : Ab Initio Ligand Field Theory (pilot matlab implementation)
   Alexander A. Auer      : GIAO ZORA, VPT2 properties, NMR spectrum
   Ute Becker             : Parallelization
   Giovanni Bistoni       : ED, misc. LED, open-shell LED, HFLD
   Martin Brehm           : Molecular dynamics
   Dmytro Bykov           : SCF Hessian
   Vijay G. Chilkuri      : MRCI spin determinant printing, contributions to CSF-ICE
   Dipayan Datta          : RHF DLPNO-CCSD density
   Achintya Kumar Dutta   : EOM-CC, STEOM-CC
   Dmitry Ganyushin       : Spin-Orbit,Spin-Spin,Magnetic field MRCI
   Miquel Garcia          : C-PCM and meta-GGA Hessian, CC/C-PCM, Gaussian charge scheme
   Yang Guo               : DLPNO-NEVPT2, F12-NEVPT2, CIM, IAO-localization
   Andreas Hansen         : Spin unrestricted coupled pair/coupled cluster methods
   Benjamin Helmich-Paris : MC-RPA, TRAH-SCF, COSX integrals
   Lee Huntington         : MR-EOM, pCC
   Robert Izsak           : Overlap fitted RIJCOSX, COSX-SCS-MP3, EOM
   Marcus Kettner         : VPT2
   Christian Kollmar      : KDIIS, OOCD, Brueckner-CCSD(T), CCSD density, CASPT2, CASPT2-K
   Simone Kossmann        : Meta GGA functionals, TD-DFT gradient, OOMP2, MP2 Hessian
   Martin Krupicka        : Initial AUTO-CI
   Lucas Lang             : DCDCAS
   Marvin Lechner         : AUTO-CI (C++ implementation), FIC-MRCC
   Dagmar Lenk            : GEPOL surface, SMD
   Dimitrios Liakos       : Extrapolation schemes; Compound Job, initial MDCI parallelization
   Dimitrios Manganas     : Further ROCIS development; embedding schemes
   Dimitrios Pantazis     : SARC Basis sets
   Anastasios Papadopoulos: AUTO-CI, single reference methods and gradients
   Taras Petrenko         : DFT Hessian,TD-DFT gradient, ASA, ECA, R-Raman, ABS, FL, XAS/XES, NRVS
   Peter Pinski           : DLPNO-MP2, DLPNO-MP2 Gradient
   Christoph Reimann      : Effective Core Potentials
   Marius Retegan         : Local ZFS, SOC
   Christoph Riplinger    : Optimizer, TS searches, QM/MM, DLPNO-CCSD(T), (RO)-DLPNO pert. Triples
   Tobias Risthaus        : Range-separated hybrids, TD-DFT gradient, RPA, STAB
   Michael Roemelt        : Original ROCIS implementation
   Masaaki Saitow         : Open-shell DLPNO-CCSD energy and density
   Barbara Sandhoefer     : DKH picture change effects
   Avijit Sen             : IP-ROCIS
   Kantharuban Sivalingam : CASSCF convergence, NEVPT2, FIC-MRCI
   Bernardo de Souza      : ESD, SOC TD-DFT
   Georgi Stoychev        : AutoAux, RI-MP2 NMR, DLPNO-MP2 response
   Willem Van den Heuvel  : Paramagnetic NMR
   Boris Wezisla          : Elementary symmetry handling
   Frank Wennmohs         : Technical directorship


 We gratefully acknowledge several colleagues who have allowed us to
 interface, adapt or use parts of their codes:
   Stefan Grimme, W. Hujo, H. Kruse, P. Pracht,  : VdW corrections, initial TS optimization,
                  C. Bannwarth, S. Ehlert          DFT functionals, gCP, sTDA/sTD-DF
   Ed Valeev, F. Pavosevic, A. Kumar             : LibInt (2-el integral package), F12 methods
   Garnet Chan, S. Sharma, J. Yang, R. Olivares  : DMRG
   Ulf Ekstrom                                   : XCFun DFT Library
   Mihaly Kallay                                 : mrcc  (arbitrary order and MRCC methods)
   Jiri Pittner, Ondrej Demel                    : Mk-CCSD
   Frank Weinhold                                : gennbo (NPA and NBO analysis)
   Christopher J. Cramer and Donald G. Truhlar   : smd solvation model
   Lars Goerigk                                  : TD-DFT with DH, B97 family of functionals
   V. Asgeirsson, H. Jonsson                     : NEB implementation
   FAccTs GmbH                                   : IRC, NEB, NEB-TS, DLPNO-Multilevel, CI-OPT
                                                   MM, QMMM, 2- and 3-layer-ONIOM, Crystal-QMMM,
                                                   LR-CPCM, SF, NACMEs, symmetry and pop. for TD-DFT,
                                                   nearIR, NL-DFT gradient (VV10), updates on ESD,
                                                   ML-optimized integration grids
   S Lehtola, MJT Oliveira, MAL Marques          : LibXC Library
   Liviu Ungur et al                             : ANISO software


 Your calculation uses the libint2 library for the computation of 2-el integrals
 For citations please refer to: http://libint.valeyev.net

 Your ORCA version has been built with support for libXC version: 5.1.0
 For citations please refer to: https://tddft.org/programs/libxc/

 This ORCA versions uses:
   CBLAS   interface :  Fast vector & matrix operations
   LAPACKE interface :  Fast linear algebra routines
   SCALAPACK package :  Parallel linear algebra routines
   Shared memory     :  Shared parallel matrices
   BLAS/LAPACK       :  OpenBLAS 0.3.15  USE64BITINT DYNAMIC_ARCH NO_AFFINITY SkylakeX SINGLE_THREADED
        Core in use  :  SkylakeX
   Copyright (c) 2011-2014, The OpenBLAS Project




***************************************
The coordinates will be read from file: butylamine_prot_aq_6.xyz
***************************************


Your calculation utilizes the atom-pairwise dispersion correction
based on tight binding partial charges (D4)
Cite in your paper:
E.Caldeweyher, C.Bannwarth, S.Grimme, J.Chem.Phys., (2017), 147, 034112.
E.Caldeweyher, S.Ehlert, A.Hansen, H.Neugebauer, S.Grimme, J.Chem.Phys., (2018), in progress.
   

XCFun DFT library Copyright 2009-2010 Ulf Ekstrom and contributors.
See http://admol.org/xcfun for more information.
This is free software; see the source code for copying conditions.
There is ABSOLUTELY NO WARRANTY; not even for MERCHANTABILITY or FITNESS FOR A PARTICULAR PURPOSE.
For details see the documentation.
Scientific users of this library should cite U. Ekstrom, L. Visscher, R. Bast, A. J. Thorvaldsen and K. Ruud;
J.Chem.Theor.Comp. 2010, DOI: 10.1021/ct100117s
XCFun Version 0.99 

================================================================================

----- Orbital basis set information -----
Your calculation utilizes the basis: def2-SVP
   F. Weigend and R. Ahlrichs, Phys. Chem. Chem. Phys. 7, 3297 (2005).

----- AuxJ basis set information -----
Your calculation utilizes the auxiliary basis: def2/J
   F. Weigend, Phys. Chem. Chem. Phys. 8, 1057 (2006).

================================================================================
                                        WARNINGS
                       Please study these warnings very carefully!
================================================================================


WARNING: Geometry Optimization
  ===> : Switching off AutoStart
         For restart on a previous wavefunction, please use MOREAD

INFO   : the flag for use of the SHARK integral package has been found!

================================================================================
                                       INPUT FILE
================================================================================
NAME = butylamine_prot_aq_6.inp
|  1> # ORCA 5.0.4 - /users/bwb16179/postgrad/2024_06/pKa_Reviewer_Comments/CREST_Confs/butylamine/butylamine_prot_aq_6.inp # write input file
|  2> # Basic Mode
|  3> #
|  4> ! Opt Freq wB97X Def2-SVP D4 SlowConv TightSCF Defgrid2 Def2/J RIJCOSX 
|  5> 
|  6> %PAL NPROCS 4 END
|  7> 
|  8> %maxcore 4500
|  9> 
| 10> %geom
| 11> Maxiter 150
| 12> END
| 13> 
| 14> * xyzfile 1 1 butylamine_prot_aq_6.xyz
| 15> 
| 16>                          ****END OF INPUT****
================================================================================

                       *****************************
                       * Geometry Optimization Run *
                       *****************************

Geometry optimization settings:
Update method            Update   .... BFGS
Choice of coordinates    CoordSys .... Z-matrix Internals
Initial Hessian          InHess   .... Almoef's Model

Convergence Tolerances:
Energy Change            TolE     ....  5.0000e-06 Eh
Max. Gradient            TolMAXG  ....  3.0000e-04 Eh/bohr
RMS Gradient             TolRMSG  ....  1.0000e-04 Eh/bohr
Max. Displacement        TolMAXD  ....  4.0000e-03 bohr
RMS Displacement         TolRMSD  ....  2.0000e-03 bohr
Strict Convergence                ....  False
------------------------------------------------------------------------------
                        ORCA OPTIMIZATION COORDINATE SETUP
------------------------------------------------------------------------------

The optimization will be done in new redundant internal coordinates
Making redundant internal coordinates   ...  (new redundants) done
Evaluating the initial hessian          ...  (Almloef) done
Evaluating the coordinates              ...  done
Calculating the B-matrix                .... done
Calculating the G-matrix                .... done
Diagonalizing the G-matrix              .... done
The first mode is                       ....   37
The number of degrees of freedom        ....   45

    -----------------------------------------------------------------
                    Redundant Internal Coordinates


    -----------------------------------------------------------------
         Definition                    Initial Value    Approx d2E/dq
    -----------------------------------------------------------------
      1. B(C   1,C   0)                  1.5260         0.379109   
      2. B(H   2,C   0)                  1.0879         0.362884   
      3. B(H   3,C   0)                  1.0880         0.362771   
      4. B(H   4,C   0)                  1.0881         0.362620   
      5. B(C   5,C   1)                  1.5405         0.359429   
      6. B(H   6,C   1)                  1.0913         0.358321   
      7. B(H   7,C   1)                  1.0904         0.359530   
      8. B(C   8,C   5)                  1.5236         0.382406   
      9. B(H   9,C   5)                  1.0901         0.359992   
     10. B(H  10,C   5)                  1.0893         0.360971   
     11. B(N  11,C   8)                  1.4918         0.385052   
     12. B(H  12,C   8)                  1.0900         0.360114   
     13. B(H  13,C   8)                  1.0903         0.359651   
     14. B(H  14,N  11)                  1.0297         0.402553   
     15. B(H  15,N  11)                  1.0311         0.400448   
     16. B(H  16,N  11)                  1.0307         0.400976   
     17. A(H   3,C   0,H   4)          107.8923         0.291497   
     18. A(C   1,C   0,H   4)          110.6872         0.325476   
     19. A(C   1,C   0,H   2)          110.9033         0.325515   
     20. A(H   2,C   0,H   4)          108.0964         0.291511   
     21. A(H   2,C   0,H   3)          108.3109         0.291530   
     22. A(C   1,C   0,H   3)          110.8387         0.325499   
     23. A(C   0,C   1,C   5)          111.8349         0.361872   
     24. A(H   6,C   1,H   7)          107.7512         0.290541   
     25. A(C   5,C   1,H   7)          110.3999         0.322188   
     26. A(C   0,C   1,H   7)          108.3243         0.325019   
     27. A(C   5,C   1,H   6)          110.9169         0.322010   
     28. A(C   0,C   1,H   6)          107.4611         0.324839   
     29. A(C   1,C   5,H   9)          110.3505         0.322256   
     30. A(C   1,C   5,C   8)          113.2776         0.362407   
     31. A(C   8,C   5,H   9)          109.5906         0.325550   
     32. A(H   9,C   5,H  10)          106.6456         0.290936   
     33. A(C   8,C   5,H  10)          107.8902         0.325696   
     34. A(C   1,C   5,H  10)          108.8380         0.322399   
     35. A(H  12,C   8,H  13)          108.8342         0.290784   
     36. A(N  11,C   8,H  13)          108.9613         0.323920   
     37. A(C   5,C   8,H  13)          109.9644         0.325500   
     38. A(N  11,C   8,H  12)          108.5621         0.323989   
     39. A(C   5,C   8,H  12)          110.0462         0.325569   
     40. A(C   5,C   8,N  11)          110.4338         0.364417   
     41. A(H  15,N  11,H  16)          108.1427         0.295934   
     42. A(H  14,N  11,H  16)          108.9317         0.296180   
     43. A(C   8,N  11,H  16)          109.9273         0.326969   
     44. A(H  14,N  11,H  15)          109.0256         0.296118   
     45. A(C   8,N  11,H  15)          109.7616         0.326898   
     46. A(C   8,N  11,H  14)          110.9945         0.327181   
     47. D(H   6,C   1,C   0,H   4)     57.4103         0.011458   
     48. D(H   7,C   1,C   0,H   4)    -58.7485         0.011458   
     49. D(H   7,C   1,C   0,H   3)     60.9294         0.011458   
     50. D(H   6,C   1,C   0,H   2)    -62.5658         0.011458   
     51. D(C   5,C   1,C   0,H   4)    179.3629         0.011458   
     52. D(H   6,C   1,C   0,H   3)    177.0881         0.011458   
     53. D(C   5,C   1,C   0,H   3)    -60.9592         0.011458   
     54. D(C   5,C   1,C   0,H   2)     59.3869         0.011458   
     55. D(H   7,C   1,C   0,H   2)   -178.7245         0.011458   
     56. D(H   9,C   5,C   1,H   6)   -118.7599         0.010367   
     57. D(C   8,C   5,C   1,H   7)    123.8952         0.010367   
     58. D(C   8,C   5,C   1,H   6)      4.5301         0.010367   
     59. D(C   8,C   5,C   1,C   0)   -115.4165         0.010367   
     60. D(H   9,C   5,C   1,H   7)      0.6052         0.010367   
     61. D(H  10,C   5,C   1,H   7)   -116.0972         0.010367   
     62. D(H  10,C   5,C   1,H   6)    124.5377         0.010367   
     63. D(H  10,C   5,C   1,C   0)      4.5911         0.010367   
     64. D(H   9,C   5,C   1,C   0)    121.2935         0.010367   
     65. D(H  13,C   8,C   5,H   9)    172.5570         0.011647   
     66. D(H  13,C   8,C   5,C   1)     48.8498         0.011647   
     67. D(H  12,C   8,C   5,H  10)     48.1824         0.011647   
     68. D(H  12,C   8,C   5,H   9)    -67.5639         0.011647   
     69. D(H  12,C   8,C   5,C   1)    168.7289         0.011647   
     70. D(N  11,C   8,C   5,H  10)    168.0211         0.011647   
     71. D(N  11,C   8,C   5,H   9)     52.2748         0.011647   
     72. D(H  13,C   8,C   5,H  10)    -71.6967         0.011647   
     73. D(N  11,C   8,C   5,C   1)    -71.4324         0.011647   
     74. D(H  15,N  11,C   8,C   5)     56.7022         0.013568   
     75. D(H  14,N  11,C   8,H  13)     56.4101         0.013568   
     76. D(H  14,N  11,C   8,H  12)    -61.9789         0.013568   
     77. D(H  14,N  11,C   8,C   5)    177.2922         0.013568   
     78. D(H  16,N  11,C   8,H  13)    176.9918         0.013568   
     79. D(H  16,N  11,C   8,H  12)     58.6027         0.013568   
     80. D(H  16,N  11,C   8,C   5)    -62.1262         0.013568   
     81. D(H  15,N  11,C   8,H  13)    -64.1798         0.013568   
     82. D(H  15,N  11,C   8,H  12)    177.4312         0.013568   
    -----------------------------------------------------------------

Number of atoms                         .... 17
Number of degrees of freedom            .... 82

         *************************************************************
         *                GEOMETRY OPTIMIZATION CYCLE   1            *
         *************************************************************
---------------------------------
CARTESIAN COORDINATES (ANGSTROEM)
---------------------------------
  C     -2.382344   -0.001736   -0.324157
  C     -1.052694   -0.528231    0.208292
  H     -2.235963    0.566573   -1.240198
  H     -2.862860    0.645491    0.406541
  H     -3.061955   -0.823342   -0.541085
  C     -0.063632    0.613733    0.509685
  H     -0.645716   -1.208307   -0.541979
  H     -1.250098   -1.108096    1.110416
  C      1.176458    0.585464   -0.375107
  H      0.234646    0.590134    1.557898
  H     -0.567084    1.566450    0.349888
  N      2.060840   -0.554500    0.003977
  H      1.737807    1.512840   -0.261365
  H      0.885676    0.475945   -1.420235
  H      2.879732   -0.608745   -0.617860
  H      1.534319   -1.439014   -0.055666
  H      2.385641   -0.439204    0.975379

----------------------------
CARTESIAN COORDINATES (A.U.)
----------------------------
  NO LB      ZA    FRAG     MASS         X           Y           Z
   0 C     6.0000    0    12.011   -4.501977   -0.003281   -0.612568
   1 C     6.0000    0    12.011   -1.989303   -0.998212    0.393614
   2 H     1.0000    0     1.008   -4.225358    1.070667   -2.343635
   3 H     1.0000    0     1.008   -5.410020    1.219801    0.768251
   4 H     1.0000    0     1.008   -5.786256   -1.555892   -1.022502
   5 C     6.0000    0    12.011   -0.120247    1.159788    0.963165
   6 H     1.0000    0     1.008   -1.220226   -2.283370   -1.024192
   7 H     1.0000    0     1.008   -2.362342   -2.093998    2.098381
   8 C     6.0000    0    12.011    2.223183    1.106367   -0.708850
   9 H     1.0000    0     1.008    0.443417    1.115192    2.944001
  10 H     1.0000    0     1.008   -1.071633    2.960161    0.661193
  11 N     7.0000    0    14.007    3.894424   -1.047854    0.007516
  12 H     1.0000    0     1.008    3.283979    2.858853   -0.493908
  13 H     1.0000    0     1.008    1.673686    0.899406   -2.683855
  14 H     1.0000    0     1.008    5.441904   -1.150360   -1.167586
  15 H     1.0000    0     1.008    2.899442   -2.719343   -0.105193
  16 H     1.0000    0     1.008    4.508209   -0.829976    1.843199

--------------------------------
INTERNAL COORDINATES (ANGSTROEM)
--------------------------------
 C      0   0   0     0.000000000000     0.00000000     0.00000000
 C      1   0   0     1.525996620022     0.00000000     0.00000000
 H      1   2   0     1.087903618951   110.90325597     0.00000000
 H      1   2   3     1.087988183086   110.83869375   239.65392844
 H      1   2   3     1.088101912545   110.68721786   119.97607095
 C      2   1   3     1.540507540206   111.83489859    59.38685795
 H      2   1   3     1.091348414258   107.46107764   297.43421052
 H      2   1   3     1.090430950888   108.32434675   181.27545597
 C      6   2   1     1.523640075633   113.27757788   244.58350088
 H      6   2   1     1.090081382805   110.35053405   121.29352277
 H      6   2   1     1.089342688924   108.83804117     4.59109221
 N      9   6   2     1.491762944815   110.43379310   288.56761768
 H      9   6   2     1.089989173965   110.04621411   168.72891847
 H      9   6   2     1.090339441310   109.96436938    48.84982197
 H     12   9   6     1.029663438876   110.99452360   177.29215980
 H     12   9   6     1.031090657400   109.76162245    56.70222998
 H     12   9   6     1.030732303478   109.92726584   297.87378621

---------------------------
INTERNAL COORDINATES (A.U.)
---------------------------
 C      0   0   0     0.000000000000     0.00000000     0.00000000
 C      1   0   0     2.883715693131     0.00000000     0.00000000
 H      1   2   0     2.055839899920   110.90325597     0.00000000
 H      1   2   3     2.055999702975   110.83869375   239.65392844
 H      1   2   3     2.056214620506   110.68721786   119.97607095
 C      2   1   3     2.911137358230   111.83489859    59.38685795
 H      2   1   3     2.062349619637   107.46107764   297.43421052
 H      2   1   3     2.060615865130   108.32434675   181.27545597
 C      6   2   1     2.879262469613   113.27757788   244.58350088
 H      6   2   1     2.059955277188   110.35053405   121.29352277
 H      6   2   1     2.058559348055   108.83804117     4.59109221
 N      9   6   2     2.819023422432   110.43379310   288.56761768
 H      9   6   2     2.059781027732   110.04621411   168.72891847
 H      9   6   2     2.060442937088   109.96436938    48.84982197
 H     12   9   6     1.945781909587   110.99452360   177.29215980
 H     12   9   6     1.948478961731   109.76162245    56.70222998
 H     12   9   6     1.947801770959   109.92726584   297.87378621

---------------------
BASIS SET INFORMATION
---------------------
There are 3 groups of distinct atoms

 Group   1 Type C   : 7s4p1d contracted to 3s2p1d pattern {511/31/1}
 Group   2 Type H   : 4s1p contracted to 2s1p pattern {31/1}
 Group   3 Type N   : 7s4p1d contracted to 3s2p1d pattern {511/31/1}

Atom   0C    basis set group =>   1
Atom   1C    basis set group =>   1
Atom   2H    basis set group =>   2
Atom   3H    basis set group =>   2
Atom   4H    basis set group =>   2
Atom   5C    basis set group =>   1
Atom   6H    basis set group =>   2
Atom   7H    basis set group =>   2
Atom   8C    basis set group =>   1
Atom   9H    basis set group =>   2
Atom  10H    basis set group =>   2
Atom  11N    basis set group =>   3
Atom  12H    basis set group =>   2
Atom  13H    basis set group =>   2
Atom  14H    basis set group =>   2
Atom  15H    basis set group =>   2
Atom  16H    basis set group =>   2
---------------------------------
AUXILIARY/J BASIS SET INFORMATION
---------------------------------
There are 3 groups of distinct atoms

 Group   1 Type C   : 12s5p4d2f1g contracted to 6s4p3d1f1g pattern {711111/2111/211/2/1}
 Group   2 Type H   : 5s2p1d contracted to 3s1p1d pattern {311/2/1}
 Group   3 Type N   : 12s5p4d2f1g contracted to 6s4p3d1f1g pattern {711111/2111/211/2/1}

Atom   0C    basis set group =>   1
Atom   1C    basis set group =>   1
Atom   2H    basis set group =>   2
Atom   3H    basis set group =>   2
Atom   4H    basis set group =>   2
Atom   5C    basis set group =>   1
Atom   6H    basis set group =>   2
Atom   7H    basis set group =>   2
Atom   8C    basis set group =>   1
Atom   9H    basis set group =>   2
Atom  10H    basis set group =>   2
Atom  11N    basis set group =>   3
Atom  12H    basis set group =>   2
Atom  13H    basis set group =>   2
Atom  14H    basis set group =>   2
Atom  15H    basis set group =>   2
Atom  16H    basis set group =>   2


           ************************************************************
           *        Program running with 4 parallel MPI-processes     *
           *              working on a common directory               *
           ************************************************************
------------------------------------------------------------------------------
                           ORCA GTO INTEGRAL CALCULATION
                           -- RI-GTO INTEGRALS CHOSEN --
------------------------------------------------------------------------------
------------------------------------------------------------------------------
                   ___                                                        
                  /   \      - P O W E R E D   B Y -                         
                 /     \                                                     
                 |  |  |   _    _      __       _____    __    __             
                 |  |  |  | |  | |    /  \     |  _  \  |  |  /  |          
                  \  \/   | |  | |   /    \    | | | |  |  | /  /          
                 / \  \   | |__| |  /  /\  \   | |_| |  |  |/  /          
                |  |  |   |  __  | /  /__\  \  |    /   |      \           
                |  |  |   | |  | | |   __   |  |    \   |  |\   \          
                \     /   | |  | | |  |  |  |  | |\  \  |  | \   \       
                 \___/    |_|  |_| |__|  |__|  |_| \__\ |__|  \__/        
                                                                              
                      - O R C A' S   B I G   F R I E N D -                    
                                      &                                       
                       - I N T E G R A L  F E E D E R -                       
                                                                              
 v1 FN, 2020, v2 2021                                                         
------------------------------------------------------------------------------


Reading SHARK input file butylamine_prot_aq_6.SHARKINP.tmp ... ok
----------------------
SHARK INTEGRAL PACKAGE
----------------------

Number of atoms                             ...     17
Number of basis functions                   ...    130
Number of shells                            ...     66
Maximum angular momentum                    ...      2
Integral batch strategy                     ... SHARK/LIBINT Hybrid
RI-J (if used) integral strategy            ... SPLIT-RIJ (Revised 2003 algorithm where possible)
Printlevel                                  ...      1
Contraction scheme used                     ... SEGMENTED contraction
Coulomb Range Separation                    ... NOT USED
Exchange Range Separation                   ... Long Range
   Mu parameter                             ...  0.300000
   Scaling (regular/separated)              ...  0.157706  0.842294
Finite Nucleus Model                        ... NOT USED
Auxiliary Coulomb fitting basis             ... AVAILABLE
   # of basis functions in Aux-J            ...    377
   # of shells in Aux-J                     ...    135
   Maximum angular momentum in Aux-J        ...      4
Auxiliary J/K fitting basis                 ... NOT available
Auxiliary Correlation fitting basis         ... NOT available
Auxiliary 'external' fitting basis          ... NOT available
Integral threshold                          ...     2.500000e-11
Primitive cut-off                           ...     2.500000e-12
Primitive pair pre-selection threshold      ...     2.500000e-12

Calculating pre-screening integrals         ... done (  0.0 sec) Dimension = 66
Organizing shell pair data                  ... done (  0.0 sec)
Shell pair information
Total number of shell pairs                 ...      2211
Shell pairs after pre-screening             ...      2139
Total number of primitive shell pairs       ...      7361
Primitive shell pairs kept                  ...      5635
          la=0 lb=0:    763 shell pairs
          la=1 lb=0:    825 shell pairs
          la=1 lb=1:    240 shell pairs
          la=2 lb=0:    191 shell pairs
          la=2 lb=1:    105 shell pairs
          la=2 lb=2:     15 shell pairs

Calculating one electron integrals          ... done (  0.0 sec)
Calculating RI/J V-Matrix + Cholesky decomp.... done (  0.0 sec)
Calculating Nuclear repulsion               ... done (  0.0 sec) ENN=    198.716394987621 Eh

SHARK setup successfully completed in   0.2 seconds

Maximum memory used throughout the entire GTOINT-calculation: 10.8 MB


           ************************************************************
           *        Program running with 4 parallel MPI-processes     *
           *              working on a common directory               *
           ************************************************************
-------------------------------------------------------------------------------
                                 ORCA SCF
-------------------------------------------------------------------------------

------------
SCF SETTINGS
------------
Hamiltonian:
 Density Functional     Method          .... DFT(GTOs)
 Exchange Functional    Exchange        .... WB97X
 Correlation Functional Correlation     .... WB97X
 Gradients option       PostSCFGGA      .... off
 Hybrid DFT is turned on
   Fraction HF Exchange ScalHFX         ....  0.157706
   Scaling of DF-GGA-X  ScalDFX         ....  0.000000
   Scaling of DF-GGA-C  ScalDFC         ....  1.000000
   Scaling of DF-LDA-C  ScalLDAC        ....  1.000000
   Perturbative correction              ....  0.000000
   Density functional embedding theory  .... OFF
 Long-range corrected/Screened/Range-Separated Hybrid DFT is turned on
   Amount of maximum screened exact exchange              ....  0.842294
   Range separation parameter mu (erf(mu*r12)/r12)        ....  0.300000
 RI-approximation to the Coulomb term is turned on
   Number of AuxJ basis functions       .... 377
   RIJ-COSX (HFX calculated with COS-X)).... on


General Settings:
 Integral files         IntName         .... butylamine_prot_aq_6
 Hartree-Fock type      HFTyp           .... RHF
 Total Charge           Charge          ....    1
 Multiplicity           Mult            ....    1
 Number of Electrons    NEL             ....   42
 Basis Dimension        Dim             ....  130
 Nuclear Repulsion      ENuc            ....    198.7163949876 Eh

Convergence Acceleration:
 DIIS                   CNVDIIS         .... on
   Start iteration      DIISMaxIt       ....     0
   Startup error        DIISStart       ....  0.200000
   # of expansion vecs  DIISMaxEq       ....     5
   Bias factor          DIISBfac        ....   1.050
   Max. coefficient     DIISMaxC        ....  10.000
 Trust-Rad. Augm. Hess. CNVTRAH         .... auto
   Auto Start mean grad. ratio tolernc. ....  1.125000
   Auto Start start iteration           ....    20
   Auto Start num. interpolation iter.  ....    10
   Max. Number of Micro iterations      ....    16
   Max. Number of Macro iterations      .... Maxiter - #DIIS iter
   Number of Davidson start vectors     ....     2
   Converg. threshold I  (grad. norm)   ....   1.000e-05
   Converg. threshold II (energy diff.) ....   1.000e-08
   Grad. Scal. Fac. for Micro threshold ....   0.100
   Minimum threshold for Micro iter.    ....   0.010
   NR start threshold (gradient norm)   ....   0.001
   Initial trust radius                 ....   0.400
   Minimum AH scaling param. (alpha)    ....   1.000
   Maximum AH scaling param. (alpha)    .... 1000.000
   Orbital update algorithm             .... Taylor
   White noise on init. David. guess    .... on
   Maximum white noise                  ....   0.010
   Quad. conv. algorithm                .... NR
 SOSCF                  CNVSOSCF        .... on
   Start iteration      SOSCFMaxIt      ....   150
   Startup grad/error   SOSCFStart      ....  0.001000
 Level Shifting         CNVShift        .... on
   Level shift para.    LevelShift      ....    0.2500
   Turn off err/grad.   ShiftErr        ....    0.0000
 Zerner damping         CNVZerner       .... off
 Static damping         CNVDamp         .... on
   Fraction old density DampFac         ....    0.8500
   Max. Damping (<1)    DampMax         ....    0.9800
   Min. Damping (>=0)   DampMin         ....    0.0000
   Turn off err/grad.   DampErr         ....    0.0300
 Fernandez-Rico         CNVRico         .... off

SCF Procedure:
 Maximum # iterations   MaxIter         ....   125
 SCF integral mode      SCFMode         .... Direct
   Integral package                     .... SHARK and LIBINT hybrid scheme
 Reset frequency        DirectResetFreq ....    20
 Integral Threshold     Thresh          ....  2.500e-11 Eh
 Primitive CutOff       TCut            ....  2.500e-12 Eh

Convergence Tolerance:
 Convergence Check Mode ConvCheckMode   .... Total+1el-Energy
 Convergence forced     ConvForced      .... 0
 Energy Change          TolE            ....  1.000e-08 Eh
 1-El. energy change                    ....  1.000e-05 Eh
 Orbital Gradient       TolG            ....  1.000e-05
 Orbital Rotation angle TolX            ....  1.000e-05
 DIIS Error             TolErr          ....  5.000e-07


Diagonalization of the overlap matrix:
Smallest eigenvalue                        ... 2.114e-03
Time for diagonalization                   ...    0.003 sec
Threshold for overlap eigenvalues          ... 1.000e-08
Number of eigenvalues below threshold      ... 0
Time for construction of square roots      ...    0.003 sec
Total time needed                          ...    0.006 sec

Time for model grid setup =    0.072 sec

------------------------------
INITIAL GUESS: MODEL POTENTIAL
------------------------------
Loading Hartree-Fock densities                     ... done
Calculating cut-offs                               ... done
Initializing the effective Hamiltonian             ... done
Setting up the integral package (SHARK)            ... done
Starting the Coulomb interaction                   ... done (   0.0 sec)
Reading the grid                                   ... done
Mapping shells                                     ... done
Starting the XC term evaluation                    ... done (   0.1 sec)
  promolecular density results
     # of electrons  =     43.001822013
     EX              =    -30.585650042
     EC              =     -1.393270165
     EX+EC           =    -31.978920208
Transforming the Hamiltonian                       ... done (   0.0 sec)
Diagonalizing the Hamiltonian                      ... done (   0.0 sec)
Back transforming the eigenvectors                 ... done (   0.0 sec)
Now organizing SCF variables                       ... done
                      ------------------
                      INITIAL GUESS DONE (   0.2 sec)
                      ------------------
-------------------
DFT GRID GENERATION
-------------------

General Integration Accuracy     IntAcc      ... 4.388
Radial Grid Type                 RadialGrid  ... OptM3 with GC (2021)
Angular Grid (max. ang.)         AngularGrid ... 4 (Lebedev-302)
Angular grid pruning method      GridPruning ... 4 (adaptive)
Weight generation scheme         WeightScheme... Becke
Basis function cutoff            BFCut       ... 1.0000e-11
Integration weight cutoff        WCut        ... 1.0000e-14
Angular grids for H and He will be reduced by one unit
Partially contracted basis set               ... off
Rotationally invariant grid construction     ... off

Total number of grid points                  ...    68633
Total number of batches                      ...     1080
Average number of points per batch           ...       63
Average number of grid points per atom       ...     4037
Time for grid setup =    0.354 sec

--------------------
COSX GRID GENERATION
--------------------

GRIDX 1
-------
General Integration Accuracy     IntAcc      ... 3.816
Radial Grid Type                 RadialGrid  ... OptM3 with GC (2021)
Angular Grid (max. ang.)         AngularGrid ... 1 (Lebedev-50)
Angular grid pruning method      GridPruning ... 4 (adaptive)
Weight generation scheme         WeightScheme... Becke
Basis function cutoff            BFCut       ... 1.0000e-11
Integration weight cutoff        WCut        ... 1.0000e-14
Angular grids for H and He will be reduced by one unit
Partially contracted basis set               ... on
Rotationally invariant grid construction     ... off

Total number of grid points                  ...     8843
Total number of batches                      ...      151
Average number of points per batch           ...       58
Average number of grid points per atom       ...      520
UseSFitting                                  ... on

GRIDX 2
-------
General Integration Accuracy     IntAcc      ... 4.020
Radial Grid Type                 RadialGrid  ... OptM3 with GC (2021)
Angular Grid (max. ang.)         AngularGrid ... 2 (Lebedev-110)
Angular grid pruning method      GridPruning ... 4 (adaptive)
Weight generation scheme         WeightScheme... Becke
Basis function cutoff            BFCut       ... 1.0000e-11
Integration weight cutoff        WCut        ... 1.0000e-14
Angular grids for H and He will be reduced by one unit
Partially contracted basis set               ... on
Rotationally invariant grid construction     ... off

Total number of grid points                  ...    18144
Total number of batches                      ...      294
Average number of points per batch           ...       61
Average number of grid points per atom       ...     1067
UseSFitting                                  ... on

GRIDX 3
-------
General Integration Accuracy     IntAcc      ... 4.338
Radial Grid Type                 RadialGrid  ... OptM3 with GC (2021)
Angular Grid (max. ang.)         AngularGrid ... 3 (Lebedev-194)
Angular grid pruning method      GridPruning ... 4 (adaptive)
Weight generation scheme         WeightScheme... Becke
Basis function cutoff            BFCut       ... 1.0000e-11
Integration weight cutoff        WCut        ... 1.0000e-14
Angular grids for H and He will be reduced by one unit
Partially contracted basis set               ... on
Rotationally invariant grid construction     ... off

Total number of grid points                  ...    39497
Total number of batches                      ...      626
Average number of points per batch           ...       63
Average number of grid points per atom       ...     2323
UseSFitting                                  ... on

Time for X-Grid setup             =    0.334 sec

--------------
SCF ITERATIONS
--------------
ITER       Energy         Delta-E        Max-DP      RMS-DP      [F,P]     Damp
               ***  Starting incremental Fock matrix formation  ***
  0   -213.8143960772   0.000000000000 0.03353433  0.00095345  0.1551456 0.8500
  1   -213.8429491358  -0.028553058614 0.03013266  0.00090904  0.1239099 0.8500
                               ***Turning on DIIS***
  2   -213.8645064261  -0.021557290219 0.02344336  0.00074382  0.0941120 0.8500
  3   -213.8804089161  -0.015902490040 0.01430760  0.00052495  0.0704456 0.8500
  4   -213.8926348696  -0.012225953511 0.00939504  0.00039957  0.0556768 0.8500
  5   -213.9022438171  -0.009608947507 0.00721080  0.00032685  0.0459146 0.8500
  6   -213.9100499018  -0.007806084653 0.00593192  0.00027555  0.0386148 0.8500
  7   -213.9165116966  -0.006461794834 0.00508590  0.00023750  0.0327342 0.8500
  8   -213.9219208777  -0.005409181059 0.02903686  0.00136329  0.0276966 0.0000
  9   -213.9510506648  -0.029129787096 0.00123190  0.00004349  0.0013094 0.0000
                      *** Initiating the SOSCF procedure ***
                           *** Shutting down DIIS ***
                      *** Re-Reading the Fockian *** 
                      *** Removing any level shift *** 
ITER      Energy       Delta-E        Grad      Rot      Max-DP    RMS-DP
 10   -213.95106161  -0.0000109484  0.000131  0.000131  0.000687  0.000020
               *** Restarting incremental Fock matrix formation ***
 11   -213.95106497  -0.0000033607  0.000061  0.000075  0.000321  0.000013
 12   -213.95106517  -0.0000001999  0.000035  0.000048  0.000181  0.000007
 13   -213.95106520  -0.0000000243  0.000018  0.000014  0.000043  0.000002
                 **** Energy Check signals convergence ****
              ***Rediagonalizing the Fockian in SOSCF/NRSCF***

               *****************************************************
               *                     SUCCESS                       *
               *           SCF CONVERGED AFTER  14 CYCLES          *
               *****************************************************

Old exchange energy                            =    -10.466890273 Eh
New exchange energy                            =    -10.466836199 Eh
Exchange energy change after final integration =      0.000054075 Eh
Total energy after final integration           =   -213.951011131 Eh
Final COS-X integration done in                =     3.448 sec

----------------
TOTAL SCF ENERGY
----------------

Total Energy       :         -213.95101113 Eh           -5821.90299 eV

Components:
Nuclear Repulsion  :          198.71639499 Eh            5407.34801 eV
Electronic Energy  :         -412.66740612 Eh          -11229.25100 eV
One Electron Energy:         -671.56011683 Eh          -18274.07982 eV
Two Electron Energy:          258.89271071 Eh            7044.82881 eV
Max COSX asymmetry :            0.00000465 Eh               0.00013 eV

Virial components:
Potential Energy   :         -425.28324624 Eh          -11572.54547 eV
Kinetic Energy     :          211.33223511 Eh            5750.64247 eV
Virial Ratio       :            2.01239175


DFT components:
N(Alpha)           :       21.000042359356 electrons
N(Beta)            :       21.000042359356 electrons
N(Total)           :       42.000084718713 electrons
E(XC)              :      -22.314317439299 Eh       
DFET-embed. en.    :        0.000000000000 Eh       

---------------
SCF CONVERGENCE
---------------

  Last Energy change         ...   -7.0293e-09  Tolerance :   1.0000e-08
  Last MAX-Density change    ...    3.5527e-15  Tolerance :   1.0000e-07
  Last RMS-Density change    ...    5.1936e-17  Tolerance :   5.0000e-09
  Last Orbital Gradient      ...    8.4093e-07  Tolerance :   1.0000e-05
  Last Orbital Rotation      ...    9.7628e-07  Tolerance :   1.0000e-05

             **** THE GBW FILE WAS UPDATED (butylamine_prot_aq_6.gbw) ****
             **** DENSITY butylamine_prot_aq_6.scfp WAS UPDATED ****
             **** ENERGY FILE WAS UPDATED (butylamine_prot_aq_6.en.tmp) ****
             **** THE GBW FILE WAS UPDATED (butylamine_prot_aq_6.gbw) ****
             **** DENSITY butylamine_prot_aq_6.scfp WAS UPDATED ****
----------------
ORBITAL ENERGIES
----------------

  NO   OCC          E(Eh)            E(eV) 
   0   2.0000     -14.743065      -401.1792 
   1   2.0000     -10.515209      -286.1334 
   2   2.0000     -10.441565      -284.1294 
   3   2.0000     -10.419226      -283.5216 
   4   2.0000     -10.385259      -282.5973 
   5   2.0000      -1.332151       -36.2497 
   6   2.0000      -1.099276       -29.9128 
   7   2.0000      -1.022331       -27.8190 
   8   2.0000      -0.941523       -25.6201 
   9   2.0000      -0.911035       -24.7905 
  10   2.0000      -0.896084       -24.3837 
  11   2.0000      -0.856255       -23.2999 
  12   2.0000      -0.800753       -21.7896 
  13   2.0000      -0.743518       -20.2321 
  14   2.0000      -0.710892       -19.3444 
  15   2.0000      -0.691403       -18.8140 
  16   2.0000      -0.648313       -17.6415 
  17   2.0000      -0.647015       -17.6062 
  18   2.0000      -0.592821       -16.1315 
  19   2.0000      -0.582112       -15.8401 
  20   2.0000      -0.578645       -15.7457 
  21   0.0000      -0.082179        -2.2362 
  22   0.0000      -0.025831        -0.7029 
  23   0.0000      -0.018341        -0.4991 
  24   0.0000       0.002799         0.0762 
  25   0.0000       0.037379         1.0171 
  26   0.0000       0.042104         1.1457 
  27   0.0000       0.052216         1.4209 
  28   0.0000       0.062228         1.6933 
  29   0.0000       0.079782         2.1710 
  30   0.0000       0.092919         2.5285 
  31   0.0000       0.112358         3.0574 
  32   0.0000       0.122148         3.3238 
  33   0.0000       0.129646         3.5278 
  34   0.0000       0.159668         4.3448 
  35   0.0000       0.184966         5.0332 
  36   0.0000       0.215252         5.8573 
  37   0.0000       0.313134         8.5208 
  38   0.0000       0.326884         8.8950 
  39   0.0000       0.334876         9.1124 
  40   0.0000       0.359733         9.7888 
  41   0.0000       0.381851        10.3907 
  42   0.0000       0.433263        11.7897 
  43   0.0000       0.439991        11.9728 
  44   0.0000       0.462119        12.5749 
  45   0.0000       0.500792        13.6272 
  46   0.0000       0.520744        14.1702 
  47   0.0000       0.536014        14.5857 
  48   0.0000       0.572223        15.5710 
  49   0.0000       0.577101        15.7037 
  50   0.0000       0.587846        15.9961 
  51   0.0000       0.594536        16.1782 
  52   0.0000       0.622805        16.9474 
  53   0.0000       0.633544        17.2396 
  54   0.0000       0.637970        17.3600 
  55   0.0000       0.646500        17.5922 
  56   0.0000       0.663151        18.0453 
  57   0.0000       0.667627        18.1670 
  58   0.0000       0.674195        18.3458 
  59   0.0000       0.685427        18.6514 
  60   0.0000       0.694895        18.9091 
  61   0.0000       0.701332        19.0842 
  62   0.0000       0.742671        20.2091 
  63   0.0000       0.761778        20.7290 
  64   0.0000       0.795340        21.6423 
  65   0.0000       0.858921        23.3724 
  66   0.0000       0.908760        24.7286 
  67   0.0000       1.018499        27.7148 
  68   0.0000       1.063529        28.9401 
  69   0.0000       1.071952        29.1693 
  70   0.0000       1.143244        31.1092 
  71   0.0000       1.191930        32.4341 
  72   0.0000       1.246089        33.9078 
  73   0.0000       1.281973        34.8843 
  74   0.0000       1.312250        35.7081 
  75   0.0000       1.353372        36.8271 
  76   0.0000       1.408661        38.3316 
  77   0.0000       1.450234        39.4629 
  78   0.0000       1.502021        40.8721 
  79   0.0000       1.538184        41.8561 
  80   0.0000       1.558070        42.3972 
  81   0.0000       1.651554        44.9411 
  82   0.0000       1.665240        45.3135 
  83   0.0000       1.686687        45.8971 
  84   0.0000       1.704385        46.3787 
  85   0.0000       1.733067        47.1592 
  86   0.0000       1.746619        47.5279 
  87   0.0000       1.757542        47.8252 
  88   0.0000       1.785649        48.5900 
  89   0.0000       1.792720        48.7824 
  90   0.0000       1.800760        49.0012 
  91   0.0000       1.813341        49.3435 
  92   0.0000       1.830757        49.8174 
  93   0.0000       1.843792        50.1721 
  94   0.0000       1.846689        50.2510 
  95   0.0000       1.878161        51.1074 
  96   0.0000       1.898461        51.6597 
  97   0.0000       1.906415        51.8762 
  98   0.0000       1.919013        52.2190 
  99   0.0000       1.946851        52.9765 
 100   0.0000       2.009044        54.6689 
 101   0.0000       2.021670        55.0124 
 102   0.0000       2.067688        56.2647 
 103   0.0000       2.147915        58.4477 
 104   0.0000       2.192299        59.6555 
 105   0.0000       2.212896        60.2160 
 106   0.0000       2.259275        61.4780 
 107   0.0000       2.291869        62.3649 
 108   0.0000       2.341375        63.7121 
 109   0.0000       2.352485        64.0144 
 110   0.0000       2.400402        65.3183 
 111   0.0000       2.453323        66.7583 
 112   0.0000       2.491177        67.7884 
 113   0.0000       2.547395        69.3182 
 114   0.0000       2.581824        70.2550 
 115   0.0000       2.590488        70.4908 
 116   0.0000       2.604978        70.8851 
 117   0.0000       2.647733        72.0485 
 118   0.0000       2.717873        73.9571 
 119   0.0000       2.823182        76.8227 
 120   0.0000       2.859900        77.8218 
 121   0.0000       2.884276        78.4851 
 122   0.0000       2.896568        78.8196 
 123   0.0000       2.923196        79.5442 
 124   0.0000       2.975496        80.9674 
 125   0.0000       3.000928        81.6594 
 126   0.0000       3.012991        81.9877 
 127   0.0000       3.051321        83.0307 
 128   0.0000       3.157872        85.9301 
 129   0.0000       3.166838        86.1740 

                    ********************************
                    * MULLIKEN POPULATION ANALYSIS *
                    ********************************

-----------------------
MULLIKEN ATOMIC CHARGES
-----------------------
   0 C :   -0.045532
   1 C :   -0.116546
   2 H :    0.039182
   3 H :    0.061158
   4 H :    0.065755
   5 C :   -0.073413
   6 H :    0.017336
   7 H :    0.063049
   8 C :   -0.019172
   9 H :    0.054999
  10 H :    0.086714
  11 N :   -0.006479
  12 H :    0.108936
  13 H :    0.106592
  14 H :    0.225986
  15 H :    0.212752
  16 H :    0.218684
Sum of atomic charges:    1.0000000

--------------------------------
MULLIKEN REDUCED ORBITAL CHARGES
--------------------------------
  0 C s       :     3.021552  s :     3.021552
      pz      :     1.017536  p :     2.996003
      px      :     0.944609
      py      :     1.033858
      dz2     :     0.004407  d :     0.027977
      dxz     :     0.004809
      dyz     :     0.007412
      dx2y2   :     0.003485
      dxy     :     0.007863
  1 C s       :     3.055870  s :     3.055870
      pz      :     1.027786  p :     3.024915
      px      :     1.013366
      py      :     0.983763
      dz2     :     0.004887  d :     0.035761
      dxz     :     0.006345
      dyz     :     0.009075
      dx2y2   :     0.005936
      dxy     :     0.009518
  2 H s       :     0.936569  s :     0.936569
      pz      :     0.012315  p :     0.024249
      px      :     0.004244
      py      :     0.007690
  3 H s       :     0.914541  s :     0.914541
      pz      :     0.009318  p :     0.024301
      px      :     0.006491
      py      :     0.008492
  4 H s       :     0.910103  s :     0.910103
      pz      :     0.005131  p :     0.024142
      px      :     0.008490
      py      :     0.010521
  5 C s       :     3.065462  s :     3.065462
      pz      :     0.977667  p :     2.974161
      px      :     0.933428
      py      :     1.063066
      dz2     :     0.008077  d :     0.033790
      dxz     :     0.008095
      dyz     :     0.003010
      dx2y2   :     0.007591
      dxy     :     0.007018
  6 H s       :     0.959625  s :     0.959625
      pz      :     0.009870  p :     0.023039
      px      :     0.004865
      py      :     0.008304
  7 H s       :     0.914195  s :     0.914195
      pz      :     0.011788  p :     0.022756
      px      :     0.003961
      py      :     0.007006
  8 C s       :     3.065364  s :     3.065364
      pz      :     1.081306  p :     2.907733
      px      :     0.958824
      py      :     0.867603
      dz2     :     0.012165  d :     0.046075
      dxz     :     0.007009
      dyz     :     0.004364
      dx2y2   :     0.006022
      dxy     :     0.016515
  9 H s       :     0.921484  s :     0.921484
      pz      :     0.014853  p :     0.023517
      px      :     0.004374
      py      :     0.004290
 10 H s       :     0.889364  s :     0.889364
      pz      :     0.004646  p :     0.023922
      px      :     0.006564
      py      :     0.012712
 11 N s       :     3.302534  s :     3.302534
      pz      :     1.208440  p :     3.685900
      px      :     1.228677
      py      :     1.248782
      dz2     :     0.004219  d :     0.018045
      dxz     :     0.004381
      dyz     :     0.001389
      dx2y2   :     0.004309
      dxy     :     0.003747
 12 H s       :     0.868392  s :     0.868392
      pz      :     0.004120  p :     0.022673
      px      :     0.005559
      py      :     0.012994
 13 H s       :     0.870737  s :     0.870737
      pz      :     0.015290  p :     0.022671
      px      :     0.004447
      py      :     0.002933
 14 H s       :     0.730534  s :     0.730534
      pz      :     0.015651  p :     0.043480
      px      :     0.020514
      py      :     0.007315
 15 H s       :     0.742828  s :     0.742828
      pz      :     0.008054  p :     0.044420
      px      :     0.013945
      py      :     0.022421
 16 H s       :     0.737638  s :     0.737638
      pz      :     0.026568  p :     0.043678
      px      :     0.009459
      py      :     0.007652


                     *******************************
                     * LOEWDIN POPULATION ANALYSIS *
                     *******************************

----------------------
LOEWDIN ATOMIC CHARGES
----------------------
   0 C :   -0.047333
   1 C :   -0.051423
   2 H :    0.028012
   3 H :    0.036978
   4 H :    0.041578
   5 C :   -0.042395
   6 H :    0.012581
   7 H :    0.037965
   8 C :    0.054012
   9 H :    0.035453
  10 H :    0.056795
  11 N :    0.295287
  12 H :    0.054160
  13 H :    0.052739
  14 H :    0.148392
  15 H :    0.140985
  16 H :    0.146214

-------------------------------
LOEWDIN REDUCED ORBITAL CHARGES
-------------------------------
  0 C s       :     2.826912  s :     2.826912
      pz      :     1.064470  p :     3.148120
      px      :     1.012584
      py      :     1.071066
      dz2     :     0.011249  d :     0.072302
      dxz     :     0.012368
      dyz     :     0.019125
      dx2y2   :     0.009255
      dxy     :     0.020305
  1 C s       :     2.831851  s :     2.831851
      pz      :     1.065437  p :     3.132007
      px      :     1.037089
      py      :     1.029482
      dz2     :     0.012037  d :     0.087564
      dxz     :     0.014386
      dyz     :     0.023584
      dx2y2   :     0.012928
      dxy     :     0.024629
  2 H s       :     0.905078  s :     0.905078
      pz      :     0.033104  p :     0.066910
      px      :     0.012843
      py      :     0.020963
  3 H s       :     0.895824  s :     0.895824
      pz      :     0.025303  p :     0.067198
      px      :     0.018774
      py      :     0.023121
  4 H s       :     0.891243  s :     0.891243
      pz      :     0.013950  p :     0.067179
      px      :     0.024433
      py      :     0.028796
  5 C s       :     2.834707  s :     2.834707
      pz      :     1.039896  p :     3.122307
      px      :     1.006226
      py      :     1.076185
      dz2     :     0.021092  d :     0.085381
      dxz     :     0.021134
      dyz     :     0.005762
      dx2y2   :     0.017936
      dxy     :     0.019457
  6 H s       :     0.919961  s :     0.919961
      pz      :     0.026936  p :     0.067457
      px      :     0.016440
      py      :     0.024081
  7 H s       :     0.893780  s :     0.893780
      pz      :     0.032217  p :     0.068255
      px      :     0.015390
      py      :     0.020647
  8 C s       :     2.840883  s :     2.840883
      pz      :     1.082803  p :     2.999613
      px      :     0.993607
      py      :     0.923203
      dz2     :     0.028227  d :     0.105492
      dxz     :     0.017328
      dyz     :     0.008419
      dx2y2   :     0.013620
      dxy     :     0.037898
  9 H s       :     0.895537  s :     0.895537
      pz      :     0.040218  p :     0.069009
      px      :     0.014493
      py      :     0.014298
 10 H s       :     0.874006  s :     0.874006
      pz      :     0.013298  p :     0.069199
      px      :     0.019133
      py      :     0.036769
 11 N s       :     2.996146  s :     2.996146
      pz      :     1.212546  p :     3.662845
      px      :     1.217079
      py      :     1.233220
      dz2     :     0.011355  d :     0.045722
      dxz     :     0.011449
      dyz     :     0.002846
      dx2y2   :     0.009339
      dxy     :     0.010734
 12 H s       :     0.876619  s :     0.876619
      pz      :     0.013602  p :     0.069221
      px      :     0.018953
      py      :     0.036666
 13 H s       :     0.878290  s :     0.878290
      pz      :     0.043970  p :     0.068972
      px      :     0.015266
      py      :     0.009736
 14 H s       :     0.741307  s :     0.741307
      pz      :     0.037843  p :     0.110301
      px      :     0.052984
      py      :     0.019473
 15 H s       :     0.747832  s :     0.747832
      pz      :     0.017717  p :     0.111183
      px      :     0.033940
      py      :     0.059526
 16 H s       :     0.744037  s :     0.744037
      pz      :     0.066813  p :     0.109749
      px      :     0.023210
      py      :     0.019727


                      *****************************
                      * MAYER POPULATION ANALYSIS *
                      *****************************

  NA   - Mulliken gross atomic population
  ZA   - Total nuclear charge
  QA   - Mulliken gross atomic charge
  VA   - Mayer's total valence
  BVA  - Mayer's bonded valence
  FA   - Mayer's free valence

  ATOM       NA         ZA         QA         VA         BVA        FA
  0 C      6.0455     6.0000    -0.0455     4.0389     4.0389     0.0000
  1 C      6.1165     6.0000    -0.1165     4.0447     4.0447     0.0000
  2 H      0.9608     1.0000     0.0392     0.9888     0.9888     0.0000
  3 H      0.9388     1.0000     0.0612     0.9882     0.9882    -0.0000
  4 H      0.9342     1.0000     0.0658     0.9901     0.9901     0.0000
  5 C      6.0734     6.0000    -0.0734     3.9720     3.9720    -0.0000
  6 H      0.9827     1.0000     0.0173     0.9837     0.9837     0.0000
  7 H      0.9370     1.0000     0.0630     0.9736     0.9736    -0.0000
  8 C      6.0192     6.0000    -0.0192     3.9647     3.9647     0.0000
  9 H      0.9450     1.0000     0.0550     0.9848     0.9848    -0.0000
 10 H      0.9133     1.0000     0.0867     0.9977     0.9977    -0.0000
 11 N      7.0065     7.0000    -0.0065     3.7065     3.7065     0.0000
 12 H      0.8911     1.0000     0.1089     0.9777     0.9777    -0.0000
 13 H      0.8934     1.0000     0.1066     0.9787     0.9787    -0.0000
 14 H      0.7740     1.0000     0.2260     0.9538     0.9538     0.0000
 15 H      0.7872     1.0000     0.2128     0.9757     0.9757     0.0000
 16 H      0.7813     1.0000     0.2187     0.9630     0.9630     0.0000

  Mayer bond orders larger than 0.100000
B(  0-C ,  1-C ) :   1.0932 B(  0-C ,  2-H ) :   0.9762 B(  0-C ,  3-H ) :   0.9773 
B(  0-C ,  4-H ) :   0.9725 B(  1-C ,  5-C ) :   1.0013 B(  1-C ,  6-H ) :   0.9596 
B(  1-C ,  7-H ) :   0.9519 B(  5-C ,  8-C ) :   1.0721 B(  5-C ,  9-H ) :   0.9557 
B(  5-C , 10-H ) :   0.9491 B(  8-C , 11-N ) :   0.9155 B(  8-C , 12-H ) :   0.9554 
B(  8-C , 13-H ) :   0.9529 B( 11-N , 14-H ) :   0.9301 B( 11-N , 15-H ) :   0.9306 
B( 11-N , 16-H ) :   0.9320 

-------
TIMINGS
-------

Total SCF time: 0 days 0 hours 0 min 25 sec 

Total time                  ....      25.559 sec
Sum of individual times     ....      25.278 sec  ( 98.9%)

Fock matrix formation       ....      24.237 sec  ( 94.8%)
  Split-RI-J                ....       1.077 sec  (  4.4% of F)
  Chain of spheres X        ....      18.626 sec  ( 76.8% of F)
  XC integration            ....       4.082 sec  ( 16.8% of F)
    Basis function eval.    ....       1.213 sec  ( 29.7% of XC)
    Density eval.           ....       0.623 sec  ( 15.3% of XC)
    XC-Functional eval.     ....       0.549 sec  ( 13.4% of XC)
    XC-Potential eval.      ....       0.707 sec  ( 17.3% of XC)
Diagonalization             ....       0.049 sec  (  0.2%)
Density matrix formation    ....       0.004 sec  (  0.0%)
Population analysis         ....       0.012 sec  (  0.0%)
Initial guess               ....       0.093 sec  (  0.4%)
Orbital Transformation      ....       0.000 sec  (  0.0%)
Orbital Orthonormalization  ....       0.000 sec  (  0.0%)
DIIS solution               ....       0.041 sec  (  0.2%)
SOSCF solution              ....       0.084 sec  (  0.3%)
Grid generation             ....       0.759 sec  (  3.0%)

Maximum memory used throughout the entire SCF-calculation: 50.3 MB


-------------------------------------------------------------------------------
                          DFT DISPERSION CORRECTION                            
                                                                               
                                 DFTD4 V2.5                                    
-------------------------------------------------------------------------------
The WB97X functional is recognized
Active option DFTDOPT                   ...         5   

Starting D4
-------------------------   ----------------
Dispersion correction           -0.001308566
-------------------------   ----------------


-------------------------   --------------------
FINAL SINGLE POINT ENERGY      -213.952319696424
-------------------------   --------------------



           ************************************************************
           *        Program running with 4 parallel MPI-processes     *
           *              working on a common directory               *
           ************************************************************
------------------------------------------------------------------------------
                         ORCA SCF GRADIENT CALCULATION
------------------------------------------------------------------------------

 ... reading COSX grid (gridx3)
Gradient of the Kohn-Sham DFT energy:
Kohn-Sham wavefunction type      ... RKS
Hartree-Fock exchange scaling    ...    0.158
Number of operators              ...    1
Number of atoms                  ...   17
Basis set dimensions             ...  130
Integral neglect threshold       ... 2.5e-11
Integral primitive cutoff        ... 2.5e-12
SHARK Integral package           ... ON

Nuc. rep. gradient       (SHARK) ... done (  0.0 sec)
HCore & Overlap gradient (SHARK) ... done (  0.0 sec)
RI-J gradient            (SHARK) ... done (  0.2 sec)
COSX-gradient                    ... done (  3.8 sec)
Exchange-correlation gradient    ... done
Dispersion correction            ... Starting D4
Starting D4
Starting D4
Starting D4


------------------- 
Dispersion Gradient 
------------------- 
   1  :   -0.000026487    0.000001363   -0.000003499
   2  :   -0.000008582   -0.000005973    0.000001456
   3  :   -0.000007891   -0.000000841   -0.000000368
   4  :   -0.000006637   -0.000001285   -0.000000574
   5  :   -0.000006883   -0.000000567   -0.000000459
   6  :   -0.000000519    0.000006387    0.000004845
   7  :   -0.000003860    0.000001320    0.000000908
   8  :   -0.000005489    0.000000126    0.000000658
   9  :    0.000009418    0.000008273   -0.000004356
  10  :    0.000001786    0.000000090    0.000000023
  11  :   -0.000001063    0.000000367    0.000000217
  12  :    0.000020984   -0.000001261   -0.000002140
  13  :    0.000005621    0.000000002    0.000000323
  14  :    0.000005598    0.000000053    0.000001374
  15  :    0.000014133   -0.000001817   -0.000006438
  16  :    0.000002152   -0.000006409    0.000000154
  17  :    0.000007719    0.000000172    0.000007875

  |G| =    0.000044785

done

------------------
CARTESIAN GRADIENT
------------------

   1   C   :   -0.006498558    0.006006595   -0.002272234
   2   C   :    0.007326155   -0.012683777   -0.001253860
   3   H   :   -0.000327606   -0.005044471    0.007851622
   4   H   :    0.003810294   -0.005221047   -0.005556956
   5   H   :    0.005504890    0.005058012    0.001952951
   6   C   :   -0.001560982    0.013201910    0.007730695
   7   H   :   -0.005061235    0.008881200    0.005338745
   8   H   :   -0.000951039    0.005785642   -0.005038590
   9   C   :    0.015449261   -0.009485847   -0.009645766
  10   H   :   -0.003242961   -0.003163432   -0.008907016
  11   H   :    0.000401025   -0.008208339    0.000240746
  12   N   :   -0.001031950   -0.001906337    0.002985166
  13   H   :   -0.007884232   -0.002669023    0.000808177
  14   H   :   -0.002477330    0.002972175    0.006960808
  15   H   :    0.000217246    0.003187308   -0.003076330
  16   H   :   -0.002793758    0.000325600   -0.000638300
  17   H   :   -0.001053534    0.002899583    0.002425926

Difference to translation invariance:
           :   -0.0001743129   -0.0000642484   -0.0000942148

Difference to rotation invariance:
           :   -0.0006399021   -0.0003769407   -0.0005331301

Norm of the cartesian gradient     ...    0.0415683407
RMS gradient                       ...    0.0058207320
MAX gradient                       ...    0.0154492611

-------
TIMINGS
-------

Total SCF gradient time            ...        5.528 sec

One electron gradient       ....       0.043 sec  (  0.8%)
RI-J Coulomb gradient       ....       0.237 sec  (  4.3%)
COSX gradient               ....       3.807 sec  ( 68.9%)
XC gradient                 ....       1.090 sec  ( 19.7%)

Maximum memory used throughout the entire SCFGRAD-calculation: 38.7 MB
------------------------------------------------------------------------------
                         ORCA GEOMETRY RELAXATION STEP
------------------------------------------------------------------------------

Reading the OPT-File                    .... done
Getting information on internals        .... done
Copying old internal coords+grads       .... done
Making the new internal coordinates     .... (new redundants).... done
Validating the new internal coordinates .... (new redundants).... done
Calculating the B-matrix                .... done
Calculating the G,G- and P matrices     .... done
Transforming gradient to internals      .... done
Projecting the internal gradient        .... done
Number of atoms                         ....  17
Number of internal coordinates          ....  82
Current Energy                          ....  -213.952319696 Eh
Current gradient norm                   ....     0.041568341 Eh/bohr
Maximum allowed component of the step   ....  0.300
Current trust radius                    ....  0.300
Evaluating the initial hessian          ....  (Almloef) done
Projecting the Hessian                  .... done
Forming the augmented Hessian           .... done
Diagonalizing the augmented Hessian     .... done
Last element of RFO vector              ....  0.987060697
Lowest eigenvalues of augmented Hessian:
 -0.003188873  0.010389907  0.011457656  0.011826315  0.013568571
Length of the computed step             ....  0.162449041
The final length of the internal step   ....  0.162449041
Converting the step to cartesian space:
 Initial RMS(Int)=    0.0179394955
Transforming coordinates:
 Iter   0:  RMS(Cart)=    0.0416493711 RMS(Int)=    0.0179381137
 Iter   1:  RMS(Cart)=    0.0007809674 RMS(Int)=    0.0004438264
 Iter   2:  RMS(Cart)=    0.0000262131 RMS(Int)=    0.0000126269
 Iter   3:  RMS(Cart)=    0.0000010807 RMS(Int)=    0.0000006108
 Iter   4:  RMS(Cart)=    0.0000000348 RMS(Int)=    0.0000000199
done
Storing new coordinates                 .... done

                                .--------------------.
          ----------------------|Geometry convergence|-------------------------
          Item                value                   Tolerance       Converged
          ---------------------------------------------------------------------
          RMS gradient        0.0032969256            0.0001000000      NO
          MAX gradient        0.0110852199            0.0003000000      NO
          RMS step            0.0179394955            0.0020000000      NO
          MAX step            0.0551616661            0.0040000000      NO
          ........................................................
          Max(Bonds)      0.0162      Max(Angles)    1.34
          Max(Dihed)        3.16      Max(Improp)    0.00
          ---------------------------------------------------------------------

The optimization has not yet converged - more geometry cycles are needed


    ---------------------------------------------------------------------------
                         Redundant Internal Coordinates
                            (Angstroem and degrees)

        Definition                    Value    dE/dq     Step     New-Value
    ----------------------------------------------------------------------------
     1. B(C   1,C   0)                1.5260 -0.002634  0.0036    1.5296   
     2. B(H   2,C   0)                1.0879 -0.009300  0.0134    1.1013   
     3. B(H   3,C   0)                1.0880 -0.008518  0.0123    1.1003   
     4. B(H   4,C   0)                1.0881 -0.007654  0.0111    1.0992   
     5. B(C   5,C   1)                1.5405 -0.004750  0.0069    1.5474   
     6. B(H   6,C   1)                1.0913 -0.011085  0.0162    1.1076   
     7. B(H   7,C   1)                1.0904 -0.007073  0.0103    1.1007   
     8. B(C   8,C   5)                1.5236  0.000593 -0.0008    1.5228   
     9. B(H   9,C   5)                1.0901 -0.009367  0.0136    1.1037   
    10. B(H  10,C   5)                1.0893 -0.007409  0.0108    1.1001   
    11. B(N  11,C   8)                1.4918 -0.005793  0.0079    1.4997   
    12. B(H  12,C   8)                1.0900 -0.006230  0.0091    1.0991   
    13. B(H  13,C   8)                1.0903 -0.006324  0.0092    1.0996   
    14. B(H  14,N  11)                1.0297  0.001877 -0.0024    1.0272   
    15. B(H  15,N  11)                1.0311  0.001167 -0.0015    1.0296   
    16. B(H  16,N  11)                1.0307  0.002276 -0.0030    1.0278   
    17. A(H   3,C   0,H   4)          107.89  0.000578   -0.10    107.79   
    18. A(C   1,C   0,H   4)          110.69 -0.001404    0.28    110.96   
    19. A(C   1,C   0,H   2)          110.90 -0.001039    0.19    111.09   
    20. A(H   2,C   0,H   4)          108.10  0.001109   -0.16    107.94   
    21. A(H   2,C   0,H   3)          108.31  0.000615   -0.16    108.15   
    22. A(C   1,C   0,H   3)          110.84  0.000246   -0.06    110.78   
    23. A(C   0,C   1,C   5)          111.83 -0.003055    0.84    112.67   
    24. A(H   6,C   1,H   7)          107.75  0.001032   -0.98    106.77   
    25. A(C   5,C   1,H   7)          110.40  0.001323   -0.22    110.18   
    26. A(C   0,C   1,H   7)          108.32 -0.000426    0.39    108.71   
    27. A(C   5,C   1,H   6)          110.92  0.001030   -0.24    110.68   
    28. A(C   0,C   1,H   6)          107.46  0.000176    0.17    107.63   
    29. A(C   1,C   5,H   9)          110.35 -0.000645    0.40    110.75   
    30. A(C   1,C   5,C   8)          113.28 -0.000931    0.35    113.62   
    31. A(C   8,C   5,H   9)          109.59  0.000612   -0.19    109.40   
    32. A(H   9,C   5,H  10)          106.65  0.001062   -0.70    105.94   
    33. A(C   8,C   5,H  10)          107.89  0.002572   -0.70    107.19   
    34. A(C   1,C   5,H  10)          108.84 -0.002502    0.77    109.61   
    35. A(H  12,C   8,H  13)          108.83  0.000181   -0.05    108.79   
    36. A(N  11,C   8,H  13)          108.96  0.003490   -1.34    107.62   
    37. A(C   5,C   8,H  13)          109.96 -0.002548    0.73    110.70   
    38. A(N  11,C   8,H  12)          108.56  0.002491   -0.71    107.85   
    39. A(C   5,C   8,H  12)          110.05 -0.003358    1.32    111.36   
    40. A(C   5,C   8,N  11)          110.43 -0.000122    0.01    110.44   
    41. A(H  15,N  11,H  16)          108.14  0.002659   -0.52    107.62   
    42. A(H  14,N  11,H  16)          108.93  0.003574   -0.60    108.34   
    43. A(C   8,N  11,H  16)          109.93 -0.002994    0.56    110.48   
    44. A(H  14,N  11,H  15)          109.03  0.003344   -0.63    108.40   
    45. A(C   8,N  11,H  15)          109.76 -0.002018    0.35    110.11   
    46. A(C   8,N  11,H  14)          110.99 -0.004297    0.79    111.79   
    47. D(H   6,C   1,C   0,H   4)     57.41  0.000453   -0.32     57.09   
    48. D(H   7,C   1,C   0,H   4)    -58.75 -0.000629    0.54    -58.21   
    49. D(H   7,C   1,C   0,H   3)     60.93 -0.000662    0.56     61.49   
    50. D(H   6,C   1,C   0,H   2)    -62.57  0.000669   -0.42    -62.99   
    51. D(C   5,C   1,C   0,H   4)    179.36 -0.000044    0.01    179.38   
    52. D(H   6,C   1,C   0,H   3)    177.09  0.000421   -0.30    176.79   
    53. D(C   5,C   1,C   0,H   3)    -60.96 -0.000077    0.04    -60.92   
    54. D(C   5,C   1,C   0,H   2)     59.39  0.000171   -0.09     59.30   
    55. D(H   7,C   1,C   0,H   2)   -178.72 -0.000414    0.43   -178.29   
    56. D(H   9,C   5,C   1,H   6)   -118.76 -0.001573    1.40   -117.36   
    57. D(C   8,C   5,C   1,H   7)    123.90  0.000868    0.19    124.08   
    58. D(C   8,C   5,C   1,H   6)      4.53 -0.001938    1.70      6.23   
    59. D(C   8,C   5,C   1,C   0)   -115.42 -0.000812    1.09   -114.33   
    60. D(H   9,C   5,C   1,H   7)      0.61  0.001233   -0.12      0.49   
    61. D(H  10,C   5,C   1,H   7)   -116.10  0.001785    0.05   -116.05   
    62. D(H  10,C   5,C   1,H   6)    124.54 -0.001021    1.57    126.11   
    63. D(H  10,C   5,C   1,C   0)      4.59  0.000105    0.95      5.54   
    64. D(H   9,C   5,C   1,C   0)    121.29 -0.000447    0.78    122.08   
    65. D(H  13,C   8,C   5,H   9)    172.56  0.000147    1.93    174.49   
    66. D(H  13,C   8,C   5,C   1)     48.85  0.001191    1.31     50.16   
    67. D(H  12,C   8,C   5,H  10)     48.18 -0.000343    1.84     50.02   
    68. D(H  12,C   8,C   5,H   9)    -67.56 -0.003344    3.16    -64.40   
    69. D(H  12,C   8,C   5,C   1)    168.73 -0.002299    2.54    171.27   
    70. D(N  11,C   8,C   5,H  10)    168.02  0.000526    1.81    169.83   
    71. D(N  11,C   8,C   5,H   9)     52.27 -0.002474    3.13     55.40   
    72. D(H  13,C   8,C   5,H  10)    -71.70  0.003148    0.61    -71.08   
    73. D(N  11,C   8,C   5,C   1)    -71.43 -0.001430    2.50    -68.93   
    74. D(H  15,N  11,C   8,C   5)     56.70  0.000604   -0.46     56.25   
    75. D(H  14,N  11,C   8,H  13)     56.41  0.001681   -0.55     55.86   
    76. D(H  14,N  11,C   8,H  12)    -61.98 -0.001941    0.67    -61.31   
    77. D(H  14,N  11,C   8,C   5)    177.29  0.000688   -0.50    176.79   
    78. D(H  16,N  11,C   8,H  13)    176.99  0.001396   -0.42    176.57   
    79. D(H  16,N  11,C   8,H  12)     58.60 -0.002226    0.81     59.41   
    80. D(H  16,N  11,C   8,C   5)    -62.13  0.000403   -0.37    -62.49   
    81. D(H  15,N  11,C   8,H  13)    -64.18  0.001597   -0.51    -64.69   
    82. D(H  15,N  11,C   8,H  12)    177.43 -0.002025    0.72    178.15   
    ----------------------------------------------------------------------------

         *************************************************************
         *                GEOMETRY OPTIMIZATION CYCLE   2            *
         *************************************************************
---------------------------------
CARTESIAN COORDINATES (ANGSTROEM)
---------------------------------
  C     -2.386041   -0.021371   -0.335112
  C     -1.052977   -0.519178    0.226079
  H     -2.237619    0.536108   -1.273278
  H     -2.887897    0.644081    0.383208
  H     -3.063066   -0.861668   -0.544206
  C     -0.062540    0.632710    0.520624
  H     -0.622541   -1.226557   -0.509489
  H     -1.249017   -1.095105    1.143427
  C      1.178861    0.610561   -0.361096
  H      0.241274    0.625380    1.581691
  H     -0.561047    1.599439    0.355803
  N      2.045926   -0.563221   -0.015537
  H      1.778622    1.522306   -0.230908
  H      0.900985    0.518460   -1.420973
  H      2.863606   -0.628261   -0.633873
  H      1.507386   -1.436998   -0.096060
  H      2.378859   -0.491235    0.954126

----------------------------
CARTESIAN COORDINATES (A.U.)
----------------------------
  NO LB      ZA    FRAG     MASS         X           Y           Z
   0 C     6.0000    0    12.011   -4.508963   -0.040385   -0.633271
   1 C     6.0000    0    12.011   -1.989839   -0.981103    0.427228
   2 H     1.0000    0     1.008   -4.228486    1.013098   -2.406146
   3 H     1.0000    0     1.008   -5.457335    1.217138    0.724159
   4 H     1.0000    0     1.008   -5.788356   -1.628316   -1.028400
   5 C     6.0000    0    12.011   -0.118183    1.195648    0.983837
   6 H     1.0000    0     1.008   -1.176431   -2.317857   -0.962795
   7 H     1.0000    0     1.008   -2.360300   -2.069448    2.160763
   8 C     6.0000    0    12.011    2.227725    1.153793   -0.682373
   9 H     1.0000    0     1.008    0.455942    1.181798    2.988963
  10 H     1.0000    0     1.008   -1.060226    3.022501    0.672370
  11 N     7.0000    0    14.007    3.866239   -1.064333   -0.029361
  12 H     1.0000    0     1.008    3.361109    2.876741   -0.436354
  13 H     1.0000    0     1.008    1.702614    0.979747   -2.685250
  14 H     1.0000    0     1.008    5.411432   -1.187241   -1.197847
  15 H     1.0000    0     1.008    2.848547   -2.715532   -0.181528
  16 H     1.0000    0     1.008    4.495392   -0.928299    1.803037

--------------------------------
INTERNAL COORDINATES (ANGSTROEM)
--------------------------------
 C      0   0   0     0.000000000000     0.00000000     0.00000000
 C      1   0   0     1.529642227535     0.00000000     0.00000000
 H      1   2   0     1.101347244450   111.08820118     0.00000000
 H      1   2   3     1.100305222700   110.78131628   239.77666133
 H      1   2   3     1.099173937963   110.96402093   120.07798452
 C      2   1   3     1.547439223065   112.66705246    59.29935201
 H      2   1   3     1.107574946603   107.63086339   297.00755071
 H      2   1   3     1.100749736509   108.71226913   181.71200328
 C      6   2   1     1.522825698346   113.62378444   245.66988174
 H      6   2   1     1.103729997885   110.74586244   122.07460278
 H      6   2   1     1.100109253522   109.60777703     5.54553423
 N      9   6   2     1.499658505587   110.44404811   291.07328324
 H      9   6   2     1.099063737012   111.35854482   171.27183672
 H      9   6   2     1.099562150559   110.68996943    50.15522516
 H     12   9   6     1.027215442473   111.78281259   176.79179390
 H     12   9   6     1.029560145812   110.10960040    56.24736291
 H     12   9   6     1.027751737559   110.47969982   297.50804680

---------------------------
INTERNAL COORDINATES (A.U.)
---------------------------
 C      0   0   0     0.000000000000     0.00000000     0.00000000
 C      1   0   0     2.890604892922     0.00000000     0.00000000
 H      1   2   0     2.081244670360   111.08820118     0.00000000
[...]
     29       0.017109  -0.010034  -0.000142   0.050881  -0.022944  -0.717828
     30      -0.003465  -0.019457  -0.009374   0.014539   0.003940   0.252566
     31      -0.018516  -0.003824  -0.007083  -0.027074  -0.005033  -0.485909
     32       0.100378  -0.021220   0.023854  -0.004413  -0.000054  -0.046277
     33      -0.046391   0.029402  -0.029854  -0.000212   0.000250   0.000527
     34       0.077144   0.003640  -0.022356  -0.000177   0.000197  -0.000311
     35       0.021570   0.034141   0.028693  -0.000431   0.000058   0.000133
     36      -0.105065  -0.019593   0.023093  -0.000639  -0.005625   0.019891
     37       0.133221   0.036909  -0.043468   0.001040  -0.005340   0.024253
     38      -0.131680   0.014484  -0.005047   0.001123  -0.003329   0.011824
     39       0.060433   0.029222   0.013554  -0.001243   0.009615   0.011949
     40       0.208540  -0.053028  -0.028450   0.001465  -0.005933  -0.008147
     41       0.052044  -0.009399  -0.005432  -0.002401   0.017878   0.021518
     42       0.080996  -0.486401   0.155833   0.002526   0.000280  -0.000782
     43      -0.443503  -0.221999  -0.314091   0.002819  -0.000016   0.000416
     44       0.064442  -0.455693   0.149993  -0.000534  -0.000069  -0.000380
     45       0.375293   0.264600  -0.159554   0.000875  -0.001443  -0.000209
     46      -0.287236  -0.044118   0.290880   0.004788  -0.004520  -0.000961
     47      -0.058981  -0.456261  -0.511070   0.008766   0.000524  -0.000310
     48       0.145962  -0.303604   0.508041  -0.001027  -0.001118  -0.005667
     49      -0.361694   0.186580   0.447709  -0.002058   0.000233   0.003673
     50      -0.247426   0.291666  -0.122042   0.000433  -0.000697  -0.002668
                 42         43         44         45         46         47    
      0       0.007210  -0.043302  -0.016864   0.057841  -0.038008  -0.002131
      1      -0.003851   0.019992   0.008760  -0.028959  -0.085321   0.000494
      2      -0.002278   0.021063   0.008160  -0.029729   0.001374   0.001422
      3      -0.002506   0.045631   0.005050   0.036454   0.000144  -0.000715
      4       0.001687  -0.008934  -0.004354  -0.012128  -0.002586  -0.000142
      5       0.002476  -0.050947  -0.003065  -0.038620   0.001680   0.000682
      6      -0.021699   0.192093   0.077184  -0.276220   0.051366   0.013651
      7       0.003680  -0.025476  -0.010080   0.036898  -0.018088  -0.001249
      8       0.032998  -0.273943  -0.110965   0.403009  -0.079104  -0.019620
      9      -0.032725   0.169469   0.065787  -0.226305  -0.224388   0.005053
     10       0.071321  -0.371254  -0.147022   0.490200   0.453704  -0.011157
     11      -0.001208   0.008955   0.002151  -0.013759  -0.005587   0.000298
     12      -0.027711   0.153935   0.052961  -0.183436   0.620288   0.007828
     13      -0.028175   0.158010   0.055339  -0.185249   0.579370   0.007726
     14      -0.004165   0.019988   0.007544  -0.026119   0.063128   0.000581
     15      -0.007884  -0.011078   0.050211   0.007133   0.000460   0.003225
     16       0.012403   0.012021  -0.066651  -0.011137   0.000113  -0.002664
     17      -0.006394  -0.009750   0.029565   0.002970   0.000469   0.004814
     18       0.006884  -0.047840  -0.020440  -0.067599  -0.013717   0.000307
     19      -0.017324   0.115426   0.054521   0.150381   0.027254  -0.000015
     20       0.000138  -0.006002  -0.000059  -0.006380  -0.002502   0.000138
     21       0.025113  -0.488072  -0.034191  -0.364655   0.012263   0.004396
     22      -0.000166  -0.001398   0.000014  -0.001135   0.000690  -0.000259
     23      -0.030713   0.604396   0.039840   0.456429  -0.015802  -0.005808
     24      -0.016260  -0.001374  -0.006819   0.001600  -0.000265   0.066776
     25      -0.055417  -0.003288  -0.013277   0.001448  -0.000061   0.024641
     26       0.038354   0.002773   0.003272   0.000460  -0.000468   0.066063
     27       0.042105   0.069650  -0.232682  -0.027837  -0.001774  -0.027887
     28      -0.013225  -0.023371   0.083569   0.011094   0.001110   0.011725
     29       0.076537   0.129943  -0.442515  -0.052516  -0.002604  -0.060746
     30       0.059161   0.061928  -0.360061  -0.058502   0.000297  -0.011595
     31      -0.124011  -0.122667   0.707686   0.120692   0.002224   0.020051
     32      -0.012150  -0.015137   0.086313   0.015332   0.000967   0.001741
     33       0.000221   0.000119  -0.000247  -0.000484  -0.000068  -0.001716
     34       0.001815   0.000161   0.000829  -0.000296  -0.000093  -0.000628
     35      -0.000949  -0.000248   0.000444  -0.000078  -0.000037  -0.001699
     36       0.476688   0.026481   0.122701  -0.020903   0.001696  -0.493640
     37       0.455513   0.024869   0.119710  -0.019955   0.001954  -0.472543
     38       0.171496   0.009193   0.042613  -0.006716   0.000509  -0.167207
     39      -0.298997  -0.019353  -0.038024   0.002275   0.003365  -0.289042
     40       0.179090   0.011144   0.024474  -0.001148  -0.001371   0.182973
     41      -0.609040  -0.037220  -0.083208   0.003125   0.004494  -0.610058
     42       0.002154   0.000941  -0.000244   0.000197  -0.000184  -0.000557
     43      -0.007315  -0.000373  -0.000153   0.000800   0.000052  -0.000226
     44       0.000316  -0.000150  -0.000035  -0.000226   0.000343  -0.000332
     45      -0.007425  -0.001671  -0.001935   0.002203   0.001148   0.012124
     46      -0.004951  -0.001752  -0.001516   0.006426   0.001061   0.002987
     47      -0.002652   0.001155   0.001191   0.002004   0.000954   0.002180
     48       0.005027   0.001401  -0.003891  -0.000139  -0.000560   0.003007
     49      -0.001331  -0.001229   0.001838   0.000151   0.000194   0.002655
     50       0.008438   0.001478  -0.001025   0.000463  -0.000682   0.012828
                 48         49         50    
      0      -0.000188  -0.000266  -0.000059
      1       0.000130   0.000064   0.000044
      2       0.000216   0.000314   0.000042
      3      -0.000012  -0.000200  -0.000032
      4       0.000359   0.000632   0.000311
      5       0.000016  -0.000044  -0.000008
      6       0.001986   0.002594   0.000373
      7       0.000604   0.000422   0.000204
      8      -0.002768  -0.004309  -0.000818
      9       0.001153   0.001098   0.000459
     10      -0.001606  -0.001401  -0.000700
     11      -0.000249  -0.000354  -0.000117
     12      -0.001035  -0.000475  -0.000081
     13      -0.000580  -0.000056   0.000004
     14      -0.000034  -0.000133   0.000011
     15      -0.000349   0.000256   0.000076
     16       0.000453  -0.000145  -0.000110
     17      -0.000341   0.000487  -0.000485
     18       0.000570   0.001416   0.001442
     19      -0.003091  -0.005825  -0.002854
     20       0.001060   0.001759   0.000356
     21      -0.000252   0.001086   0.000084
     22      -0.000897  -0.001194  -0.000472
     23      -0.000064  -0.000782   0.000046
     24       0.000211  -0.000610   0.000424
     25      -0.001278  -0.000482  -0.000403
     26       0.000207  -0.000955   0.000048
     27       0.002330  -0.003073   0.001775
     28      -0.001112   0.000648  -0.000562
     29       0.003126  -0.003561   0.002526
     30      -0.001179   0.000089   0.000491
     31      -0.001267  -0.000856  -0.001103
     32       0.001164  -0.000341  -0.000263
     33       0.014810  -0.065222  -0.033984
     34      -0.040960  -0.024366  -0.027840
     35      -0.005040  -0.042050   0.069084
     36       0.002797   0.006834   0.001321
     37       0.008385   0.010388   0.002831
     38       0.002842   0.004630  -0.000084
     39      -0.004970   0.006753  -0.003569
     40       0.005177  -0.004256   0.004008
     41      -0.005292   0.008309  -0.006283
     42      -0.340482   0.111274   0.556960
     43      -0.051820   0.014673   0.076244
     44       0.383630  -0.135533  -0.621200
     45       0.416434   0.473398   0.150655
     46       0.450557   0.526819   0.166290
     47       0.158777   0.180430   0.066504
     48      -0.279124   0.315082  -0.242552
     49       0.168822  -0.201608   0.144861
     50      -0.473323   0.536555  -0.395854


-----------
IR SPECTRUM
-----------

 Mode   freq       eps      Int      T**2         TX        TY        TZ
       cm**-1   L/(mol*cm) km/mol    a.u.
----------------------------------------------------------------------------
  6:     37.91   0.002190   11.07  0.018030  (-0.121374 -0.005421 -0.057171)
  7:    149.53   0.000366    1.85  0.000764  ( 0.024156  0.013107 -0.002923)
  8:    196.36   0.001065    5.38  0.001692  (-0.038378 -0.005006  0.013928)
  9:    264.95   0.001404    7.10  0.001654  (-0.036470 -0.003065  0.017726)
 10:    271.85   0.000605    3.06  0.000694  (-0.022003  0.002416  0.014300)
 11:    384.98   0.001106    5.59  0.000897  ( 0.020595 -0.001591 -0.021678)
 12:    501.08   0.000496    2.51  0.000309  (-0.007715  0.007233  0.014038)
 13:    730.44   0.001686    8.52  0.000720  (-0.026726  0.001086 -0.002197)
 14:    799.74   0.001296    6.55  0.000506  ( 0.019662  0.006827  0.008526)
 15:    846.55   0.000253    1.28  0.000093  ( 0.001725 -0.004985 -0.008081)
 16:    893.71   0.001297    6.55  0.000453  (-0.012563 -0.006469 -0.015907)
 17:    916.14   0.002473   12.50  0.000842  ( 0.024480  0.003883 -0.015097)
 18:    995.98   0.001288    6.51  0.000404  (-0.003986 -0.016555  0.010659)
 19:   1022.83   0.000944    4.77  0.000288  ( 0.004389  0.008960  0.013726)
 20:   1030.80   0.002376   12.01  0.000719  (-0.023561  0.003869  0.012213)
 21:   1105.39   0.000535    2.70  0.000151  (-0.002680  0.011782 -0.002232)
 22:   1154.54   0.000205    1.04  0.000055  (-0.004974 -0.001496  0.005339)
 23:   1181.29   0.002054   10.38  0.000543  (-0.009732 -0.014495  0.015422)
 24:   1268.36   0.000473    2.39  0.000116  (-0.001777 -0.004418  0.009678)
 25:   1308.84   0.000047    0.24  0.000011  ( 0.001233  0.001699  0.002613)
 26:   1344.19   0.003796   19.18  0.000881  (-0.021526 -0.012257 -0.016362)
 27:   1365.90   0.000824    4.16  0.000188  (-0.013187 -0.002888  0.002452)
 28:   1400.00   0.000227    1.15  0.000051  ( 0.001153 -0.004508  0.005383)
 29:   1423.46   0.001308    6.61  0.000287  (-0.015398  0.000901 -0.006989)
 30:   1433.51   0.000625    3.16  0.000136  ( 0.003398  0.000853  0.011123)
 31:   1458.23   0.002144   10.83  0.000459  (-0.006109  0.010729  0.017501)
 32:   1467.60   0.004257   21.51  0.000905  (-0.001229  0.028909  0.008242)
 33:   1478.95   0.002590   13.09  0.000546  ( 0.001636  0.020265 -0.011535)
 34:   1484.93   0.002007   10.14  0.000422  (-0.006296  0.018304 -0.006860)
 35:   1487.14   0.005830   29.46  0.001223  (-0.025141 -0.000722  0.024306)
 36:   1499.20   0.027988  141.44  0.005826  ( 0.046282 -0.058158 -0.017363)
 37:   1618.35   0.008038   40.62  0.001550  (-0.021570 -0.009446 -0.031551)
 38:   1631.17   0.005945   30.04  0.001137  ( 0.026356  0.012880 -0.016638)
 39:   3039.58   0.007195   36.36  0.000739  ( 0.011894 -0.023657  0.006129)
 40:   3060.07   0.003653   18.46  0.000373  (-0.006835  0.000283  0.018048)
 41:   3085.07   0.001426    7.21  0.000144  ( 0.008167  0.001308  0.008708)
 42:   3129.59   0.000103    0.52  0.000010  (-0.001679 -0.002049  0.001804)
 43:   3139.76   0.000357    1.80  0.000035  (-0.005712  0.001670 -0.000170)
 44:   3146.93   0.000617    3.12  0.000061  (-0.000388 -0.002486  0.007404)
 45:   3153.96   0.003699   18.69  0.000366  ( 0.014633 -0.007157 -0.010032)
 46:   3188.35   0.000516    2.61  0.000051  (-0.002803 -0.006460  0.000955)
 47:   3202.84   0.000009    0.04  0.000001  ( 0.000067  0.000022  0.000908)
 48:   3438.48   0.008712   44.03  0.000791  (-0.013268  0.024235  0.005223)
 49:   3528.55   0.025244  127.57  0.002233  ( 0.041161  0.010607  0.020636)
 50:   3545.17   0.026949  136.19  0.002372  ( 0.022898  0.013762 -0.040725)

* The epsilon (eps) is given for a Dirac delta lineshape.
** The dipole moment derivative (T) already includes vibrational overlap.

The first frequency considered to be a vibration is 6
The total number of vibrations considered is 45


--------------------------
THERMOCHEMISTRY AT 298.15K
--------------------------

Temperature         ... 298.15 K
Pressure            ... 1.00 atm
Total Mass          ... 74.15 AMU

Throughout the following assumptions are being made:
  (1) The electronic state is orbitally nondegenerate
  (2) There are no thermally accessible electronically excited states
  (3) Hindered rotations indicated by low frequency modes are not
      treated as such but are treated as vibrations and this may
      cause some error
  (4) All equations used are the standard statistical mechanics
      equations for an ideal gas
  (5) All vibrations are strictly harmonic

freq.      37.91  E(vib)   ...       0.54 
freq.     149.53  E(vib)   ...       0.40 
freq.     196.36  E(vib)   ...       0.36 
freq.     264.95  E(vib)   ...       0.29 
freq.     271.85  E(vib)   ...       0.29 
freq.     384.98  E(vib)   ...       0.20 
freq.     501.08  E(vib)   ...       0.14 
freq.     730.44  E(vib)   ...       0.06 
freq.     799.74  E(vib)   ...       0.05 
freq.     846.55  E(vib)   ...       0.04 
freq.     893.71  E(vib)   ...       0.03 
freq.     916.14  E(vib)   ...       0.03 
freq.     995.98  E(vib)   ...       0.02 
freq.    1022.83  E(vib)   ...       0.02 
freq.    1030.80  E(vib)   ...       0.02 
freq.    1105.39  E(vib)   ...       0.02 
freq.    1154.54  E(vib)   ...       0.01 
freq.    1181.29  E(vib)   ...       0.01 
freq.    1268.36  E(vib)   ...       0.01 
freq.    1308.84  E(vib)   ...       0.01 
freq.    1344.19  E(vib)   ...       0.01 
freq.    1365.90  E(vib)   ...       0.01 
freq.    1400.00  E(vib)   ...       0.00 
freq.    1423.46  E(vib)   ...       0.00 
freq.    1433.51  E(vib)   ...       0.00 
freq.    1458.23  E(vib)   ...       0.00 
freq.    1467.60  E(vib)   ...       0.00 
freq.    1478.95  E(vib)   ...       0.00 
freq.    1484.93  E(vib)   ...       0.00 
freq.    1487.14  E(vib)   ...       0.00 
freq.    1499.20  E(vib)   ...       0.00 
freq.    1618.35  E(vib)   ...       0.00 
freq.    1631.17  E(vib)   ...       0.00 
freq.    3039.58  E(vib)   ...       0.00 
freq.    3060.07  E(vib)   ...       0.00 
freq.    3085.07  E(vib)   ...       0.00 
freq.    3129.59  E(vib)   ...       0.00 
freq.    3139.76  E(vib)   ...       0.00 
freq.    3146.93  E(vib)   ...       0.00 
freq.    3153.96  E(vib)   ...       0.00 
freq.    3188.35  E(vib)   ...       0.00 
freq.    3202.84  E(vib)   ...       0.00 
freq.    3438.48  E(vib)   ...       0.00 
freq.    3528.55  E(vib)   ...       0.00 
freq.    3545.17  E(vib)   ...       0.00 

------------
INNER ENERGY
------------

The inner energy is: U= E(el) + E(ZPE) + E(vib) + E(rot) + E(trans)
    E(el)   - is the total energy from the electronic structure calculation
              = E(kin-el) + E(nuc-el) + E(el-el) + E(nuc-nuc)
    E(ZPE)  - the the zero temperature vibrational energy from the frequency calculation
    E(vib)  - the the finite temperature correction to E(ZPE) due to population
              of excited vibrational states
    E(rot)  - is the rotational thermal energy
    E(trans)- is the translational thermal energy

Summary of contributions to the inner energy U:
Electronic energy                ...   -213.95904555 Eh
Zero point energy                ...      0.16587842 Eh     104.09 kcal/mol
Thermal vibrational correction   ...      0.00415930 Eh       2.61 kcal/mol
Thermal rotational correction    ...      0.00141627 Eh       0.89 kcal/mol
Thermal translational correction ...      0.00141627 Eh       0.89 kcal/mol
-----------------------------------------------------------------------
Total thermal energy                   -213.78617530 Eh


Summary of corrections to the electronic energy:
(perhaps to be used in another calculation)
Total thermal correction                  0.00699184 Eh       4.39 kcal/mol
Non-thermal (ZPE) correction              0.16587842 Eh     104.09 kcal/mol
-----------------------------------------------------------------------
Total correction                          0.17287026 Eh     108.48 kcal/mol


--------
ENTHALPY
--------

The enthalpy is H = U + kB*T
                kB is Boltzmann's constant
Total free energy                 ...   -213.78617530 Eh 
Thermal Enthalpy correction       ...      0.00094421 Eh       0.59 kcal/mol
-----------------------------------------------------------------------
Total Enthalpy                    ...   -213.78523109 Eh


Note: Only C1 symmetry has been detected, increase convergence thresholds 
      if your molecule has a higher symmetry. Symmetry factor of 1.0 is   
      used for the rotational entropy correction. 
 

Note: Rotational entropy computed according to Herzberg 
Infrared and Raman Spectra, Chapter V,1, Van Nostrand Reinhold, 1945 
Point Group:  C1, Symmetry Number:   1  
Rotational constants in cm-1:     0.248796     0.098820     0.089126 

Vibrational entropy computed according to the QRRHO of S. Grimme
Chem.Eur.J. 2012 18 9955


-------
ENTROPY
-------

The entropy contributions are T*S = T*(S(el)+S(vib)+S(rot)+S(trans))
     S(el)   - electronic entropy
     S(vib)  - vibrational entropy
     S(rot)  - rotational entropy
     S(trans)- translational entropy
The entropies will be listed as multiplied by the temperature to get
units of energy

Electronic entropy                ...      0.00000000 Eh      0.00 kcal/mol
Vibrational entropy               ...      0.00719771 Eh      4.52 kcal/mol
Rotational entropy                ...      0.01240155 Eh      7.78 kcal/mol
Translational entropy             ...      0.01844761 Eh     11.58 kcal/mol
-----------------------------------------------------------------------
Final entropy term                ...      0.03804687 Eh     23.87 kcal/mol

In case the symmetry of your molecule has not been determined correctly
or in case you have a reason to use a different symmetry number we print 
out the resulting rotational entropy values for sn=1,12 :
 --------------------------------------------------------
|  sn= 1 | S(rot)=       0.01240155 Eh      7.78 kcal/mol|
|  sn= 2 | S(rot)=       0.01174710 Eh      7.37 kcal/mol|
|  sn= 3 | S(rot)=       0.01136427 Eh      7.13 kcal/mol|
|  sn= 4 | S(rot)=       0.01109264 Eh      6.96 kcal/mol|
|  sn= 5 | S(rot)=       0.01088195 Eh      6.83 kcal/mol|
|  sn= 6 | S(rot)=       0.01070981 Eh      6.72 kcal/mol|
|  sn= 7 | S(rot)=       0.01056426 Eh      6.63 kcal/mol|
|  sn= 8 | S(rot)=       0.01043818 Eh      6.55 kcal/mol|
|  sn= 9 | S(rot)=       0.01032698 Eh      6.48 kcal/mol|
|  sn=10 | S(rot)=       0.01022750 Eh      6.42 kcal/mol|
|  sn=11 | S(rot)=       0.01013751 Eh      6.36 kcal/mol|
|  sn=12 | S(rot)=       0.01005535 Eh      6.31 kcal/mol|
 --------------------------------------------------------


-------------------
GIBBS FREE ENERGY
-------------------

The Gibbs free energy is G = H - T*S

Total enthalpy                    ...   -213.78523109 Eh 
Total entropy correction          ...     -0.03804687 Eh    -23.87 kcal/mol
-----------------------------------------------------------------------
Final Gibbs free energy         ...   -213.82327795 Eh

For completeness - the Gibbs free energy minus the electronic energy
G-E(el)                           ...      0.13576760 Eh     85.20 kcal/mol


Timings for individual modules:

Sum of individual times         ...      532.405 sec (=   8.873 min)
GTO integral calculation        ...        9.586 sec (=   0.160 min)   1.8 %
SCF iterations                  ...      357.454 sec (=   5.958 min)  67.1 %
SCF Gradient evaluation         ...      102.427 sec (=   1.707 min)  19.2 %
Geometry relaxation             ...        0.771 sec (=   0.013 min)   0.1 %
Analytical frequency calculation...       62.167 sec (=   1.036 min)  11.7 %
                             ****ORCA TERMINATED NORMALLY****
TOTAL RUN TIME: 0 days 0 hours 8 minutes 59 seconds 824 msec
