
                                 *****************
                                 * O   R   C   A *
                                 *****************

                                            #,                                       
                                            ###                                      
                                            ####                                     
                                            #####                                    
                                            ######                                   
                                           ########,                                 
                                     ,,################,,,,,                         
                               ,,#################################,,                 
                          ,,##########################################,,             
                       ,#########################################, ''#####,          
                    ,#############################################,,   '####,        
                  ,##################################################,,,,####,       
                ,###########''''           ''''###############################       
              ,#####''   ,,,,##########,,,,          '''####'''          '####       
            ,##' ,,,,###########################,,,                        '##       
           ' ,,###''''                  '''############,,,                           
         ,,##''                                '''############,,,,        ,,,,,,###''
      ,#''                                            '''#######################'''  
     '                                                          ''''####''''         
             ,#######,   #######,   ,#######,      ##                                
            ,#'     '#,  ##    ##  ,#'     '#,    #''#        ######   ,####,        
            ##       ##  ##   ,#'  ##            #'  '#       #        #'  '#        
            ##       ##  #######   ##           ,######,      #####,   #    #        
            '#,     ,#'  ##    ##  '#,     ,#' ,#      #,         ##   #,  ,#        
             '#######'   ##     ##  '#######'  #'      '#     #####' # '####'        



                  #######################################################
                  #                        -***-                        #
                  #          Department of theory and spectroscopy      #
                  #    Directorship and core code : Frank Neese         #
                  #        Max Planck Institute fuer Kohlenforschung    #
                  #                Kaiser Wilhelm Platz 1               #
                  #                 D-45470 Muelheim/Ruhr               #
                  #                      Germany                        #
                  #                                                     #
                  #                  All rights reserved                #
                  #                        -***-                        #
                  #######################################################


                         Program Version 5.0.4 -  RELEASE  -


 With contributions from (in alphabetic order):
   Daniel Aravena         : Magnetic Suceptibility
   Michael Atanasov       : Ab Initio Ligand Field Theory (pilot matlab implementation)
   Alexander A. Auer      : GIAO ZORA, VPT2 properties, NMR spectrum
   Ute Becker             : Parallelization
   Giovanni Bistoni       : ED, misc. LED, open-shell LED, HFLD
   Martin Brehm           : Molecular dynamics
   Dmytro Bykov           : SCF Hessian
   Vijay G. Chilkuri      : MRCI spin determinant printing, contributions to CSF-ICE
   Dipayan Datta          : RHF DLPNO-CCSD density
   Achintya Kumar Dutta   : EOM-CC, STEOM-CC
   Dmitry Ganyushin       : Spin-Orbit,Spin-Spin,Magnetic field MRCI
   Miquel Garcia          : C-PCM and meta-GGA Hessian, CC/C-PCM, Gaussian charge scheme
   Yang Guo               : DLPNO-NEVPT2, F12-NEVPT2, CIM, IAO-localization
   Andreas Hansen         : Spin unrestricted coupled pair/coupled cluster methods
   Benjamin Helmich-Paris : MC-RPA, TRAH-SCF, COSX integrals
   Lee Huntington         : MR-EOM, pCC
   Robert Izsak           : Overlap fitted RIJCOSX, COSX-SCS-MP3, EOM
   Marcus Kettner         : VPT2
   Christian Kollmar      : KDIIS, OOCD, Brueckner-CCSD(T), CCSD density, CASPT2, CASPT2-K
   Simone Kossmann        : Meta GGA functionals, TD-DFT gradient, OOMP2, MP2 Hessian
   Martin Krupicka        : Initial AUTO-CI
   Lucas Lang             : DCDCAS
   Marvin Lechner         : AUTO-CI (C++ implementation), FIC-MRCC
   Dagmar Lenk            : GEPOL surface, SMD
   Dimitrios Liakos       : Extrapolation schemes; Compound Job, initial MDCI parallelization
   Dimitrios Manganas     : Further ROCIS development; embedding schemes
   Dimitrios Pantazis     : SARC Basis sets
   Anastasios Papadopoulos: AUTO-CI, single reference methods and gradients
   Taras Petrenko         : DFT Hessian,TD-DFT gradient, ASA, ECA, R-Raman, ABS, FL, XAS/XES, NRVS
   Peter Pinski           : DLPNO-MP2, DLPNO-MP2 Gradient
   Christoph Reimann      : Effective Core Potentials
   Marius Retegan         : Local ZFS, SOC
   Christoph Riplinger    : Optimizer, TS searches, QM/MM, DLPNO-CCSD(T), (RO)-DLPNO pert. Triples
   Tobias Risthaus        : Range-separated hybrids, TD-DFT gradient, RPA, STAB
   Michael Roemelt        : Original ROCIS implementation
   Masaaki Saitow         : Open-shell DLPNO-CCSD energy and density
   Barbara Sandhoefer     : DKH picture change effects
   Avijit Sen             : IP-ROCIS
   Kantharuban Sivalingam : CASSCF convergence, NEVPT2, FIC-MRCI
   Bernardo de Souza      : ESD, SOC TD-DFT
   Georgi Stoychev        : AutoAux, RI-MP2 NMR, DLPNO-MP2 response
   Willem Van den Heuvel  : Paramagnetic NMR
   Boris Wezisla          : Elementary symmetry handling
   Frank Wennmohs         : Technical directorship


 We gratefully acknowledge several colleagues who have allowed us to
 interface, adapt or use parts of their codes:
   Stefan Grimme, W. Hujo, H. Kruse, P. Pracht,  : VdW corrections, initial TS optimization,
                  C. Bannwarth, S. Ehlert          DFT functionals, gCP, sTDA/sTD-DF
   Ed Valeev, F. Pavosevic, A. Kumar             : LibInt (2-el integral package), F12 methods
   Garnet Chan, S. Sharma, J. Yang, R. Olivares  : DMRG
   Ulf Ekstrom                                   : XCFun DFT Library
   Mihaly Kallay                                 : mrcc  (arbitrary order and MRCC methods)
   Jiri Pittner, Ondrej Demel                    : Mk-CCSD
   Frank Weinhold                                : gennbo (NPA and NBO analysis)
   Christopher J. Cramer and Donald G. Truhlar   : smd solvation model
   Lars Goerigk                                  : TD-DFT with DH, B97 family of functionals
   V. Asgeirsson, H. Jonsson                     : NEB implementation
   FAccTs GmbH                                   : IRC, NEB, NEB-TS, DLPNO-Multilevel, CI-OPT
                                                   MM, QMMM, 2- and 3-layer-ONIOM, Crystal-QMMM,
                                                   LR-CPCM, SF, NACMEs, symmetry and pop. for TD-DFT,
                                                   nearIR, NL-DFT gradient (VV10), updates on ESD,
                                                   ML-optimized integration grids
   S Lehtola, MJT Oliveira, MAL Marques          : LibXC Library
   Liviu Ungur et al                             : ANISO software


 Your calculation uses the libint2 library for the computation of 2-el integrals
 For citations please refer to: http://libint.valeyev.net

 Your ORCA version has been built with support for libXC version: 5.1.0
 For citations please refer to: https://tddft.org/programs/libxc/

 This ORCA versions uses:
   CBLAS   interface :  Fast vector & matrix operations
   LAPACKE interface :  Fast linear algebra routines
   SCALAPACK package :  Parallel linear algebra routines
   Shared memory     :  Shared parallel matrices
   BLAS/LAPACK       :  OpenBLAS 0.3.15  USE64BITINT DYNAMIC_ARCH NO_AFFINITY SkylakeX SINGLE_THREADED
        Core in use  :  SkylakeX
   Copyright (c) 2011-2014, The OpenBLAS Project




***************************************
The coordinates will be read from file: butylamine_prot_aq_1.xyz
***************************************


Your calculation utilizes the atom-pairwise dispersion correction
based on tight binding partial charges (D4)
Cite in your paper:
E.Caldeweyher, C.Bannwarth, S.Grimme, J.Chem.Phys., (2017), 147, 034112.
E.Caldeweyher, S.Ehlert, A.Hansen, H.Neugebauer, S.Grimme, J.Chem.Phys., (2018), in progress.
   

XCFun DFT library Copyright 2009-2010 Ulf Ekstrom and contributors.
See http://admol.org/xcfun for more information.
This is free software; see the source code for copying conditions.
There is ABSOLUTELY NO WARRANTY; not even for MERCHANTABILITY or FITNESS FOR A PARTICULAR PURPOSE.
For details see the documentation.
Scientific users of this library should cite U. Ekstrom, L. Visscher, R. Bast, A. J. Thorvaldsen and K. Ruud;
J.Chem.Theor.Comp. 2010, DOI: 10.1021/ct100117s
XCFun Version 0.99 

================================================================================

----- Orbital basis set information -----
Your calculation utilizes the basis: def2-SVP
   F. Weigend and R. Ahlrichs, Phys. Chem. Chem. Phys. 7, 3297 (2005).

----- AuxJ basis set information -----
Your calculation utilizes the auxiliary basis: def2/J
   F. Weigend, Phys. Chem. Chem. Phys. 8, 1057 (2006).

================================================================================
                                        WARNINGS
                       Please study these warnings very carefully!
================================================================================


WARNING: Geometry Optimization
  ===> : Switching off AutoStart
         For restart on a previous wavefunction, please use MOREAD

INFO   : the flag for use of the SHARK integral package has been found!

================================================================================
                                       INPUT FILE
================================================================================
NAME = butylamine_prot_aq_1.inp
|  1> # ORCA 5.0.4 - /users/bwb16179/postgrad/2024_06/pKa_Reviewer_Comments/CREST_Confs/butylamine/butylamine_prot_aq_1.inp # write input file
|  2> # Basic Mode
|  3> #
|  4> ! Opt Freq wB97X Def2-SVP D4 SlowConv TightSCF Defgrid2 Def2/J RIJCOSX 
|  5> 
|  6> %PAL NPROCS 4 END
|  7> 
|  8> %maxcore 4500
|  9> 
| 10> %geom
| 11> Maxiter 150
| 12> END
| 13> 
| 14> * xyzfile 1 1 butylamine_prot_aq_1.xyz
| 15> 
| 16>                          ****END OF INPUT****
================================================================================

                       *****************************
                       * Geometry Optimization Run *
                       *****************************

Geometry optimization settings:
Update method            Update   .... BFGS
Choice of coordinates    CoordSys .... Z-matrix Internals
Initial Hessian          InHess   .... Almoef's Model

Convergence Tolerances:
Energy Change            TolE     ....  5.0000e-06 Eh
Max. Gradient            TolMAXG  ....  3.0000e-04 Eh/bohr
RMS Gradient             TolRMSG  ....  1.0000e-04 Eh/bohr
Max. Displacement        TolMAXD  ....  4.0000e-03 bohr
RMS Displacement         TolRMSD  ....  2.0000e-03 bohr
Strict Convergence                ....  False
------------------------------------------------------------------------------
                        ORCA OPTIMIZATION COORDINATE SETUP
------------------------------------------------------------------------------

The optimization will be done in new redundant internal coordinates
Making redundant internal coordinates   ...  (new redundants) done
Evaluating the initial hessian          ...  (Almloef) done
Evaluating the coordinates              ...  done
Calculating the B-matrix                .... done
Calculating the G-matrix                .... done
Diagonalizing the G-matrix              .... done
Small eigenvalue found = 2.401e-02
The first mode is                       ....   37
The number of degrees of freedom        ....   45

    -----------------------------------------------------------------
                    Redundant Internal Coordinates


    -----------------------------------------------------------------
         Definition                    Initial Value    Approx d2E/dq
    -----------------------------------------------------------------
      1. B(C   1,C   0)                  1.5243         0.381495   
      2. B(H   2,C   0)                  1.0874         0.363550   
      3. B(H   3,C   0)                  1.0879         0.362915   
      4. B(H   4,C   0)                  1.0879         0.362916   
      5. B(C   5,C   1)                  1.5293         0.374600   
      6. B(H   6,C   1)                  1.0913         0.358341   
      7. B(H   7,C   1)                  1.0913         0.358342   
      8. B(C   8,C   5)                  1.5243         0.381468   
      9. B(H   9,C   5)                  1.0911         0.358679   
     10. B(H  10,C   5)                  1.0911         0.358669   
     11. B(N  11,C   8)                  1.4903         0.387118   
     12. B(H  12,C   8)                  1.0905         0.359475   
     13. B(H  13,C   8)                  1.0905         0.359474   
     14. B(H  14,N  11)                  1.0309         0.400739   
     15. B(H  15,N  11)                  1.0309         0.400718   
     16. B(H  16,N  11)                  1.0300         0.402023   
     17. A(H   3,C   0,H   4)          108.3319         0.291552   
     18. A(C   1,C   0,H   4)          110.8921         0.325856   
     19. A(C   1,C   0,H   2)          110.5637         0.325950   
     20. A(H   2,C   0,H   4)          108.0269         0.291632   
     21. A(H   2,C   0,H   3)          108.0259         0.291632   
     22. A(C   1,C   0,H   3)          110.8917         0.325856   
     23. A(C   0,C   1,C   5)          111.3070         0.364828   
     24. A(H   6,C   1,H   7)          107.7572         0.290393   
     25. A(C   5,C   1,H   7)          109.7840         0.324204   
     26. A(C   0,C   1,H   7)          109.0667         0.325177   
     27. A(C   5,C   1,H   6)          109.7837         0.324204   
     28. A(C   0,C   1,H   6)          109.0662         0.325177   
     29. A(C   1,C   5,H   9)          108.4275         0.324254   
     30. A(C   1,C   5,C   8)          110.8833         0.364824   
     31. A(C   8,C   5,H   9)          110.3286         0.325224   
     32. A(H   9,C   5,H  10)          108.3777         0.290477   
     33. A(C   8,C   5,H  10)          110.3235         0.325222   
     34. A(C   1,C   5,H  10)          108.4266         0.324253   
     35. A(H  12,C   8,H  13)          108.5939         0.290681   
     36. A(N  11,C   8,H  13)          108.9349         0.324179   
     37. A(C   5,C   8,H  13)          109.8262         0.325342   
     38. A(N  11,C   8,H  12)          108.9348         0.324179   
     39. A(C   5,C   8,H  12)          109.8211         0.325342   
     40. A(C   5,C   8,N  11)          110.6895         0.364597   
     41. A(H  15,N  11,H  16)          108.8484         0.296088   
     42. A(H  14,N  11,H  16)          108.8427         0.296091   
     43. A(C   8,N  11,H  16)          110.7971         0.327398   
     44. A(H  14,N  11,H  15)          108.3147         0.295938   
     45. A(C   8,N  11,H  15)          109.9911         0.327223   
     46. A(C   8,N  11,H  14)          109.9934         0.327226   
     47. D(H   6,C   1,C   0,H   4)    178.5288         0.011595   
     48. D(H   7,C   1,C   0,H   4)     61.0853         0.011595   
     49. D(H   7,C   1,C   0,H   3)   -178.5142         0.011595   
     50. D(H   6,C   1,C   0,H   2)     58.7282         0.011595   
     51. D(C   5,C   1,C   0,H   4)    -60.1933         0.011595   
     52. D(H   6,C   1,C   0,H   3)    -61.0708         0.011595   
     53. D(C   5,C   1,C   0,H   3)     60.2071         0.011595   
     54. D(C   5,C   1,C   0,H   2)   -179.9939         0.011595   
     55. D(H   7,C   1,C   0,H   2)    -58.7152         0.011595   
     56. D(H   9,C   5,C   1,H   6)    179.6663         0.011201   
     57. D(C   8,C   5,C   1,H   7)     59.2179         0.011201   
     58. D(C   8,C   5,C   1,H   6)    -59.0654         0.011201   
     59. D(C   8,C   5,C   1,C   0)   -179.9233         0.011201   
     60. D(H   9,C   5,C   1,H   7)    -62.0504         0.011201   
     61. D(H  10,C   5,C   1,H   7)   -179.5207         0.011201   
     62. D(H  10,C   5,C   1,H   6)     62.1960         0.011201   
     63. D(H  10,C   5,C   1,C   0)    -58.6619         0.011201   
     64. D(H   9,C   5,C   1,C   0)     58.8084         0.011201   
     65. D(H  13,C   8,C   5,H   9)     60.4595         0.011593   
     66. D(H  13,C   8,C   5,C   1)    -59.6829         0.011593   
     67. D(H  12,C   8,C   5,H  10)    -60.4640         0.011593   
     68. D(H  12,C   8,C   5,H   9)    179.8162         0.011593   
     69. D(H  12,C   8,C   5,C   1)     59.6739         0.011593   
     70. D(N  11,C   8,C   5,H  10)     59.8559         0.011593   
     71. D(N  11,C   8,C   5,H   9)    -59.8639         0.011593   
     72. D(H  13,C   8,C   5,H  10)   -179.8208         0.011593   
     73. D(N  11,C   8,C   5,C   1)    179.9938         0.011593   
     74. D(H  15,N  11,C   8,C   5)    -59.5695         0.013711   
     75. D(H  14,N  11,C   8,H  13)    -61.2015         0.013711   
     76. D(H  14,N  11,C   8,H  12)   -179.5003         0.013711   
     77. D(H  14,N  11,C   8,C   5)     59.6523         0.013711   
     78. D(H  16,N  11,C   8,H  13)     59.1848         0.013711   
     79. D(H  16,N  11,C   8,H  12)    -59.1140         0.013711   
     80. D(H  16,N  11,C   8,C   5)   -179.9614         0.013711   
     81. D(H  15,N  11,C   8,H  13)    179.5767         0.013711   
     82. D(H  15,N  11,C   8,H  12)     61.2779         0.013711   
    -----------------------------------------------------------------

Number of atoms                         .... 17
Number of degrees of freedom            .... 82

         *************************************************************
         *                GEOMETRY OPTIMIZATION CYCLE   1            *
         *************************************************************
---------------------------------
CARTESIAN COORDINATES (ANGSTROEM)
---------------------------------
  C     -2.586138   -0.084049    0.222197
  C     -1.297005    0.145882   -0.558012
  H     -3.452389    0.087559   -0.412318
  H     -2.651558    0.592679    1.071456
  H     -2.637908   -1.105240    0.593641
  C     -0.066878   -0.091211    0.319024
  H     -1.288012    1.168822   -0.938169
  H     -1.274472   -0.528244   -1.415947
  C      1.216206    0.143089   -0.469844
  H     -0.101111   -1.116234    0.691319
  H     -0.116058    0.586619    1.172600
  N      2.412001   -0.088946    0.388785
  H      1.240340    1.168328   -0.840566
  H      1.255509   -0.535888   -1.322239
  H      2.409867   -1.057511    0.741797
  H      2.394850    0.550531    1.197206
  H      3.280058    0.069569   -0.142531

----------------------------
CARTESIAN COORDINATES (A.U.)
----------------------------
  NO LB      ZA    FRAG     MASS         X           Y           Z
   0 C     6.0000    0    12.011   -4.887093   -0.158830    0.419891
   1 C     6.0000    0    12.011   -2.450985    0.275677   -1.054489
   2 H     1.0000    0     1.008   -6.524070    0.165462   -0.779167
   3 H     1.0000    0     1.008   -5.010719    1.120002    2.024759
   4 H     1.0000    0     1.008   -4.984923   -2.088601    1.121819
   5 C     6.0000    0    12.011   -0.126382   -0.172364    0.602868
   6 H     1.0000    0     1.008   -2.433991    2.208754   -1.772883
   7 H     1.0000    0     1.008   -2.408403   -0.998236   -2.675752
   8 C     6.0000    0    12.011    2.298296    0.270400   -0.887877
   9 H     1.0000    0     1.008   -0.191072   -2.109377    1.306403
  10 H     1.0000    0     1.008   -0.219317    1.108549    2.215892
  11 N     7.0000    0    14.007    4.558022   -0.168083    0.734697
  12 H     1.0000    0     1.008    2.343904    2.207819   -1.588439
  13 H     1.0000    0     1.008    2.372569   -1.012681   -2.498671
  14 H     1.0000    0     1.008    4.553989   -1.998406    1.401793
  15 H     1.0000    0     1.008    4.525611    1.040352    2.262392
  16 H     1.0000    0     1.008    6.198411    0.131466   -0.269344

--------------------------------
INTERNAL COORDINATES (ANGSTROEM)
--------------------------------
 C      0   0   0     0.000000000000     0.00000000     0.00000000
 C      1   0   0     1.524288796503     0.00000000     0.00000000
 H      1   2   0     1.087404604474   110.56371356     0.00000000
 H      1   2   3     1.087880064177   110.89169924   240.20100259
 H      1   2   3     1.087879773726   110.89212294   119.80056131
 C      2   1   3     1.529253952133   111.30695677   180.00611176
 H      2   1   3     1.091332882562   109.06617274    58.72819000
 H      2   1   3     1.091332290689   109.06667632   301.28478603
 C      6   2   1     1.524308132443   110.88327117   180.07666857
 H      6   2   1     1.091075973507   108.42750693    58.80837047
 H      6   2   1     1.091083842146   108.42664883   301.33811098
 N      9   6   2     1.490305944988   110.68951883   179.99377976
 H      9   6   2     1.090472552918   109.82108625    59.67388295
 H      9   6   2     1.090473450407   109.82624143   300.31713018
 H     12   9   6     1.030893241384   109.99339555    59.65232884
 H     12   9   6     1.030906877645   109.99110338   300.43053272
 H     12   9   6     1.030021918564   110.79709589   180.03863780

---------------------------
INTERNAL COORDINATES (A.U.)
---------------------------
 C      0   0   0     0.000000000000     0.00000000     0.00000000
 C      1   0   0     2.880488374395     0.00000000     0.00000000
 H      1   2   0     2.054896899221   110.56371356     0.00000000
 H      1   2   3     2.055795387846   110.89169924   240.20100259
 H      1   2   3     2.055794838975   110.89212294   119.80056131
 C      2   1   3     2.889871158748   111.30695677   180.00611176
 H      2   1   3     2.062320268985   109.06617274    58.72819000
 H      2   1   3     2.062319150508   109.06667632   301.28478603
 C      6   2   1     2.880524914027   110.88327117   180.07666857
 H      6   2   1     2.061834781229   108.42750693    58.80837047
 H      6   2   1     2.061849650803   108.42664883   301.33811098
 N      9   6   2     2.816270091782   110.68951883   179.99377976
 H      9   6   2     2.060694481574   109.82108625    59.67388295
 H      9   6   2     2.060696177581   109.82624143   300.31713018
 H     12   9   6     1.948105899527   109.99339555    59.65232884
 H     12   9   6     1.948131668326   109.99110338   300.43053272
 H     12   9   6     1.946459338022   110.79709589   180.03863780

---------------------
BASIS SET INFORMATION
---------------------
There are 3 groups of distinct atoms

 Group   1 Type C   : 7s4p1d contracted to 3s2p1d pattern {511/31/1}
 Group   2 Type H   : 4s1p contracted to 2s1p pattern {31/1}
 Group   3 Type N   : 7s4p1d contracted to 3s2p1d pattern {511/31/1}

Atom   0C    basis set group =>   1
Atom   1C    basis set group =>   1
Atom   2H    basis set group =>   2
Atom   3H    basis set group =>   2
Atom   4H    basis set group =>   2
Atom   5C    basis set group =>   1
Atom   6H    basis set group =>   2
Atom   7H    basis set group =>   2
Atom   8C    basis set group =>   1
Atom   9H    basis set group =>   2
Atom  10H    basis set group =>   2
Atom  11N    basis set group =>   3
Atom  12H    basis set group =>   2
Atom  13H    basis set group =>   2
Atom  14H    basis set group =>   2
Atom  15H    basis set group =>   2
Atom  16H    basis set group =>   2
---------------------------------
AUXILIARY/J BASIS SET INFORMATION
---------------------------------
There are 3 groups of distinct atoms

 Group   1 Type C   : 12s5p4d2f1g contracted to 6s4p3d1f1g pattern {711111/2111/211/2/1}
 Group   2 Type H   : 5s2p1d contracted to 3s1p1d pattern {311/2/1}
 Group   3 Type N   : 12s5p4d2f1g contracted to 6s4p3d1f1g pattern {711111/2111/211/2/1}

Atom   0C    basis set group =>   1
Atom   1C    basis set group =>   1
Atom   2H    basis set group =>   2
Atom   3H    basis set group =>   2
Atom   4H    basis set group =>   2
Atom   5C    basis set group =>   1
Atom   6H    basis set group =>   2
Atom   7H    basis set group =>   2
Atom   8C    basis set group =>   1
Atom   9H    basis set group =>   2
Atom  10H    basis set group =>   2
Atom  11N    basis set group =>   3
Atom  12H    basis set group =>   2
Atom  13H    basis set group =>   2
Atom  14H    basis set group =>   2
Atom  15H    basis set group =>   2
Atom  16H    basis set group =>   2


           ************************************************************
           *        Program running with 4 parallel MPI-processes     *
           *              working on a common directory               *
           ************************************************************
------------------------------------------------------------------------------
                           ORCA GTO INTEGRAL CALCULATION
                           -- RI-GTO INTEGRALS CHOSEN --
------------------------------------------------------------------------------
------------------------------------------------------------------------------
                   ___                                                        
                  /   \      - P O W E R E D   B Y -                         
                 /     \                                                     
                 |  |  |   _    _      __       _____    __    __             
                 |  |  |  | |  | |    /  \     |  _  \  |  |  /  |          
                  \  \/   | |  | |   /    \    | | | |  |  | /  /          
                 / \  \   | |__| |  /  /\  \   | |_| |  |  |/  /          
                |  |  |   |  __  | /  /__\  \  |    /   |      \           
                |  |  |   | |  | | |   __   |  |    \   |  |\   \          
                \     /   | |  | | |  |  |  |  | |\  \  |  | \   \       
                 \___/    |_|  |_| |__|  |__|  |_| \__\ |__|  \__/        
                                                                              
                      - O R C A' S   B I G   F R I E N D -                    
                                      &                                       
                       - I N T E G R A L  F E E D E R -                       
                                                                              
 v1 FN, 2020, v2 2021                                                         
------------------------------------------------------------------------------


Reading SHARK input file butylamine_prot_aq_1.SHARKINP.tmp ... ok
----------------------
SHARK INTEGRAL PACKAGE
----------------------

Number of atoms                             ...     17
Number of basis functions                   ...    130
Number of shells                            ...     66
Maximum angular momentum                    ...      2
Integral batch strategy                     ... SHARK/LIBINT Hybrid
RI-J (if used) integral strategy            ... SPLIT-RIJ (Revised 2003 algorithm where possible)
Printlevel                                  ...      1
Contraction scheme used                     ... SEGMENTED contraction
Coulomb Range Separation                    ... NOT USED
Exchange Range Separation                   ... Long Range
   Mu parameter                             ...  0.300000
   Scaling (regular/separated)              ...  0.157706  0.842294
Finite Nucleus Model                        ... NOT USED
Auxiliary Coulomb fitting basis             ... AVAILABLE
   # of basis functions in Aux-J            ...    377
   # of shells in Aux-J                     ...    135
   Maximum angular momentum in Aux-J        ...      4
Auxiliary J/K fitting basis                 ... NOT available
Auxiliary Correlation fitting basis         ... NOT available
Auxiliary 'external' fitting basis          ... NOT available
Integral threshold                          ...     2.500000e-11
Primitive cut-off                           ...     2.500000e-12
Primitive pair pre-selection threshold      ...     2.500000e-12

Calculating pre-screening integrals         ... done (  0.0 sec) Dimension = 66
Organizing shell pair data                  ... done (  0.0 sec)
Shell pair information
Total number of shell pairs                 ...      2211
Shell pairs after pre-screening             ...      2109
Total number of primitive shell pairs       ...      7361
Primitive shell pairs kept                  ...      5533
          la=0 lb=0:    757 shell pairs
          la=1 lb=0:    818 shell pairs
          la=1 lb=1:    232 shell pairs
          la=2 lb=0:    185 shell pairs
          la=2 lb=1:    103 shell pairs
          la=2 lb=2:     14 shell pairs

Calculating one electron integrals          ... done (  0.0 sec)
Calculating RI/J V-Matrix + Cholesky decomp.... done (  0.0 sec)
Calculating Nuclear repulsion               ... done (  0.0 sec) ENN=    195.403668047499 Eh

SHARK setup successfully completed in   0.2 seconds

Maximum memory used throughout the entire GTOINT-calculation: 10.8 MB


           ************************************************************
           *        Program running with 4 parallel MPI-processes     *
           *              working on a common directory               *
           ************************************************************
-------------------------------------------------------------------------------
                                 ORCA SCF
-------------------------------------------------------------------------------

------------
SCF SETTINGS
------------
Hamiltonian:
 Density Functional     Method          .... DFT(GTOs)
 Exchange Functional    Exchange        .... WB97X
 Correlation Functional Correlation     .... WB97X
 Gradients option       PostSCFGGA      .... off
 Hybrid DFT is turned on
   Fraction HF Exchange ScalHFX         ....  0.157706
   Scaling of DF-GGA-X  ScalDFX         ....  0.000000
   Scaling of DF-GGA-C  ScalDFC         ....  1.000000
   Scaling of DF-LDA-C  ScalLDAC        ....  1.000000
   Perturbative correction              ....  0.000000
   Density functional embedding theory  .... OFF
 Long-range corrected/Screened/Range-Separated Hybrid DFT is turned on
   Amount of maximum screened exact exchange              ....  0.842294
   Range separation parameter mu (erf(mu*r12)/r12)        ....  0.300000
 RI-approximation to the Coulomb term is turned on
   Number of AuxJ basis functions       .... 377
   RIJ-COSX (HFX calculated with COS-X)).... on


General Settings:
 Integral files         IntName         .... butylamine_prot_aq_1
 Hartree-Fock type      HFTyp           .... RHF
 Total Charge           Charge          ....    1
 Multiplicity           Mult            ....    1
 Number of Electrons    NEL             ....   42
 Basis Dimension        Dim             ....  130
 Nuclear Repulsion      ENuc            ....    195.4036680475 Eh

Convergence Acceleration:
 DIIS                   CNVDIIS         .... on
   Start iteration      DIISMaxIt       ....     0
   Startup error        DIISStart       ....  0.200000
   # of expansion vecs  DIISMaxEq       ....     5
   Bias factor          DIISBfac        ....   1.050
   Max. coefficient     DIISMaxC        ....  10.000
 Trust-Rad. Augm. Hess. CNVTRAH         .... auto
   Auto Start mean grad. ratio tolernc. ....  1.125000
   Auto Start start iteration           ....    20
   Auto Start num. interpolation iter.  ....    10
   Max. Number of Micro iterations      ....    16
   Max. Number of Macro iterations      .... Maxiter - #DIIS iter
   Number of Davidson start vectors     ....     2
   Converg. threshold I  (grad. norm)   ....   1.000e-05
   Converg. threshold II (energy diff.) ....   1.000e-08
   Grad. Scal. Fac. for Micro threshold ....   0.100
   Minimum threshold for Micro iter.    ....   0.010
   NR start threshold (gradient norm)   ....   0.001
   Initial trust radius                 ....   0.400
   Minimum AH scaling param. (alpha)    ....   1.000
   Maximum AH scaling param. (alpha)    .... 1000.000
   Orbital update algorithm             .... Taylor
   White noise on init. David. guess    .... on
   Maximum white noise                  ....   0.010
   Quad. conv. algorithm                .... NR
 SOSCF                  CNVSOSCF        .... on
   Start iteration      SOSCFMaxIt      ....   150
   Startup grad/error   SOSCFStart      ....  0.001000
 Level Shifting         CNVShift        .... on
   Level shift para.    LevelShift      ....    0.2500
   Turn off err/grad.   ShiftErr        ....    0.0000
 Zerner damping         CNVZerner       .... off
 Static damping         CNVDamp         .... on
   Fraction old density DampFac         ....    0.8500
   Max. Damping (<1)    DampMax         ....    0.9800
   Min. Damping (>=0)   DampMin         ....    0.0000
   Turn off err/grad.   DampErr         ....    0.0300
 Fernandez-Rico         CNVRico         .... off

SCF Procedure:
 Maximum # iterations   MaxIter         ....   125
 SCF integral mode      SCFMode         .... Direct
   Integral package                     .... SHARK and LIBINT hybrid scheme
 Reset frequency        DirectResetFreq ....    20
 Integral Threshold     Thresh          ....  2.500e-11 Eh
 Primitive CutOff       TCut            ....  2.500e-12 Eh

Convergence Tolerance:
 Convergence Check Mode ConvCheckMode   .... Total+1el-Energy
 Convergence forced     ConvForced      .... 0
 Energy Change          TolE            ....  1.000e-08 Eh
 1-El. energy change                    ....  1.000e-05 Eh
 Orbital Gradient       TolG            ....  1.000e-05
 Orbital Rotation angle TolX            ....  1.000e-05
 DIIS Error             TolErr          ....  5.000e-07


Diagonalization of the overlap matrix:
Smallest eigenvalue                        ... 1.448e-03
Time for diagonalization                   ...    0.004 sec
Threshold for overlap eigenvalues          ... 1.000e-08
Number of eigenvalues below threshold      ... 0
Time for construction of square roots      ...    0.029 sec
Total time needed                          ...    0.034 sec

Time for model grid setup =    0.089 sec

------------------------------
INITIAL GUESS: MODEL POTENTIAL
------------------------------
Loading Hartree-Fock densities                     ... done
Calculating cut-offs                               ... done
Initializing the effective Hamiltonian             ... done
Setting up the integral package (SHARK)            ... done
Starting the Coulomb interaction                   ... done (   0.0 sec)
Reading the grid                                   ... done
Mapping shells                                     ... done
Starting the XC term evaluation                    ... done (   0.0 sec)
  promolecular density results
     # of electrons  =     42.999444991
     EX              =    -30.585948647
     EC              =     -1.391880136
     EX+EC           =    -31.977828782
Transforming the Hamiltonian                       ... done (   0.0 sec)
Diagonalizing the Hamiltonian                      ... done (   0.0 sec)
Back transforming the eigenvectors                 ... done (   0.0 sec)
Now organizing SCF variables                       ... done
                      ------------------
                      INITIAL GUESS DONE (   0.3 sec)
                      ------------------
-------------------
DFT GRID GENERATION
-------------------

General Integration Accuracy     IntAcc      ... 4.388
Radial Grid Type                 RadialGrid  ... OptM3 with GC (2021)
Angular Grid (max. ang.)         AngularGrid ... 4 (Lebedev-302)
Angular grid pruning method      GridPruning ... 4 (adaptive)
Weight generation scheme         WeightScheme... Becke
Basis function cutoff            BFCut       ... 1.0000e-11
Integration weight cutoff        WCut        ... 1.0000e-14
Angular grids for H and He will be reduced by one unit
Partially contracted basis set               ... off
Rotationally invariant grid construction     ... off

Total number of grid points                  ...    68653
Total number of batches                      ...     1079
Average number of points per batch           ...       63
Average number of grid points per atom       ...     4038
Time for grid setup =    0.362 sec

--------------------
COSX GRID GENERATION
--------------------

GRIDX 1
-------
General Integration Accuracy     IntAcc      ... 3.816
Radial Grid Type                 RadialGrid  ... OptM3 with GC (2021)
Angular Grid (max. ang.)         AngularGrid ... 1 (Lebedev-50)
Angular grid pruning method      GridPruning ... 4 (adaptive)
Weight generation scheme         WeightScheme... Becke
Basis function cutoff            BFCut       ... 1.0000e-11
Integration weight cutoff        WCut        ... 1.0000e-14
Angular grids for H and He will be reduced by one unit
Partially contracted basis set               ... on
Rotationally invariant grid construction     ... off

Total number of grid points                  ...     8854
Total number of batches                      ...      150
Average number of points per batch           ...       59
Average number of grid points per atom       ...      521
UseSFitting                                  ... on

GRIDX 2
-------
General Integration Accuracy     IntAcc      ... 4.020
Radial Grid Type                 RadialGrid  ... OptM3 with GC (2021)
Angular Grid (max. ang.)         AngularGrid ... 2 (Lebedev-110)
Angular grid pruning method      GridPruning ... 4 (adaptive)
Weight generation scheme         WeightScheme... Becke
Basis function cutoff            BFCut       ... 1.0000e-11
Integration weight cutoff        WCut        ... 1.0000e-14
Angular grids for H and He will be reduced by one unit
Partially contracted basis set               ... on
Rotationally invariant grid construction     ... off

Total number of grid points                  ...    18188
Total number of batches                      ...      296
Average number of points per batch           ...       61
Average number of grid points per atom       ...     1070
UseSFitting                                  ... on

GRIDX 3
-------
General Integration Accuracy     IntAcc      ... 4.338
Radial Grid Type                 RadialGrid  ... OptM3 with GC (2021)
Angular Grid (max. ang.)         AngularGrid ... 3 (Lebedev-194)
Angular grid pruning method      GridPruning ... 4 (adaptive)
Weight generation scheme         WeightScheme... Becke
Basis function cutoff            BFCut       ... 1.0000e-11
Integration weight cutoff        WCut        ... 1.0000e-14
Angular grids for H and He will be reduced by one unit
Partially contracted basis set               ... on
Rotationally invariant grid construction     ... off

Total number of grid points                  ...    39654
Total number of batches                      ...      628
Average number of points per batch           ...       63
Average number of grid points per atom       ...     2333
UseSFitting                                  ... on

Time for X-Grid setup             =    0.394 sec

--------------
SCF ITERATIONS
--------------
ITER       Energy         Delta-E        Max-DP      RMS-DP      [F,P]     Damp
               ***  Starting incremental Fock matrix formation  ***
  0   -213.8165898854   0.000000000000 0.03349491  0.00096367  0.1625408 0.8500
  1   -213.8456509930  -0.029061107613 0.03010719  0.00092612  0.1303292 0.8500
                               ***Turning on DIIS***
  2   -213.8675993821  -0.021948389097 0.02345753  0.00075985  0.0992480 0.8500
  3   -213.8837858703  -0.016186488219 0.01440821  0.00053707  0.0744723 0.8500
  4   -213.8962241667  -0.012438296405 0.00952609  0.00040920  0.0589010 0.8500
  5   -213.9059977401  -0.009773573414 0.00717086  0.00033514  0.0485356 0.8500
  6   -213.9139352397  -0.007937499592 0.00579393  0.00028293  0.0407697 0.8500
  7   -213.9205040690  -0.006568829288 0.00496348  0.00024418  0.0345237 0.8500
  8   -213.9260014621  -0.005497393034 0.02864665  0.00140294  0.0292005 0.0000
  9   -213.9556237924  -0.029622330351 0.00113171  0.00004177  0.0012825 0.0000
                      *** Initiating the SOSCF procedure ***
                           *** Shutting down DIIS ***
                      *** Re-Reading the Fockian *** 
                      *** Removing any level shift *** 
ITER      Energy       Delta-E        Grad      Rot      Max-DP    RMS-DP
 10   -213.95563458  -0.0000107854  0.000167  0.000167  0.000576  0.000020
               *** Restarting incremental Fock matrix formation ***
 11   -213.95561530   0.0000192729  0.000080  0.000100  0.000399  0.000013
 12   -213.95561552  -0.0000002156  0.000026  0.000043  0.000191  0.000007
 13   -213.95561554  -0.0000000192  0.000015  0.000012  0.000043  0.000002
                  ***Gradient check signals convergence***
              ***Rediagonalizing the Fockian in SOSCF/NRSCF***

               *****************************************************
               *                     SUCCESS                       *
               *           SCF CONVERGED AFTER  14 CYCLES          *
               *****************************************************

Old exchange energy                            =    -10.467062226 Eh
New exchange energy                            =    -10.467051006 Eh
Exchange energy change after final integration =      0.000011220 Eh
Total energy after final integration           =   -213.955604326 Eh
Final COS-X integration done in                =     3.378 sec

----------------
TOTAL SCF ENERGY
----------------

Total Energy       :         -213.95560433 Eh           -5822.02798 eV

Components:
Nuclear Repulsion  :          195.40366805 Eh            5317.20413 eV
Electronic Energy  :         -409.35927237 Eh          -11139.23211 eV
One Electron Energy:         -665.11120766 Eh          -18098.59608 eV
Two Electron Energy:          255.75193529 Eh            6959.36397 eV
Max COSX asymmetry :            0.00000398 Eh               0.00011 eV

Virial components:
Potential Energy   :         -425.29058626 Eh          -11572.74520 eV
Kinetic Energy     :          211.33498194 Eh            5750.71722 eV
Virial Ratio       :            2.01240032


DFT components:
N(Alpha)           :       20.999956382508 electrons
N(Beta)            :       20.999956382508 electrons
N(Total)           :       41.999912765017 electrons
E(XC)              :      -22.314010813431 Eh       
DFET-embed. en.    :        0.000000000000 Eh       

---------------
SCF CONVERGENCE
---------------

  Last Energy change         ...   -6.5800e-09  Tolerance :   1.0000e-08
  Last MAX-Density change    ...    1.3323e-15  Tolerance :   1.0000e-07
  Last RMS-Density change    ...    3.2994e-17  Tolerance :   5.0000e-09
  Last Orbital Gradient      ...    1.2261e-06  Tolerance :   1.0000e-05
  Last Orbital Rotation      ...    1.3179e-06  Tolerance :   1.0000e-05

             **** THE GBW FILE WAS UPDATED (butylamine_prot_aq_1.gbw) ****
             **** DENSITY butylamine_prot_aq_1.scfp WAS UPDATED ****
             **** ENERGY FILE WAS UPDATED (butylamine_prot_aq_1.en.tmp) ****
             **** THE GBW FILE WAS UPDATED (butylamine_prot_aq_1.gbw) ****
             **** DENSITY butylamine_prot_aq_1.scfp WAS UPDATED ****
----------------
ORBITAL ENERGIES
----------------

  NO   OCC          E(Eh)            E(eV) 
   0   2.0000     -14.744490      -401.2180 
   1   2.0000     -10.514849      -286.1236 
   2   2.0000     -10.441353      -284.1237 
   3   2.0000     -10.407426      -283.2005 
   4   2.0000     -10.376005      -282.3455 
   5   2.0000      -1.333100       -36.2755 
   6   2.0000      -1.098358       -29.8878 
   7   2.0000      -1.015975       -27.6461 
   8   2.0000      -0.938648       -25.5419 
   9   2.0000      -0.910484       -24.7755 
  10   2.0000      -0.897463       -24.4212 
  11   2.0000      -0.843352       -22.9488 
  12   2.0000      -0.798854       -21.7379 
  13   2.0000      -0.759607       -20.6700 
  14   2.0000      -0.693716       -18.8770 
  15   2.0000      -0.688441       -18.7334 
  16   2.0000      -0.649604       -17.6766 
  17   2.0000      -0.626256       -17.0413 
  18   2.0000      -0.589778       -16.0487 
  19   2.0000      -0.577265       -15.7082 
  20   2.0000      -0.569985       -15.5101 
  21   0.0000      -0.083917        -2.2835 
  22   0.0000      -0.023032        -0.6267 
  23   0.0000      -0.019866        -0.5406 
  24   0.0000      -0.001098        -0.0299 
  25   0.0000       0.038995         1.0611 
  26   0.0000       0.044949         1.2231 
  27   0.0000       0.055317         1.5053 
  28   0.0000       0.080601         2.1933 
  29   0.0000       0.084162         2.2902 
  30   0.0000       0.118183         3.2159 
  31   0.0000       0.119629         3.2553 
  32   0.0000       0.128647         3.5007 
  33   0.0000       0.143453         3.9036 
  34   0.0000       0.146751         3.9933 
  35   0.0000       0.168205         4.5771 
  36   0.0000       0.209987         5.7140 
  37   0.0000       0.312004         8.4901 
  38   0.0000       0.329840         8.9754 
  39   0.0000       0.343065         9.3353 
  40   0.0000       0.358743         9.7619 
  41   0.0000       0.377609        10.2753 
  42   0.0000       0.414045        11.2667 
  43   0.0000       0.425261        11.5719 
  44   0.0000       0.475119        12.9287 
  45   0.0000       0.492788        13.4095 
  46   0.0000       0.538296        14.6478 
  47   0.0000       0.548175        14.9166 
  48   0.0000       0.573172        15.5968 
  49   0.0000       0.578675        15.7466 
  50   0.0000       0.587011        15.9734 
  51   0.0000       0.604359        16.4454 
  52   0.0000       0.624899        17.0044 
  53   0.0000       0.629203        17.1215 
  54   0.0000       0.642194        17.4750 
  55   0.0000       0.647439        17.6177 
  56   0.0000       0.661484        17.9999 
  57   0.0000       0.689258        18.7557 
  58   0.0000       0.694373        18.8949 
  59   0.0000       0.699772        19.0418 
  60   0.0000       0.699953        19.0467 
  61   0.0000       0.711610        19.3639 
  62   0.0000       0.733684        19.9645 
  63   0.0000       0.811344        22.0778 
  64   0.0000       0.850885        23.1538 
  65   0.0000       0.909793        24.7567 
  66   0.0000       0.969293        26.3758 
  67   0.0000       1.002891        27.2901 
  68   0.0000       1.041590        28.3431 
  69   0.0000       1.093398        29.7529 
  70   0.0000       1.144370        31.1399 
  71   0.0000       1.187407        32.3110 
  72   0.0000       1.242815        33.8187 
  73   0.0000       1.264902        34.4197 
  74   0.0000       1.320437        35.9309 
  75   0.0000       1.353576        36.8327 
  76   0.0000       1.376580        37.4587 
  77   0.0000       1.402201        38.1558 
  78   0.0000       1.498313        40.7712 
  79   0.0000       1.546437        42.0807 
  80   0.0000       1.626543        44.2605 
  81   0.0000       1.673727        45.5444 
  82   0.0000       1.679854        45.7111 
  83   0.0000       1.728164        47.0257 
  84   0.0000       1.732826        47.1526 
  85   0.0000       1.734644        47.2021 
  86   0.0000       1.746617        47.5279 
  87   0.0000       1.769879        48.1609 
  88   0.0000       1.770076        48.1662 
  89   0.0000       1.791417        48.7469 
  90   0.0000       1.803295        49.0701 
  91   0.0000       1.813006        49.3344 
  92   0.0000       1.819523        49.5117 
  93   0.0000       1.829017        49.7701 
  94   0.0000       1.856041        50.5054 
  95   0.0000       1.868944        50.8566 
  96   0.0000       1.871530        50.9269 
  97   0.0000       1.884337        51.2754 
  98   0.0000       1.934173        52.6315 
  99   0.0000       1.950836        53.0850 
 100   0.0000       1.955714        53.2177 
 101   0.0000       2.044047        55.6213 
 102   0.0000       2.068596        56.2893 
 103   0.0000       2.085455        56.7481 
 104   0.0000       2.242084        61.0102 
 105   0.0000       2.255586        61.3776 
 106   0.0000       2.283209        62.1293 
 107   0.0000       2.326062        63.2954 
 108   0.0000       2.358044        64.1656 
 109   0.0000       2.387481        64.9667 
 110   0.0000       2.414771        65.7093 
 111   0.0000       2.440081        66.3980 
 112   0.0000       2.449129        66.6442 
 113   0.0000       2.544036        69.2267 
 114   0.0000       2.581942        70.2582 
 115   0.0000       2.595300        70.6217 
 116   0.0000       2.604853        70.8817 
 117   0.0000       2.644152        71.9510 
 118   0.0000       2.736585        74.4663 
 119   0.0000       2.817858        76.6778 
 120   0.0000       2.845362        77.4262 
 121   0.0000       2.865365        77.9706 
 122   0.0000       2.898899        78.8831 
 123   0.0000       2.942623        80.0728 
 124   0.0000       2.999721        81.6266 
 125   0.0000       3.029891        82.4475 
 126   0.0000       3.036277        82.6213 
 127   0.0000       3.064592        83.3918 
 128   0.0000       3.152177        85.7751 
 129   0.0000       3.169749        86.2533 

                    ********************************
                    * MULLIKEN POPULATION ANALYSIS *
                    ********************************

-----------------------
MULLIKEN ATOMIC CHARGES
-----------------------
   0 C :   -0.018486
   1 C :   -0.093086
   2 H :    0.065644
   3 H :    0.041206
   4 H :    0.041189
   5 C :   -0.115981
   6 H :    0.048353
   7 H :    0.048586
   8 C :    0.009428
   9 H :    0.050637
  10 H :    0.050709
  11 N :    0.001502
  12 H :    0.102677
  13 H :    0.102852
  14 H :    0.220138
  15 H :    0.220116
  16 H :    0.224515
Sum of atomic charges:    1.0000000

--------------------------------
MULLIKEN REDUCED ORBITAL CHARGES
--------------------------------
  0 C s       :     3.001768  s :     3.001768
      pz      :     1.005003  p :     2.988922
      px      :     0.960249
      py      :     1.023670
      dz2     :     0.003009  d :     0.027796
      dxz     :     0.007411
      dyz     :     0.007004
      dx2y2   :     0.008115
      dxy     :     0.002256
  1 C s       :     3.055095  s :     3.055095
      pz      :     1.011292  p :     3.001303
      px      :     0.953636
      py      :     1.036376
      dz2     :     0.004828  d :     0.036688
      dxz     :     0.009150
      dyz     :     0.008603
      dx2y2   :     0.009866
      dxy     :     0.004241
  2 H s       :     0.910081  s :     0.910081
      pz      :     0.008037  p :     0.024275
      px      :     0.011159
      py      :     0.005079
  3 H s       :     0.934419  s :     0.934419
      pz      :     0.011070  p :     0.024375
      px      :     0.004348
      py      :     0.008957
  4 H s       :     0.934439  s :     0.934439
      pz      :     0.005977  p :     0.024373
      px      :     0.004318
      py      :     0.014077
  5 C s       :     3.054524  s :     3.054524
      pz      :     1.042914  p :     3.026123
      px      :     0.946359
      py      :     1.036851
      dz2     :     0.004696  d :     0.035335
      dxz     :     0.008324
      dyz     :     0.008750
      dx2y2   :     0.009441
      dxy     :     0.004124
  6 H s       :     0.928763  s :     0.928763
      pz      :     0.005421  p :     0.022883
      px      :     0.003502
      py      :     0.013961
  7 H s       :     0.928530  s :     0.928530
      pz      :     0.010716  p :     0.022884
      px      :     0.003493
      py      :     0.008675
  8 C s       :     3.045286  s :     3.045286
      pz      :     0.966673  p :     2.899462
      px      :     0.820856
      py      :     1.111933
      dz2     :     0.005411  d :     0.045824
      dxz     :     0.014531
      dyz     :     0.008459
      dx2y2   :     0.012071
      dxy     :     0.005353
  9 H s       :     0.926386  s :     0.926386
      pz      :     0.005280  p :     0.022977
      px      :     0.003450
      py      :     0.014246
 10 H s       :     0.926311  s :     0.926311
      pz      :     0.010762  p :     0.022980
      px      :     0.003486
      py      :     0.008732
 11 N s       :     3.299378  s :     3.299378
      pz      :     1.224469  p :     3.681006
      px      :     1.245937
      py      :     1.210601
      dz2     :     0.002764  d :     0.018114
      dxz     :     0.003759
      dyz     :     0.004725
      dx2y2   :     0.005272
      dxy     :     0.001593
 12 H s       :     0.874539  s :     0.874539
      pz      :     0.005196  p :     0.022784
      px      :     0.002465
      py      :     0.015123
 13 H s       :     0.874363  s :     0.874363
      pz      :     0.011521  p :     0.022785
      px      :     0.002449
      py      :     0.008815
 14 H s       :     0.736096  s :     0.736096
      pz      :     0.009966  p :     0.043766
      px      :     0.007139
      py      :     0.026660
 15 H s       :     0.736109  s :     0.736109
      pz      :     0.020310  p :     0.043774
      px      :     0.007153
      py      :     0.016312
 16 H s       :     0.731939  s :     0.731939
      pz      :     0.013383  p :     0.043546
      px      :     0.021696
      py      :     0.008467


                     *******************************
                     * LOEWDIN POPULATION ANALYSIS *
                     *******************************

----------------------
LOEWDIN ATOMIC CHARGES
----------------------
   0 C :   -0.048413
   1 C :   -0.033080
   2 H :    0.043210
   3 H :    0.030806
   4 H :    0.030819
   5 C :   -0.048930
   6 H :    0.032029
   7 H :    0.032077
   8 C :    0.051751
   9 H :    0.033064
  10 H :    0.033056
  11 N :    0.295349
  12 H :    0.053362
  13 H :    0.053380
  14 H :    0.146623
  15 H :    0.146630
  16 H :    0.148268

-------------------------------
LOEWDIN REDUCED ORBITAL CHARGES
-------------------------------
  0 C s       :     2.824847  s :     2.824847
      pz      :     1.058134  p :     3.151747
      px      :     1.021623
      py      :     1.071989
      dz2     :     0.007054  d :     0.071820
      dxz     :     0.020256
      dyz     :     0.017721
      dx2y2   :     0.022073
      dxy     :     0.004715
  1 C s       :     2.827581  s :     2.827581
      pz      :     1.042547  p :     3.116109
      px      :     1.002271
      py      :     1.071291
      dz2     :     0.010423  d :     0.089390
      dxz     :     0.023993
      dyz     :     0.020912
      dx2y2   :     0.025876
      dxy     :     0.008186
  2 H s       :     0.889422  s :     0.889422
      pz      :     0.022243  p :     0.067368
      px      :     0.031499
      py      :     0.013626
  3 H s       :     0.902247  s :     0.902247
      pz      :     0.030223  p :     0.066947
      px      :     0.013047
      py      :     0.023677
  4 H s       :     0.902233  s :     0.902233
      pz      :     0.016392  p :     0.066948
      px      :     0.012985
      py      :     0.037571
  5 C s       :     2.834895  s :     2.834895
      pz      :     1.052362  p :     3.125601
      px      :     1.002086
      py      :     1.071153
      dz2     :     0.010630  d :     0.088434
      dxz     :     0.022511
      dyz     :     0.021281
      dx2y2   :     0.025844
      dxy     :     0.008167
  6 H s       :     0.900611  s :     0.900611
      pz      :     0.016533  p :     0.067360
      px      :     0.013112
      py      :     0.037715
  7 H s       :     0.900562  s :     0.900562
      pz      :     0.030720  p :     0.067361
      px      :     0.013092
      py      :     0.023550
  8 C s       :     2.839985  s :     2.839985
      pz      :     1.000980  p :     3.003120
      px      :     0.900547
      py      :     1.101593
      dz2     :     0.011207  d :     0.105144
      dxz     :     0.034018
      dyz     :     0.020231
      dx2y2   :     0.030074
      dxy     :     0.009615
  9 H s       :     0.898330  s :     0.898330
      pz      :     0.016784  p :     0.068606
      px      :     0.013429
      py      :     0.038393
 10 H s       :     0.898340  s :     0.898340
      pz      :     0.031285  p :     0.068604
      px      :     0.013518
      py      :     0.023801
 11 N s       :     2.996307  s :     2.996307
      pz      :     1.221831  p :     3.662417
      px      :     1.227454
      py      :     1.213132
      dz2     :     0.005958  d :     0.045927
      dxz     :     0.010518
      dyz     :     0.012188
      dx2y2   :     0.014321
      dxy     :     0.002943
 12 H s       :     0.877594  s :     0.877594
      pz      :     0.016615  p :     0.069044
      px      :     0.010241
      py      :     0.042188
 13 H s       :     0.877576  s :     0.877576
      pz      :     0.033891  p :     0.069043
      px      :     0.010192
      py      :     0.024960
 14 H s       :     0.743710  s :     0.743710
      pz      :     0.024778  p :     0.109667
      px      :     0.018700
      py      :     0.066189
 15 H s       :     0.743701  s :     0.743701
      pz      :     0.052315  p :     0.109669
      px      :     0.018724
      py      :     0.038629
 16 H s       :     0.741416  s :     0.741416
      pz      :     0.033311  p :     0.110317
      px      :     0.058192
      py      :     0.018814


                      *****************************
                      * MAYER POPULATION ANALYSIS *
                      *****************************

  NA   - Mulliken gross atomic population
  ZA   - Total nuclear charge
  QA   - Mulliken gross atomic charge
  VA   - Mayer's total valence
  BVA  - Mayer's bonded valence
  FA   - Mayer's free valence

  ATOM       NA         ZA         QA         VA         BVA        FA
  0 C      6.0185     6.0000    -0.0185     4.0148     4.0148     0.0000
  1 C      6.0931     6.0000    -0.0931     4.0994     4.0994    -0.0000
  2 H      0.9344     1.0000     0.0656     0.9901     0.9901    -0.0000
  3 H      0.9588     1.0000     0.0412     0.9914     0.9914     0.0000
  4 H      0.9588     1.0000     0.0412     0.9915     0.9915     0.0000
  5 C      6.1160     6.0000    -0.1160     4.0219     4.0219    -0.0000
  6 H      0.9516     1.0000     0.0484     0.9780     0.9780    -0.0000
  7 H      0.9514     1.0000     0.0486     0.9779     0.9779    -0.0000
  8 C      5.9906     6.0000     0.0094     3.8997     3.8997    -0.0000
  9 H      0.9494     1.0000     0.0506     0.9857     0.9857     0.0000
 10 H      0.9493     1.0000     0.0507     0.9857     0.9857    -0.0000
 11 N      6.9985     7.0000     0.0015     3.7168     3.7168    -0.0000
 12 H      0.8973     1.0000     0.1027     0.9839     0.9839    -0.0000
 13 H      0.8971     1.0000     0.1029     0.9838     0.9838    -0.0000
 14 H      0.7799     1.0000     0.2201     0.9617     0.9617    -0.0000
 15 H      0.7799     1.0000     0.2201     0.9618     0.9618    -0.0000
 16 H      0.7755     1.0000     0.2245     0.9547     0.9547    -0.0000

  Mayer bond orders larger than 0.100000
B(  0-C ,  1-C ) :   1.0896 B(  0-C ,  2-H ) :   0.9701 B(  0-C ,  3-H ) :   0.9754 
B(  0-C ,  4-H ) :   0.9755 B(  1-C ,  5-C ) :   1.0579 B(  1-C ,  6-H ) :   0.9564 
B(  1-C ,  7-H ) :   0.9565 B(  5-C ,  8-C ) :   1.0533 B(  5-C ,  9-H ) :   0.9500 
B(  5-C , 10-H ) :   0.9501 B(  8-C , 11-N ) :   0.9250 B(  8-C , 12-H ) :   0.9524 
B(  8-C , 13-H ) :   0.9524 B( 11-N , 14-H ) :   0.9319 B( 11-N , 15-H ) :   0.9319 
B( 11-N , 16-H ) :   0.9295 

-------
TIMINGS
-------

Total SCF time: 0 days 0 hours 0 min 24 sec 

Total time                  ....      24.799 sec
Sum of individual times     ....      24.478 sec  ( 98.7%)

Fock matrix formation       ....      23.277 sec  ( 93.9%)
  Split-RI-J                ....       1.072 sec  (  4.6% of F)
  Chain of spheres X        ....      18.011 sec  ( 77.4% of F)
  XC integration            ....       3.770 sec  ( 16.2% of F)
    Basis function eval.    ....       1.234 sec  ( 32.7% of XC)
    Density eval.           ....       0.615 sec  ( 16.3% of XC)
    XC-Functional eval.     ....       0.563 sec  ( 14.9% of XC)
    XC-Potential eval.      ....       0.701 sec  ( 18.6% of XC)
Diagonalization             ....       0.065 sec  (  0.3%)
Density matrix formation    ....       0.046 sec  (  0.2%)
Population analysis         ....       0.007 sec  (  0.0%)
Initial guess               ....       0.181 sec  (  0.7%)
Orbital Transformation      ....       0.000 sec  (  0.0%)
Orbital Orthonormalization  ....       0.000 sec  (  0.0%)
DIIS solution               ....       0.042 sec  (  0.2%)
SOSCF solution              ....       0.015 sec  (  0.1%)
Grid generation             ....       0.845 sec  (  3.4%)

Maximum memory used throughout the entire SCF-calculation: 50.2 MB


-------------------------------------------------------------------------------
                          DFT DISPERSION CORRECTION                            
                                                                               
                                 DFTD4 V2.5                                    
-------------------------------------------------------------------------------
The WB97X functional is recognized
Active option DFTDOPT                   ...         5   

Starting D4
-------------------------   ----------------
Dispersion correction           -0.001258156
-------------------------   ----------------


-------------------------   --------------------
FINAL SINGLE POINT ENERGY      -213.956862481663
-------------------------   --------------------



           ************************************************************
           *        Program running with 4 parallel MPI-processes     *
           *              working on a common directory               *
           ************************************************************
------------------------------------------------------------------------------
                         ORCA SCF GRADIENT CALCULATION
------------------------------------------------------------------------------

 ... reading COSX grid (gridx3)
Gradient of the Kohn-Sham DFT energy:
Kohn-Sham wavefunction type      ... RKS
Hartree-Fock exchange scaling    ...    0.158
Number of operators              ...    1
Number of atoms                  ...   17
Basis set dimensions             ...  130
Integral neglect threshold       ... 2.5e-11
Integral primitive cutoff        ... 2.5e-12
SHARK Integral package           ... ON

Nuc. rep. gradient       (SHARK) ... done (  0.0 sec)
HCore & Overlap gradient (SHARK) ... done (  0.0 sec)
RI-J gradient            (SHARK) ... done (  0.2 sec)
COSX-gradient                    ... done (  3.7 sec)
Exchange-correlation gradient    ... done
Dispersion correction            ... Starting D4
Starting D4
Starting D4
Starting D4


------------------- 
Dispersion Gradient 
------------------- 
   1  :   -0.000026092   -0.000001254    0.000003682
   2  :   -0.000013105    0.000001931   -0.000007258
   3  :   -0.000005324   -0.000000192    0.000000524
   4  :   -0.000007415   -0.000000378   -0.000000341
   5  :   -0.000007418    0.000000385   -0.000000127
   6  :   -0.000000519   -0.000001154    0.000004058
   7  :   -0.000005762   -0.000000179    0.000000069
   8  :   -0.000005764    0.000000024    0.000000125
   9  :    0.000009194    0.000002270   -0.000007765
  10  :    0.000000585    0.000000711   -0.000001274
  11  :    0.000000588    0.000000066   -0.000001457
  12  :    0.000023471   -0.000000031    0.000000832
  13  :    0.000006149   -0.000000705    0.000001078
  14  :    0.000006139    0.000000133    0.000001315
  15  :    0.000006111   -0.000006892    0.000003473
  16  :    0.000006010    0.000004144    0.000006597
  17  :    0.000013151    0.000001119   -0.000003532

  |G| =    0.000045463

done

------------------
CARTESIAN GRADIENT
------------------

   1   C   :   -0.007487122   -0.001650569    0.005994620
   2   C   :    0.003761631    0.003138734   -0.011573948
   3   H   :    0.006608934   -0.001060023    0.003940260
   4   H   :    0.001500995   -0.005181776   -0.007231163
   5   H   :    0.001355214    0.008213833   -0.003413021
   6   C   :   -0.000651981   -0.004029258    0.014967859
   7   H   :   -0.001584055   -0.006786190    0.004290366
   8   H   :   -0.001658573    0.003416989    0.007290773
   9   C   :    0.019035635    0.001934684   -0.006552578
  10   H   :   -0.001163493    0.008031756   -0.004705967
  11   H   :   -0.001010426   -0.004314621   -0.008314152
  12   N   :   -0.002447522   -0.001153415    0.003849134
  13   H   :   -0.004955752   -0.005704355    0.001855847
  14   H   :   -0.005060189    0.003742900    0.004609917
  15   H   :   -0.002671895   -0.002839143   -0.001048125
  16   H   :   -0.002721737    0.002978861    0.000601264
  17   H   :   -0.000743643    0.001280502   -0.004515783

Difference to translation invariance:
           :    0.0001060210    0.0000189084    0.0000453034

Difference to rotation invariance:
           :   -0.0014909449    0.0003371528   -0.0002204899

Norm of the cartesian gradient     ...    0.0404409876
RMS gradient                       ...    0.0056628709
MAX gradient                       ...    0.0190356348

-------
TIMINGS
-------

Total SCF gradient time            ...        5.357 sec

One electron gradient       ....       0.043 sec  (  0.8%)
RI-J Coulomb gradient       ....       0.235 sec  (  4.4%)
COSX gradient               ....       3.727 sec  ( 69.6%)
XC gradient                 ....       1.078 sec  ( 20.1%)

Maximum memory used throughout the entire SCFGRAD-calculation: 38.7 MB
------------------------------------------------------------------------------
                         ORCA GEOMETRY RELAXATION STEP
------------------------------------------------------------------------------

Reading the OPT-File                    .... done
Getting information on internals        .... done
Copying old internal coords+grads       .... done
Making the new internal coordinates     .... (new redundants).... done
Validating the new internal coordinates .... (new redundants).... done
Calculating the B-matrix                .... done
Calculating the G,G- and P matrices     .... done
Transforming gradient to internals      .... done
Projecting the internal gradient        .... done
Number of atoms                         ....  17
Number of internal coordinates          ....  82
Current Energy                          ....  -213.956862482 Eh
Current gradient norm                   ....     0.040440988 Eh/bohr
Maximum allowed component of the step   ....  0.300
Current trust radius                    ....  0.300
Evaluating the initial hessian          ....  (Almloef) done
Projecting the Hessian                  .... done
Forming the augmented Hessian           .... done
Diagonalizing the augmented Hessian     .... done
Last element of RFO vector              ....  0.995060492
Lowest eigenvalues of augmented Hessian:
 -0.002689813  0.011201348  0.011593571  0.011594930  0.013711177
Length of the computed step             ....  0.099763201
The final length of the internal step   ....  0.099763201
Converting the step to cartesian space:
 Initial RMS(Int)=    0.0110170026
Transforming coordinates:
 Iter   0:  RMS(Cart)=    0.0186711140 RMS(Int)=    1.3854609400
 Iter   1:  RMS(Cart)=    0.0001542583 RMS(Int)=    0.0001018506
 Iter   2:  RMS(Cart)=    0.0000021547 RMS(Int)=    0.0000014123
 Iter   3:  RMS(Cart)=    0.0000000195 RMS(Int)=    0.0000000158
done
Storing new coordinates                 .... done

                                .--------------------.
          ----------------------|Geometry convergence|-------------------------
          Item                value                   Tolerance       Converged
          ---------------------------------------------------------------------
          RMS gradient        0.0032154899            0.0001000000      NO
          MAX gradient        0.0091519210            0.0003000000      NO
          RMS step            0.0110170026            0.0020000000      NO
          MAX step            0.0253264042            0.0040000000      NO
          ........................................................
          Max(Bonds)      0.0134      Max(Angles)    1.07
          Max(Dihed)        1.08      Max(Improp)    0.00
          ---------------------------------------------------------------------

The optimization has not yet converged - more geometry cycles are needed


    ---------------------------------------------------------------------------
                         Redundant Internal Coordinates
                            (Angstroem and degrees)

        Definition                    Value    dE/dq     Step     New-Value
    ----------------------------------------------------------------------------
     1. B(C   1,C   0)                1.5243 -0.002076  0.0029    1.5271   
     2. B(H   2,C   0)                1.0874 -0.007722  0.0112    1.0986   
     3. B(H   3,C   0)                1.0879 -0.008977  0.0130    1.1009   
     4. B(H   4,C   0)                1.0879 -0.008929  0.0129    1.1008   
     5. B(C   5,C   1)                1.5293 -0.001534  0.0022    1.5314   
     6. B(H   6,C   1)                1.0913 -0.007851  0.0115    1.1028   
     7. B(H   7,C   1)                1.0913 -0.007889  0.0116    1.1029   
     8. B(C   8,C   5)                1.5243  0.000983 -0.0014    1.5230   
     9. B(H   9,C   5)                1.0911 -0.009104  0.0133    1.1044   
    10. B(H  10,C   5)                1.0911 -0.009152  0.0134    1.1045   
    11. B(N  11,C   8)                1.4903 -0.007589  0.0103    1.5006   
    12. B(H  12,C   8)                1.0905 -0.006085  0.0089    1.0994   
    13. B(H  13,C   8)                1.0905 -0.006135  0.0090    1.0994   
    14. B(H  14,N  11)                1.0309  0.002323 -0.0030    1.0278   
    15. B(H  15,N  11)                1.0309  0.002358 -0.0031    1.0278   
    16. B(H  16,N  11)                1.0300  0.001893 -0.0025    1.0275   
    17. A(H   3,C   0,H   4)          108.33  0.001049   -0.17    108.17   
    18. A(C   1,C   0,H   4)          110.89 -0.001098    0.21    111.10   
    19. A(C   1,C   0,H   2)          110.56 -0.000574    0.10    110.66   
    20. A(H   2,C   0,H   4)          108.03  0.000912   -0.18    107.85   
    21. A(H   2,C   0,H   3)          108.03  0.000928   -0.19    107.84   
    22. A(C   1,C   0,H   3)          110.89 -0.001084    0.20    111.10   
    23. A(C   0,C   1,C   5)          111.31 -0.002007    0.53    111.84   
    24. A(H   6,C   1,H   7)          107.76  0.000631   -0.61    107.15   
    25. A(C   5,C   1,H   7)          109.78  0.001205   -0.28    109.50   
    26. A(C   0,C   1,H   7)          109.07 -0.000485    0.30    109.37   
    27. A(C   5,C   1,H   6)          109.78  0.001195   -0.28    109.50   
    28. A(C   0,C   1,H   6)          109.07 -0.000474    0.30    109.37   
    29. A(C   1,C   5,H   9)          108.43 -0.000728    0.36    108.78   
    30. A(C   1,C   5,C   8)          110.88 -0.001320    0.40    111.29   
    31. A(C   8,C   5,H   9)          110.33  0.001021   -0.26    110.07   
    32. A(H   9,C   5,H  10)          108.38  0.000667   -0.56    107.82   
    33. A(C   8,C   5,H  10)          110.32  0.000984   -0.26    110.06   
    34. A(C   1,C   5,H  10)          108.43 -0.000636    0.32    108.75   
    35. A(H  12,C   8,H  13)          108.59 -0.000336   -0.08    108.51   
    36. A(N  11,C   8,H  13)          108.93  0.003548   -1.06    107.88   
    37. A(C   5,C   8,H  13)          109.83 -0.001980    0.84    110.67   
    38. A(N  11,C   8,H  12)          108.93  0.003595   -1.07    107.87   
    39. A(C   5,C   8,H  12)          109.82 -0.002019    0.85    110.67   
    40. A(C   5,C   8,N  11)          110.69 -0.002681    0.48    111.17   
    41. A(H  15,N  11,H  16)          108.85  0.003679   -0.62    108.23   
    42. A(H  14,N  11,H  16)          108.84  0.003694   -0.62    108.22   
    43. A(C   8,N  11,H  16)          110.80 -0.004674    0.89    111.69   
    44. A(H  14,N  11,H  15)          108.31  0.003309   -0.71    107.60   
    45. A(C   8,N  11,H  15)          109.99 -0.002823    0.50    110.49   
    46. A(C   8,N  11,H  14)          109.99 -0.002875    0.51    110.50   
    47. D(H   6,C   1,C   0,H   4)    178.53  0.000153   -0.16    178.37   
    48. D(H   7,C   1,C   0,H   4)     61.09 -0.000059    0.22     61.31   
    49. D(H   7,C   1,C   0,H   3)   -178.51 -0.000192    0.29   -178.22   
    50. D(H   6,C   1,C   0,H   2)     58.73  0.000102   -0.14     58.59   
    51. D(C   5,C   1,C   0,H   4)    -60.19  0.000044    0.03    -60.16   
    52. D(H   6,C   1,C   0,H   3)    -61.07  0.000021   -0.10    -61.17   
    53. D(C   5,C   1,C   0,H   3)     60.21 -0.000088    0.10     60.30   
    54. D(C   5,C   1,C   0,H   2)   -179.99 -0.000007    0.06   -179.94   
    55. D(H   7,C   1,C   0,H   2)    -58.72 -0.000111    0.25    -58.47   
    56. D(H   9,C   5,C   1,H   6)    179.67 -0.001085    0.40    180.07   
    57. D(C   8,C   5,C   1,H   7)     59.22  0.001102   -0.52     58.70   
    58. D(C   8,C   5,C   1,H   6)    -59.07 -0.001113    0.56    -58.51   
    59. D(C   8,C   5,C   1,C   0)   -179.92 -0.000009    0.02   -179.90   
    60. D(H   9,C   5,C   1,H   7)    -62.05  0.001131   -0.68    -62.73   
    61. D(H  10,C   5,C   1,H   7)   -179.52  0.001087   -0.39   -179.91   
    62. D(H  10,C   5,C   1,H   6)     62.20 -0.001129    0.69     62.89   
    63. D(H  10,C   5,C   1,C   0)    -58.66 -0.000024    0.15    -58.51   
    64. D(H   9,C   5,C   1,C   0)     58.81  0.000019   -0.14     58.67   
    65. D(H  13,C   8,C   5,H   9)     60.46  0.000391   -0.05     60.40   
    66. D(H  13,C   8,C   5,C   1)    -59.68  0.001490   -0.59    -60.27   
    67. D(H  12,C   8,C   5,H  10)    -60.46 -0.000379   -0.14    -60.61   
    68. D(H  12,C   8,C   5,H   9)    179.82 -0.002486    0.89    180.70   
    69. D(H  12,C   8,C   5,C   1)     59.67 -0.001388    0.35     60.02   
    70. D(N  11,C   8,C   5,H  10)     59.86  0.001077   -0.62     59.24   
    71. D(N  11,C   8,C   5,H   9)    -59.86 -0.001031    0.41    -59.45   
    72. D(H  13,C   8,C   5,H  10)   -179.82  0.002499   -1.08   -180.90   
    73. D(N  11,C   8,C   5,C   1)    179.99  0.000068   -0.13    179.87   
    74. D(H  15,N  11,C   8,C   5)    -59.57 -0.000247    0.07    -59.49   
    75. D(H  14,N  11,C   8,H  13)    -61.20  0.002134   -0.84    -62.04   
    76. D(H  14,N  11,C   8,H  12)   -179.50 -0.001564    0.47   -179.03   
    77. D(H  14,N  11,C   8,C   5)     59.65  0.000294   -0.18     59.47   
    78. D(H  16,N  11,C   8,H  13)     59.18  0.001856   -0.71     58.48   
    79. D(H  16,N  11,C   8,H  12)    -59.11 -0.001842    0.61    -58.51   
    80. D(H  16,N  11,C   8,C   5)   -179.96  0.000016   -0.05   -180.01   
    81. D(H  15,N  11,C   8,H  13)    179.58  0.001593   -0.58    178.99   
    82. D(H  15,N  11,C   8,H  12)     61.28 -0.002105    0.73     62.01   
    ----------------------------------------------------------------------------

         *************************************************************
         *                GEOMETRY OPTIMIZATION CYCLE   2            *
         *************************************************************
---------------------------------
CARTESIAN COORDINATES (ANGSTROEM)
---------------------------------
  C     -2.601724   -0.083781    0.221974
  C     -1.307316    0.145394   -0.555309
  H     -3.475639    0.090183   -0.420559
  H     -2.673908    0.599885    1.081806
  H     -2.660194   -1.116441    0.598753
  C     -0.070240   -0.091635    0.315706
  H     -1.291811    1.177433   -0.943782
  H     -1.279181   -0.530407   -1.426446
  C      1.212772    0.142511   -0.470707
  H     -0.097108   -1.127731    0.697148
  H     -0.111787    0.589433    1.184216
  N      2.423168   -0.087295    0.386004
  H      1.255630    1.175401   -0.844743
  H      1.272110   -0.541859   -1.329124
  H      2.432111   -1.050197    0.745459
  H      2.416673    0.546443    1.195161
  H      3.293748    0.068419   -0.137156

----------------------------
CARTESIAN COORDINATES (A.U.)
----------------------------
  NO LB      ZA    FRAG     MASS         X           Y           Z
   0 C     6.0000    0    12.011   -4.916546   -0.158323    0.419470
   1 C     6.0000    0    12.011   -2.470469    0.274754   -1.049382
   2 H     1.0000    0     1.008   -6.568006    0.170421   -0.794742
   3 H     1.0000    0     1.008   -5.052954    1.133618    2.044318
   4 H     1.0000    0     1.008   -5.027038   -2.109769    1.131479
   5 C     6.0000    0    12.011   -0.132735   -0.173164    0.596597
   6 H     1.0000    0     1.008   -2.441169    2.225026   -1.783489
   7 H     1.0000    0     1.008   -2.417302   -1.002325   -2.695592
   8 C     6.0000    0    12.011    2.291806    0.269307   -0.889508
   9 H     1.0000    0     1.008   -0.183507   -2.131104    1.317419
  10 H     1.0000    0     1.008   -0.211247    1.113867    2.237844
  11 N     7.0000    0    14.007    4.579124   -0.164964    0.729441
  12 H     1.0000    0     1.008    2.372796    2.221187   -1.596333
  13 H     1.0000    0     1.008    2.403939   -1.023964   -2.511681
  14 H     1.0000    0     1.008    4.596023   -1.984584    1.408713
  15 H     1.0000    0     1.008    4.566850    1.032627    2.258527
  16 H     1.0000    0     1.008    6.224282    0.129292   -0.259188

--------------------------------
INTERNAL COORDINATES (ANGSTROEM)
--------------------------------
 C      0   0   0     0.000000000000     0.00000000     0.00000000
 C      1   0   0     1.527148387533     0.00000000     0.00000000
 H      1   2   0     1.098562146577   110.65954356     0.00000000
 H      1   2   3     1.100872971411   111.09504811   240.24157451
 H      1   2   3     1.100803718749   111.10072453   119.77521665
 C      2   1   3     1.531406080370   111.83756928   180.06290526
 H      2   1   3     1.102840260632   109.36803313    58.59092472
 H      2   1   3     1.102895554099   109.37138884   301.53483570
 C      6   2   1     1.522953948355   111.28706788   180.09615770
 H      6   2   1     1.104407854135   108.78360661    58.66836349
 H      6   2   1     1.104485998009   108.74885549   301.49012110
 N      9   6   2     1.500607886373   111.17243756   179.86675920
 H      9   6   2     1.099364356902   110.66944765    60.02388041
 H      9   6   2     1.099437355983   110.66721434   299.72450788
 H     12   9   6     1.027845818763   110.49590631    59.46733988
 H     12   9   6     1.027813798656   110.48311645   300.50596881
 H     12   9   6     1.027547008093   111.68547834   179.98749490

---------------------------
INTERNAL COORDINATES (A.U.)
---------------------------
 C      0   0   0     0.000000000000     0.00000000     0.00000000
 C      1   0   0     2.885892218297     0.00000000     0.00000000
 H      1   2   0     2.075981598124   110.65954356     0.00000000
 H      1   2   3     2.080348424203   111.09504811   240.24157451
[...]
     29      -0.056199   0.003699   0.019158   0.222512  -0.031180  -0.005736
     30       0.038193  -0.016241   0.001064  -0.020871   0.002926  -0.001296
     31       0.057089  -0.002621  -0.012668   0.445896  -0.059521  -0.012236
     32      -0.031634  -0.004177   0.015438   0.561016  -0.076189  -0.016013
     33       0.094164   0.000239   0.027415   0.000256   0.000186  -0.000053
     34      -0.014166  -0.044107   0.009114   0.000093   0.000025  -0.000008
     35       0.060846  -0.011392  -0.036781  -0.000358  -0.000071   0.000033
     36       0.048393   0.042028  -0.033264   0.002059   0.001350   0.000616
     37       0.054837  -0.010152   0.003923   0.021363  -0.015493   0.000210
     38       0.127986   0.030562  -0.026182  -0.006722   0.005303  -0.000169
     39       0.040735  -0.037039  -0.034400   0.002557   0.000925   0.000607
     40      -0.109488   0.003710   0.009504  -0.016185   0.010626   0.000071
     41       0.078400  -0.028332  -0.026282  -0.018253   0.012483  -0.000095
     42      -0.485325  -0.470815  -0.157281   0.003810  -0.001377  -0.000102
     43      -0.127915   0.005571   0.244681  -0.004874   0.001181   0.000805
     44      -0.237690   0.114995   0.594677   0.000920  -0.000279  -0.000223
     45      -0.483196   0.468605  -0.123278   0.003927  -0.001363  -0.000111
     46       0.217225   0.098513  -0.509354   0.004056  -0.000914  -0.000619
     47      -0.137853  -0.113650   0.381567   0.003558  -0.000882  -0.000613
     48      -0.262537  -0.001065  -0.161990   0.002354   0.000416  -0.000655
     49       0.121143   0.689654   0.100491  -0.000432  -0.000032  -0.000059
     50      -0.481800   0.198063  -0.312883   0.001960   0.000126   0.000189
                 42         43         44         45         46         47    
      0      -0.000134   0.000001  -0.000067  -0.001160   0.054981   0.000036
      1      -0.005083  -0.000158  -0.018321  -0.087912  -0.022919  -0.000211
      2      -0.001373   0.000259  -0.005254  -0.027033   0.072116  -0.000010
      3      -0.000169   0.000043  -0.000303   0.000095  -0.000167  -0.000014
      4       0.038668   0.000878   0.080227  -0.018992  -0.001255   0.001794
      5       0.010777  -0.001133   0.022498  -0.005507   0.003035   0.000487
      6       0.001707   0.000700   0.002085   0.022070  -0.698087  -0.000424
      7      -0.000923  -0.000021  -0.005486  -0.017569   0.141603   0.000004
      8       0.001039   0.000017   0.000018   0.012379  -0.513915  -0.000342
      9      -0.002950  -0.000372  -0.005730  -0.043407   0.025558   0.000476
     10       0.023967  -0.000769   0.086858   0.424555  -0.198734   0.000373
     11       0.031753  -0.000789   0.111136   0.546136  -0.236873   0.000231
     12       0.002772  -0.000324   0.004221   0.034809   0.024023  -0.000480
     13       0.040556   0.002199   0.134474   0.639364   0.330603   0.000805
     14      -0.015540  -0.000710  -0.049295  -0.236673  -0.109793  -0.000120
     15       0.000385  -0.000821  -0.000171   0.000029  -0.000496  -0.000042
     16      -0.082219  -0.000354   0.039272  -0.002972  -0.000071   0.009397
     17      -0.021863  -0.001610   0.010718  -0.000782  -0.000057   0.002606
     18      -0.008404   0.001127  -0.010218   0.005744   0.001737   0.001600
     19      -0.286622  -0.015613  -0.586214   0.136655   0.028060  -0.014769
     20       0.108997   0.005959   0.221087  -0.051409  -0.011542   0.006230
     21       0.010161   0.001281   0.013995  -0.006772   0.001636  -0.001398
     22      -0.178028   0.005265  -0.366611   0.087342  -0.014390  -0.008682
     23      -0.238592   0.007026  -0.488157   0.116216  -0.020654  -0.012554
     24      -0.000135   0.008937   0.000053  -0.000008  -0.000006  -0.001225
     25       0.007590   0.017762  -0.006109   0.000814  -0.000022   0.093681
     26       0.002715  -0.067524  -0.001483   0.000214  -0.000065   0.025039
     27       0.013341  -0.001848  -0.002808  -0.002609  -0.001256  -0.005282
     28       0.609740  -0.019075  -0.287766   0.023212   0.001804  -0.069779
     29      -0.226049   0.007665   0.106930  -0.009288  -0.000621   0.025795
     30      -0.017759  -0.002556   0.005033   0.002481  -0.001135   0.005721
     31       0.370438   0.019315  -0.178094   0.013831  -0.000433  -0.043572
     32       0.486796   0.026327  -0.234260   0.019204  -0.000439  -0.057150
     33      -0.000016   0.000293  -0.000002   0.000003  -0.000041   0.000028
     34      -0.000602  -0.000522   0.000301  -0.000070  -0.000002  -0.002381
     35      -0.000165   0.002015   0.000070  -0.000021   0.000016  -0.000656
     36      -0.000471  -0.040936  -0.001061   0.000755   0.000441  -0.047813
     37      -0.049650  -0.657796   0.044248  -0.004842   0.000331  -0.662711
     38       0.018344   0.230552  -0.015640   0.001552  -0.000174   0.240869
     39       0.002597  -0.057691   0.000259  -0.000662   0.000341   0.062233
     40      -0.041284   0.454032   0.027557  -0.003238   0.000187  -0.435642
     41      -0.050821   0.544029   0.033257  -0.003663   0.000170  -0.534556
     42      -0.003471   0.001546   0.001920  -0.000253  -0.000116   0.006532
     43       0.004557   0.008179  -0.003369   0.000742   0.000206   0.011028
     44      -0.002009  -0.002027   0.001622  -0.000377  -0.000010  -0.000153
     45       0.003262   0.001838  -0.001833   0.000249  -0.000096  -0.006715
     46       0.003139  -0.006089  -0.002116   0.000466  -0.000149   0.009562
     47       0.004101  -0.005880  -0.003078   0.000704  -0.000082   0.005990
     48       0.000078  -0.004072  -0.000020  -0.000010   0.000351   0.000003
     49       0.001556   0.001619  -0.000483   0.000003   0.000091  -0.000648
     50       0.000393  -0.005970  -0.000090   0.000005  -0.000313  -0.000225
                 48         49         50    
      0      -0.000032   0.000001  -0.000032
      1      -0.000037   0.000056   0.000012
      2       0.000113   0.000018  -0.000048
      3       0.000108  -0.000007   0.000039
      4       0.000030   0.000079   0.000007
      5      -0.000142   0.000022   0.000020
      6       0.000750  -0.000031   0.000300
      7      -0.000054  -0.000042  -0.000073
      8       0.000100  -0.000034   0.000267
      9       0.000058   0.000072  -0.000077
     10      -0.000344  -0.000173   0.000107
     11      -0.000547  -0.000326   0.000115
     12       0.000062  -0.000063  -0.000085
     13       0.000562  -0.000308  -0.000221
     14      -0.000239   0.000182   0.000029
     15       0.000196  -0.000036   0.000337
     16      -0.000195   0.000853   0.000157
     17       0.000860   0.000265  -0.000280
     18      -0.000064  -0.000049  -0.000059
     19       0.000306  -0.000856  -0.000317
     20      -0.000097   0.000360   0.000103
     21      -0.000052   0.000066  -0.000058
     22      -0.000263  -0.000545   0.000175
     23      -0.000217  -0.000771   0.000120
     24      -0.000328  -0.000000   0.000354
     25       0.000266  -0.001152  -0.000149
     26      -0.001102  -0.000330   0.000300
     27      -0.000689   0.000776   0.000440
     28       0.003614  -0.004472  -0.002538
     29      -0.001204   0.001013   0.000884
     30      -0.000721  -0.000750   0.000331
     31      -0.002564  -0.003398   0.001085
     32      -0.003230  -0.003527   0.001547
     33      -0.032723   0.005256  -0.050724
     34       0.006407  -0.077049  -0.023390
     35      -0.028372  -0.025781   0.059837
     36       0.002805  -0.002170  -0.000789
     37      -0.006153   0.011197   0.005540
     38       0.003879  -0.004224  -0.003493
     39       0.002731   0.001896  -0.000330
     40       0.003873   0.007781  -0.001933
     41       0.007121   0.009974  -0.004555
     42       0.001439  -0.005875  -0.008998
     43      -0.547137   0.632560   0.409336
     44       0.206147  -0.248148  -0.151274
     45      -0.009101  -0.005497  -0.002285
     46       0.377304   0.449079  -0.208396
     47       0.466964   0.569498  -0.250853
     48       0.458165  -0.060910   0.708146
     49       0.081054  -0.018217   0.121951
     50      -0.281201   0.034542  -0.424257


-----------
IR SPECTRUM
-----------

 Mode   freq       eps      Int      T**2         TX        TY        TZ
       cm**-1   L/(mol*cm) km/mol    a.u.
----------------------------------------------------------------------------
  6:    100.74   0.000480    2.43  0.001487  (-0.003841  0.035473  0.014635)
  7:    111.11   0.000531    2.68  0.001490  (-0.001407  0.036999  0.010925)
  8:    175.97   0.001299    6.56  0.002303  ( 0.029727  0.014032 -0.034962)
  9:    234.93   0.000022    0.11  0.000029  ( 0.002385 -0.002441 -0.004217)
 10:    241.41   0.000005    0.03  0.000006  (-0.002003  0.000764  0.001343)
 11:    397.00   0.000612    3.09  0.000481  ( 0.021582 -0.000777  0.003852)
 12:    408.35   0.001481    7.48  0.001132  ( 0.033527  0.001080 -0.002513)
 13:    749.77   0.001351    6.83  0.000562  ( 0.000414 -0.022775 -0.006601)
 14:    793.94   0.000274    1.38  0.000108  (-0.000853  0.009902  0.002991)
 15:    897.85   0.001971    9.96  0.000685  ( 0.001114 -0.025161 -0.007128)
 16:    902.77   0.002317   11.71  0.000801  ( 0.023416  0.004991 -0.015090)
 17:    935.42   0.001798    9.09  0.000600  (-0.024309 -0.000120 -0.002983)
 18:    997.41   0.000609    3.08  0.000190  (-0.000310  0.013535  0.002667)
 19:   1014.43   0.000940    4.75  0.000289  (-0.005815 -0.003985  0.015476)
 20:   1077.80   0.002112   10.67  0.000611  ( 0.023472  0.002560 -0.007341)
 21:   1101.14   0.001649    8.33  0.000467  ( 0.020957 -0.001009  0.005209)
 22:   1184.72   0.001868    9.44  0.000492  ( 0.007948  0.006125 -0.019780)
 23:   1208.36   0.000338    1.71  0.000087  (-0.000732  0.008853  0.002904)
 24:   1288.23   0.000414    2.09  0.000100  (-0.000205 -0.009842 -0.001829)
 25:   1303.51   0.000365    1.84  0.000087  (-0.006925 -0.000049  0.006279)
 26:   1333.27   0.000739    3.73  0.000173  ( 0.000243  0.012580  0.003813)
 27:   1349.48   0.000763    3.86  0.000176  (-0.001174  0.012738  0.003582)
 28:   1392.07   0.000356    1.80  0.000080  ( 0.002971  0.002915 -0.007910)
 29:   1421.44   0.000376    1.90  0.000083  ( 0.002938 -0.002159  0.008322)
 30:   1433.49   0.003153   15.93  0.000686  (-0.025807  0.001328 -0.004312)
 31:   1472.02   0.000970    4.90  0.000206  ( 0.009943 -0.009919  0.002882)
 32:   1477.24   0.001342    6.78  0.000284  ( 0.002577  0.016605 -0.001074)
 33:   1478.70   0.001711    8.65  0.000361  ( 0.003437  0.012211  0.014150)
 34:   1484.56   0.000649    3.28  0.000136  (-0.000286 -0.007762  0.008722)
 35:   1496.12   0.003095   15.64  0.000646  ( 0.010335  0.005905 -0.022447)
 36:   1504.13   0.029666  149.92  0.006155  (-0.065991  0.009939 -0.041246)
 37:   1626.09   0.009870   49.88  0.001894  (-0.000313  0.042148  0.010843)
 38:   1633.38   0.006692   33.82  0.001278  (-0.023060 -0.006440  0.026555)
 39:   3054.80   0.001948    9.85  0.000199  (-0.006332  0.002924 -0.012263)
 40:   3074.07   0.003476   17.57  0.000353  (-0.001803 -0.004951  0.018032)
 41:   3074.89   0.002639   13.34  0.000268  (-0.010402 -0.003345  0.012185)
 42:   3110.36   0.000401    2.03  0.000040  ( 0.000110 -0.006155 -0.001538)
 43:   3120.93   0.000286    1.45  0.000029  ( 0.001976  0.001241 -0.004817)
 44:   3131.20   0.002569   12.98  0.000256  (-0.000067  0.015426  0.004256)
 45:   3170.52   0.003327   16.81  0.000327  (-0.000123 -0.017332 -0.005200)
 46:   3189.98   0.001070    5.41  0.000105  ( 0.005238 -0.002818  0.008324)
 47:   3195.43   0.000044    0.22  0.000004  ( 0.000060  0.001980  0.000615)
 48:   3440.56   0.012182   61.56  0.001105  ( 0.028353 -0.003770  0.016935)
 49:   3532.86   0.022980  116.13  0.002030  (-0.003251  0.042621  0.014240)
 50:   3541.96   0.025934  131.06  0.002285  ( 0.031118  0.013183 -0.033806)

* The epsilon (eps) is given for a Dirac delta lineshape.
** The dipole moment derivative (T) already includes vibrational overlap.

The first frequency considered to be a vibration is 6
The total number of vibrations considered is 45


--------------------------
THERMOCHEMISTRY AT 298.15K
--------------------------

Temperature         ... 298.15 K
Pressure            ... 1.00 atm
Total Mass          ... 74.15 AMU

Throughout the following assumptions are being made:
  (1) The electronic state is orbitally nondegenerate
  (2) There are no thermally accessible electronically excited states
  (3) Hindered rotations indicated by low frequency modes are not
      treated as such but are treated as vibrations and this may
      cause some error
  (4) All equations used are the standard statistical mechanics
      equations for an ideal gas
  (5) All vibrations are strictly harmonic

freq.     100.74  E(vib)   ...       0.46 
freq.     111.11  E(vib)   ...       0.45 
freq.     175.97  E(vib)   ...       0.38 
freq.     234.93  E(vib)   ...       0.32 
freq.     241.41  E(vib)   ...       0.31 
freq.     397.00  E(vib)   ...       0.20 
freq.     408.35  E(vib)   ...       0.19 
freq.     749.77  E(vib)   ...       0.06 
freq.     793.94  E(vib)   ...       0.05 
freq.     897.85  E(vib)   ...       0.03 
freq.     902.77  E(vib)   ...       0.03 
freq.     935.42  E(vib)   ...       0.03 
freq.     997.41  E(vib)   ...       0.02 
freq.    1014.43  E(vib)   ...       0.02 
freq.    1077.80  E(vib)   ...       0.02 
freq.    1101.14  E(vib)   ...       0.02 
freq.    1184.72  E(vib)   ...       0.01 
freq.    1208.36  E(vib)   ...       0.01 
freq.    1288.23  E(vib)   ...       0.01 
freq.    1303.51  E(vib)   ...       0.01 
freq.    1333.27  E(vib)   ...       0.01 
freq.    1349.48  E(vib)   ...       0.01 
freq.    1392.07  E(vib)   ...       0.00 
freq.    1421.44  E(vib)   ...       0.00 
freq.    1433.49  E(vib)   ...       0.00 
freq.    1472.02  E(vib)   ...       0.00 
freq.    1477.24  E(vib)   ...       0.00 
freq.    1478.70  E(vib)   ...       0.00 
freq.    1484.56  E(vib)   ...       0.00 
freq.    1496.12  E(vib)   ...       0.00 
freq.    1504.13  E(vib)   ...       0.00 
freq.    1626.09  E(vib)   ...       0.00 
freq.    1633.38  E(vib)   ...       0.00 
freq.    3054.80  E(vib)   ...       0.00 
freq.    3074.07  E(vib)   ...       0.00 
freq.    3074.89  E(vib)   ...       0.00 
freq.    3110.36  E(vib)   ...       0.00 
freq.    3120.93  E(vib)   ...       0.00 
freq.    3131.20  E(vib)   ...       0.00 
freq.    3170.52  E(vib)   ...       0.00 
freq.    3189.98  E(vib)   ...       0.00 
freq.    3195.43  E(vib)   ...       0.00 
freq.    3440.56  E(vib)   ...       0.00 
freq.    3532.86  E(vib)   ...       0.00 
freq.    3541.96  E(vib)   ...       0.00 

------------
INNER ENERGY
------------

The inner energy is: U= E(el) + E(ZPE) + E(vib) + E(rot) + E(trans)
    E(el)   - is the total energy from the electronic structure calculation
              = E(kin-el) + E(nuc-el) + E(el-el) + E(nuc-nuc)
    E(ZPE)  - the the zero temperature vibrational energy from the frequency calculation
    E(vib)  - the the finite temperature correction to E(ZPE) due to population
              of excited vibrational states
    E(rot)  - is the rotational thermal energy
    E(trans)- is the translational thermal energy

Summary of contributions to the inner energy U:
Electronic energy                ...   -213.95883284 Eh
Zero point energy                ...      0.16599737 Eh     104.16 kcal/mol
Thermal vibrational correction   ...      0.00425390 Eh       2.67 kcal/mol
Thermal rotational correction    ...      0.00141627 Eh       0.89 kcal/mol
Thermal translational correction ...      0.00141627 Eh       0.89 kcal/mol
-----------------------------------------------------------------------
Total thermal energy                   -213.78574904 Eh


Summary of corrections to the electronic energy:
(perhaps to be used in another calculation)
Total thermal correction                  0.00708644 Eh       4.45 kcal/mol
Non-thermal (ZPE) correction              0.16599737 Eh     104.16 kcal/mol
-----------------------------------------------------------------------
Total correction                          0.17308381 Eh     108.61 kcal/mol


--------
ENTHALPY
--------

The enthalpy is H = U + kB*T
                kB is Boltzmann's constant
Total free energy                 ...   -213.78574904 Eh 
Thermal Enthalpy correction       ...      0.00094421 Eh       0.59 kcal/mol
-----------------------------------------------------------------------
Total Enthalpy                    ...   -213.78480483 Eh


Note: Only C1 symmetry has been detected, increase convergence thresholds 
      if your molecule has a higher symmetry. Symmetry factor of 1.0 is   
      used for the rotational entropy correction. 
 

Note: Rotational entropy computed according to Herzberg 
Infrared and Raman Spectra, Chapter V,1, Van Nostrand Reinhold, 1945 
Point Group:  C1, Symmetry Number:   1  
Rotational constants in cm-1:     0.565373     0.063367     0.060124 

Vibrational entropy computed according to the QRRHO of S. Grimme
Chem.Eur.J. 2012 18 9955


-------
ENTROPY
-------

The entropy contributions are T*S = T*(S(el)+S(vib)+S(rot)+S(trans))
     S(el)   - electronic entropy
     S(vib)  - vibrational entropy
     S(rot)  - rotational entropy
     S(trans)- translational entropy
The entropies will be listed as multiplied by the temperature to get
units of energy

Electronic entropy                ...      0.00000000 Eh      0.00 kcal/mol
Vibrational entropy               ...      0.00742231 Eh      4.66 kcal/mol
Rotational entropy                ...      0.01240965 Eh      7.79 kcal/mol
Translational entropy             ...      0.01844761 Eh     11.58 kcal/mol
-----------------------------------------------------------------------
Final entropy term                ...      0.03827956 Eh     24.02 kcal/mol

In case the symmetry of your molecule has not been determined correctly
or in case you have a reason to use a different symmetry number we print 
out the resulting rotational entropy values for sn=1,12 :
 --------------------------------------------------------
|  sn= 1 | S(rot)=       0.01240965 Eh      7.79 kcal/mol|
|  sn= 2 | S(rot)=       0.01175519 Eh      7.38 kcal/mol|
|  sn= 3 | S(rot)=       0.01137236 Eh      7.14 kcal/mol|
|  sn= 4 | S(rot)=       0.01110074 Eh      6.97 kcal/mol|
|  sn= 5 | S(rot)=       0.01089005 Eh      6.83 kcal/mol|
|  sn= 6 | S(rot)=       0.01071790 Eh      6.73 kcal/mol|
|  sn= 7 | S(rot)=       0.01057236 Eh      6.63 kcal/mol|
|  sn= 8 | S(rot)=       0.01044628 Eh      6.56 kcal/mol|
|  sn= 9 | S(rot)=       0.01033507 Eh      6.49 kcal/mol|
|  sn=10 | S(rot)=       0.01023559 Eh      6.42 kcal/mol|
|  sn=11 | S(rot)=       0.01014560 Eh      6.37 kcal/mol|
|  sn=12 | S(rot)=       0.01006345 Eh      6.31 kcal/mol|
 --------------------------------------------------------


-------------------
GIBBS FREE ENERGY
-------------------

The Gibbs free energy is G = H - T*S

Total enthalpy                    ...   -213.78480483 Eh 
Total entropy correction          ...     -0.03827956 Eh    -24.02 kcal/mol
-----------------------------------------------------------------------
Final Gibbs free energy         ...   -213.82308439 Eh

For completeness - the Gibbs free energy minus the electronic energy
G-E(el)                           ...      0.13574845 Eh     85.18 kcal/mol


Timings for individual modules:

Sum of individual times         ...      213.205 sec (=   3.553 min)
GTO integral calculation        ...        2.991 sec (=   0.050 min)   1.4 %
SCF iterations                  ...      104.333 sec (=   1.739 min)  48.9 %
SCF Gradient evaluation         ...       28.634 sec (=   0.477 min)  13.4 %
Geometry relaxation             ...        0.223 sec (=   0.004 min)   0.1 %
Analytical frequency calculation...       77.023 sec (=   1.284 min)  36.1 %
                             ****ORCA TERMINATED NORMALLY****
TOTAL RUN TIME: 0 days 0 hours 3 minutes 35 seconds 514 msec
