
                                 *****************
                                 * O   R   C   A *
                                 *****************

                                            #,                                       
                                            ###                                      
                                            ####                                     
                                            #####                                    
                                            ######                                   
                                           ########,                                 
                                     ,,################,,,,,                         
                               ,,#################################,,                 
                          ,,##########################################,,             
                       ,#########################################, ''#####,          
                    ,#############################################,,   '####,        
                  ,##################################################,,,,####,       
                ,###########''''           ''''###############################       
              ,#####''   ,,,,##########,,,,          '''####'''          '####       
            ,##' ,,,,###########################,,,                        '##       
           ' ,,###''''                  '''############,,,                           
         ,,##''                                '''############,,,,        ,,,,,,###''
      ,#''                                            '''#######################'''  
     '                                                          ''''####''''         
             ,#######,   #######,   ,#######,      ##                                
            ,#'     '#,  ##    ##  ,#'     '#,    #''#        ######   ,####,        
            ##       ##  ##   ,#'  ##            #'  '#       #        #'  '#        
            ##       ##  #######   ##           ,######,      #####,   #    #        
            '#,     ,#'  ##    ##  '#,     ,#' ,#      #,         ##   #,  ,#        
             '#######'   ##     ##  '#######'  #'      '#     #####' # '####'        



                  #######################################################
                  #                        -***-                        #
                  #          Department of theory and spectroscopy      #
                  #    Directorship and core code : Frank Neese         #
                  #        Max Planck Institute fuer Kohlenforschung    #
                  #                Kaiser Wilhelm Platz 1               #
                  #                 D-45470 Muelheim/Ruhr               #
                  #                      Germany                        #
                  #                                                     #
                  #                  All rights reserved                #
                  #                        -***-                        #
                  #######################################################


                         Program Version 5.0.4 -  RELEASE  -


 With contributions from (in alphabetic order):
   Daniel Aravena         : Magnetic Suceptibility
   Michael Atanasov       : Ab Initio Ligand Field Theory (pilot matlab implementation)
   Alexander A. Auer      : GIAO ZORA, VPT2 properties, NMR spectrum
   Ute Becker             : Parallelization
   Giovanni Bistoni       : ED, misc. LED, open-shell LED, HFLD
   Martin Brehm           : Molecular dynamics
   Dmytro Bykov           : SCF Hessian
   Vijay G. Chilkuri      : MRCI spin determinant printing, contributions to CSF-ICE
   Dipayan Datta          : RHF DLPNO-CCSD density
   Achintya Kumar Dutta   : EOM-CC, STEOM-CC
   Dmitry Ganyushin       : Spin-Orbit,Spin-Spin,Magnetic field MRCI
   Miquel Garcia          : C-PCM and meta-GGA Hessian, CC/C-PCM, Gaussian charge scheme
   Yang Guo               : DLPNO-NEVPT2, F12-NEVPT2, CIM, IAO-localization
   Andreas Hansen         : Spin unrestricted coupled pair/coupled cluster methods
   Benjamin Helmich-Paris : MC-RPA, TRAH-SCF, COSX integrals
   Lee Huntington         : MR-EOM, pCC
   Robert Izsak           : Overlap fitted RIJCOSX, COSX-SCS-MP3, EOM
   Marcus Kettner         : VPT2
   Christian Kollmar      : KDIIS, OOCD, Brueckner-CCSD(T), CCSD density, CASPT2, CASPT2-K
   Simone Kossmann        : Meta GGA functionals, TD-DFT gradient, OOMP2, MP2 Hessian
   Martin Krupicka        : Initial AUTO-CI
   Lucas Lang             : DCDCAS
   Marvin Lechner         : AUTO-CI (C++ implementation), FIC-MRCC
   Dagmar Lenk            : GEPOL surface, SMD
   Dimitrios Liakos       : Extrapolation schemes; Compound Job, initial MDCI parallelization
   Dimitrios Manganas     : Further ROCIS development; embedding schemes
   Dimitrios Pantazis     : SARC Basis sets
   Anastasios Papadopoulos: AUTO-CI, single reference methods and gradients
   Taras Petrenko         : DFT Hessian,TD-DFT gradient, ASA, ECA, R-Raman, ABS, FL, XAS/XES, NRVS
   Peter Pinski           : DLPNO-MP2, DLPNO-MP2 Gradient
   Christoph Reimann      : Effective Core Potentials
   Marius Retegan         : Local ZFS, SOC
   Christoph Riplinger    : Optimizer, TS searches, QM/MM, DLPNO-CCSD(T), (RO)-DLPNO pert. Triples
   Tobias Risthaus        : Range-separated hybrids, TD-DFT gradient, RPA, STAB
   Michael Roemelt        : Original ROCIS implementation
   Masaaki Saitow         : Open-shell DLPNO-CCSD energy and density
   Barbara Sandhoefer     : DKH picture change effects
   Avijit Sen             : IP-ROCIS
   Kantharuban Sivalingam : CASSCF convergence, NEVPT2, FIC-MRCI
   Bernardo de Souza      : ESD, SOC TD-DFT
   Georgi Stoychev        : AutoAux, RI-MP2 NMR, DLPNO-MP2 response
   Willem Van den Heuvel  : Paramagnetic NMR
   Boris Wezisla          : Elementary symmetry handling
   Frank Wennmohs         : Technical directorship


 We gratefully acknowledge several colleagues who have allowed us to
 interface, adapt or use parts of their codes:
   Stefan Grimme, W. Hujo, H. Kruse, P. Pracht,  : VdW corrections, initial TS optimization,
                  C. Bannwarth, S. Ehlert          DFT functionals, gCP, sTDA/sTD-DF
   Ed Valeev, F. Pavosevic, A. Kumar             : LibInt (2-el integral package), F12 methods
   Garnet Chan, S. Sharma, J. Yang, R. Olivares  : DMRG
   Ulf Ekstrom                                   : XCFun DFT Library
   Mihaly Kallay                                 : mrcc  (arbitrary order and MRCC methods)
   Jiri Pittner, Ondrej Demel                    : Mk-CCSD
   Frank Weinhold                                : gennbo (NPA and NBO analysis)
   Christopher J. Cramer and Donald G. Truhlar   : smd solvation model
   Lars Goerigk                                  : TD-DFT with DH, B97 family of functionals
   V. Asgeirsson, H. Jonsson                     : NEB implementation
   FAccTs GmbH                                   : IRC, NEB, NEB-TS, DLPNO-Multilevel, CI-OPT
                                                   MM, QMMM, 2- and 3-layer-ONIOM, Crystal-QMMM,
                                                   LR-CPCM, SF, NACMEs, symmetry and pop. for TD-DFT,
                                                   nearIR, NL-DFT gradient (VV10), updates on ESD,
                                                   ML-optimized integration grids
   S Lehtola, MJT Oliveira, MAL Marques          : LibXC Library
   Liviu Ungur et al                             : ANISO software


 Your calculation uses the libint2 library for the computation of 2-el integrals
 For citations please refer to: http://libint.valeyev.net

 Your ORCA version has been built with support for libXC version: 5.1.0
 For citations please refer to: https://tddft.org/programs/libxc/

 This ORCA versions uses:
   CBLAS   interface :  Fast vector & matrix operations
   LAPACKE interface :  Fast linear algebra routines
   SCALAPACK package :  Parallel linear algebra routines
   Shared memory     :  Shared parallel matrices
   BLAS/LAPACK       :  OpenBLAS 0.3.15  USE64BITINT DYNAMIC_ARCH NO_AFFINITY SkylakeX SINGLE_THREADED
        Core in use  :  SkylakeX
   Copyright (c) 2011-2014, The OpenBLAS Project




***************************************
The coordinates will be read from file: butylamine_prot_aq_0.xyz
***************************************


Your calculation utilizes the atom-pairwise dispersion correction
based on tight binding partial charges (D4)
Cite in your paper:
E.Caldeweyher, C.Bannwarth, S.Grimme, J.Chem.Phys., (2017), 147, 034112.
E.Caldeweyher, S.Ehlert, A.Hansen, H.Neugebauer, S.Grimme, J.Chem.Phys., (2018), in progress.
   

XCFun DFT library Copyright 2009-2010 Ulf Ekstrom and contributors.
See http://admol.org/xcfun for more information.
This is free software; see the source code for copying conditions.
There is ABSOLUTELY NO WARRANTY; not even for MERCHANTABILITY or FITNESS FOR A PARTICULAR PURPOSE.
For details see the documentation.
Scientific users of this library should cite U. Ekstrom, L. Visscher, R. Bast, A. J. Thorvaldsen and K. Ruud;
J.Chem.Theor.Comp. 2010, DOI: 10.1021/ct100117s
XCFun Version 0.99 

================================================================================

----- Orbital basis set information -----
Your calculation utilizes the basis: def2-SVP
   F. Weigend and R. Ahlrichs, Phys. Chem. Chem. Phys. 7, 3297 (2005).

----- AuxJ basis set information -----
Your calculation utilizes the auxiliary basis: def2/J
   F. Weigend, Phys. Chem. Chem. Phys. 8, 1057 (2006).

================================================================================
                                        WARNINGS
                       Please study these warnings very carefully!
================================================================================


WARNING: Geometry Optimization
  ===> : Switching off AutoStart
         For restart on a previous wavefunction, please use MOREAD

INFO   : the flag for use of the SHARK integral package has been found!

================================================================================
                                       INPUT FILE
================================================================================
NAME = butylamine_prot_aq_0.inp
|  1> # ORCA 5.0.4 - /users/bwb16179/postgrad/2024_06/pKa_Reviewer_Comments/CREST_Confs/butylamine/butylamine_prot_aq_0.inp # write input file
|  2> # Basic Mode
|  3> #
|  4> ! Opt Freq wB97X Def2-SVP D4 SlowConv TightSCF Defgrid2 Def2/J RIJCOSX 
|  5> 
|  6> %PAL NPROCS 4 END
|  7> 
|  8> %maxcore 4500
|  9> 
| 10> %geom
| 11> Maxiter 150
| 12> END
| 13> 
| 14> * xyzfile 1 1 butylamine_prot_aq_0.xyz
| 15> 
| 16>                          ****END OF INPUT****
================================================================================

                       *****************************
                       * Geometry Optimization Run *
                       *****************************

Geometry optimization settings:
Update method            Update   .... BFGS
Choice of coordinates    CoordSys .... Z-matrix Internals
Initial Hessian          InHess   .... Almoef's Model

Convergence Tolerances:
Energy Change            TolE     ....  5.0000e-06 Eh
Max. Gradient            TolMAXG  ....  3.0000e-04 Eh/bohr
RMS Gradient             TolRMSG  ....  1.0000e-04 Eh/bohr
Max. Displacement        TolMAXD  ....  4.0000e-03 bohr
RMS Displacement         TolRMSD  ....  2.0000e-03 bohr
Strict Convergence                ....  False
------------------------------------------------------------------------------
                        ORCA OPTIMIZATION COORDINATE SETUP
------------------------------------------------------------------------------

The optimization will be done in new redundant internal coordinates
Making redundant internal coordinates   ...  (new redundants) done
Evaluating the initial hessian          ...  (Almloef) done
Evaluating the coordinates              ...  done
Calculating the B-matrix                .... done
Calculating the G-matrix                .... done
Diagonalizing the G-matrix              .... done
Small eigenvalue found = 2.613e-02
The first mode is                       ....   37
The number of degrees of freedom        ....   45

    -----------------------------------------------------------------
                    Redundant Internal Coordinates


    -----------------------------------------------------------------
         Definition                    Initial Value    Approx d2E/dq
    -----------------------------------------------------------------
      1. B(C   1,C   0)                  1.5252         0.380254   
      2. B(H   2,C   0)                  1.0880         0.362822   
      3. B(H   3,C   0)                  1.0880         0.362700   
      4. B(H   4,C   0)                  1.0877         0.363170   
      5. B(C   5,C   1)                  1.5305         0.372860   
      6. B(H   6,C   1)                  1.0915         0.358074   
      7. B(H   7,C   1)                  1.0913         0.358361   
      8. B(C   8,C   5)                  1.5239         0.382086   
      9. B(H   9,C   5)                  1.0910         0.358807   
     10. B(H  10,C   5)                  1.0904         0.359629   
     11. B(N  11,C   8)                  1.4914         0.385537   
     12. B(H  12,C   8)                  1.0901         0.359903   
     13. B(H  13,C   8)                  1.0905         0.359504   
     14. B(H  14,N  11)                  1.0309         0.400674   
     15. B(H  15,N  11)                  1.0297         0.402480   
     16. B(H  16,N  11)                  1.0302         0.401738   
     17. A(H   3,C   0,H   4)          108.0912         0.291557   
     18. A(C   1,C   0,H   4)          110.7309         0.325719   
     19. A(C   1,C   0,H   2)          110.9026         0.325668   
     20. A(H   2,C   0,H   4)          108.0124         0.291573   
     21. A(H   2,C   0,H   3)          108.1261         0.291513   
     22. A(C   1,C   0,H   3)          110.8632         0.325650   
     23. A(C   0,C   1,C   5)          110.8273         0.364335   
     24. A(H   6,C   1,H   7)          108.5023         0.290361   
     25. A(C   5,C   1,H   7)          111.2035         0.323959   
     26. A(C   0,C   1,H   7)          107.7449         0.325006   
     27. A(C   5,C   1,H   6)          109.7577         0.323917   
     28. A(C   0,C   1,H   6)          108.7269         0.324963   
     29. A(C   1,C   5,H   9)          109.5668         0.324025   
     30. A(C   1,C   5,C   8)          113.5251         0.364634   
     31. A(C   8,C   5,H   9)          110.3660         0.325329   
     32. A(H   9,C   5,H  10)          107.0267         0.290615   
     33. A(C   8,C   5,H  10)          107.7589         0.325452   
     34. A(C   1,C   5,H  10)          108.3569         0.324147   
     35. A(H  12,C   8,H  13)          108.8329         0.290739   
     36. A(N  11,C   8,H  13)          108.7263         0.323965   
     37. A(C   5,C   8,H  13)          109.8858         0.325433   
     38. A(N  11,C   8,H  12)          108.5677         0.324024   
     39. A(C   5,C   8,H  12)          109.6183         0.325493   
     40. A(C   5,C   8,N  11)          111.1626         0.364443   
     41. A(H  15,N  11,H  16)          108.8079         0.296261   
     42. A(H  14,N  11,H  16)          108.4999         0.296050   
     43. A(C   8,N  11,H  16)          109.8267         0.327139   
     44. A(H  14,N  11,H  15)          108.9744         0.296136   
     45. A(C   8,N  11,H  15)          110.7582         0.327239   
     46. A(C   8,N  11,H  14)          109.9281         0.326997   
     47. D(H   6,C   1,C   0,H   4)     59.6396         0.011523   
     48. D(H   7,C   1,C   0,H   4)    -57.7671         0.011523   
     49. D(H   7,C   1,C   0,H   3)     62.2049         0.011523   
     50. D(H   6,C   1,C   0,H   2)    -60.2592         0.011523   
     51. D(C   5,C   1,C   0,H   4)   -179.6396         0.011523   
     52. D(H   6,C   1,C   0,H   3)    179.6115         0.011523   
     53. D(C   5,C   1,C   0,H   3)    -59.6677         0.011523   
     54. D(C   5,C   1,C   0,H   2)     60.4616         0.011523   
     55. D(H   7,C   1,C   0,H   2)   -177.6659         0.011523   
     56. D(H   9,C   5,C   1,H   6)   -176.4928         0.011103   
     57. D(C   8,C   5,C   1,H   7)     67.4619         0.011103   
     58. D(C   8,C   5,C   1,H   6)    -52.6058         0.011103   
     59. D(C   8,C   5,C   1,C   0)   -172.7136         0.011103   
     60. D(H   9,C   5,C   1,H   7)    -56.4251         0.011103   
     61. D(H  10,C   5,C   1,H   7)   -172.8717         0.011103   
     62. D(H  10,C   5,C   1,H   6)     67.0606         0.011103   
     63. D(H  10,C   5,C   1,C   0)    -53.0472         0.011103   
     64. D(H   9,C   5,C   1,C   0)     63.3994         0.011103   
     65. D(H  13,C   8,C   5,H   9)    176.7627         0.011629   
     66. D(H  13,C   8,C   5,C   1)     53.3117         0.011629   
     67. D(H  12,C   8,C   5,H  10)     52.8674         0.011629   
     68. D(H  12,C   8,C   5,H   9)    -63.6753         0.011629   
     69. D(H  12,C   8,C   5,C   1)    172.8737         0.011629   
     70. D(N  11,C   8,C   5,H  10)    172.8994         0.011629   
     71. D(N  11,C   8,C   5,H   9)     56.3568         0.011629   
     72. D(H  13,C   8,C   5,H  10)    -66.6947         0.011629   
     73. D(N  11,C   8,C   5,C   1)    -67.0943         0.011629   
     74. D(H  15,N  11,C   8,C   5)   -177.8957         0.013602   
     75. D(H  14,N  11,C   8,H  13)   -178.5015         0.013602   
     76. D(H  14,N  11,C   8,H  12)     63.2405         0.013602   
     77. D(H  14,N  11,C   8,C   5)    -57.4127         0.013602   
     78. D(H  16,N  11,C   8,H  13)    -59.1940         0.013602   
     79. D(H  16,N  11,C   8,H  12)   -177.4519         0.013602   
     80. D(H  16,N  11,C   8,C   5)     61.8948         0.013602   
     81. D(H  15,N  11,C   8,H  13)     61.0155         0.013602   
     82. D(H  15,N  11,C   8,H  12)    -57.2424         0.013602   
    -----------------------------------------------------------------

Number of atoms                         .... 17
Number of degrees of freedom            .... 82

         *************************************************************
         *                GEOMETRY OPTIMIZATION CYCLE   1            *
         *************************************************************
---------------------------------
CARTESIAN COORDINATES (ANGSTROEM)
---------------------------------
  C     -2.464924   -0.150629    0.121213
  C     -1.024139   -0.381150   -0.322815
  H     -2.822957    0.821244   -0.211819
  H     -2.546968   -0.188228    1.205505
  H     -3.122135   -0.911473   -0.293827
  C     -0.095948    0.683174    0.267246
  H     -0.983054   -0.343237   -1.412918
  H     -0.732649   -1.382003    0.000139
  C      1.326632    0.617928   -0.275139
  H     -0.091607    0.601662    1.355168
  H     -0.500532    1.665614    0.022296
  N      2.013997   -0.630291    0.165103
  H      1.896088    1.474039    0.087100
  H      1.309474    0.642323   -1.365182
  H      2.018456   -0.684586    1.194599
  H      2.985516   -0.651490   -0.175498
  H      1.514808   -1.452677   -0.203455

----------------------------
CARTESIAN COORDINATES (A.U.)
----------------------------
  NO LB      ZA    FRAG     MASS         X           Y           Z
   0 C     6.0000    0    12.011   -4.658032   -0.284648    0.229059
   1 C     6.0000    0    12.011   -1.935342   -0.720268   -0.610032
   2 H     1.0000    0     1.008   -5.334616    1.551926   -0.400281
   3 H     1.0000    0     1.008   -4.813072   -0.355699    2.278074
   4 H     1.0000    0     1.008   -5.899981   -1.722434   -0.555252
   5 C     6.0000    0    12.011   -0.181315    1.291012    0.505022
   6 H     1.0000    0     1.008   -1.857702   -0.648624   -2.670028
   7 H     1.0000    0     1.008   -1.384505   -2.611608    0.000262
   8 C     6.0000    0    12.011    2.506971    1.167715   -0.519937
   9 H     1.0000    0     1.008   -0.173113    1.136977    2.560896
  10 H     1.0000    0     1.008   -0.945868    3.147554    0.042134
  11 N     7.0000    0    14.007    3.805902   -1.191078    0.311999
  12 H     1.0000    0     1.008    3.583087    2.785531    0.164595
  13 H     1.0000    0     1.008    2.474547    1.213815   -2.579820
  14 H     1.0000    0     1.008    3.814329   -1.293680    2.257466
  15 H     1.0000    0     1.008    5.641808   -1.231138   -0.331644
  16 H     1.0000    0     1.008    2.862572   -2.745163   -0.384474

--------------------------------
INTERNAL COORDINATES (ANGSTROEM)
--------------------------------
 C      0   0   0     0.000000000000     0.00000000     0.00000000
 C      1   0   0     1.525176272075     0.00000000     0.00000000
 H      1   2   0     1.087950040767   110.90256705     0.00000000
 H      1   2   3     1.088041761969   110.86324409   239.87076856
 H      1   2   3     1.087689104587   110.73086024   119.89883749
 C      2   1   3     1.530521176230   110.82732847    60.46156796
 H      2   1   3     1.091535753306   108.72687772   299.74078017
 H      2   1   3     1.091317373124   107.74494787   182.33410102
 C      6   2   1     1.523867480990   113.52506378   187.28636153
 H      6   2   1     1.090979532175   109.56680056    63.39938906
 H      6   2   1     1.090356415868   108.35687336   306.95275081
 N      9   6   2     1.491419912672   111.16264053   292.90570010
 H      9   6   2     1.090148609571   109.61828890   172.87366031
 H      9   6   2     1.090450746669   109.88581763    53.31165267
 H     12   9   6     1.030937215348   109.92814357   302.58725621
 H     12   9   6     1.029712971584   110.75821178   182.10426877
 H     12   9   6     1.030215210593   109.82671669    61.89483298

---------------------------
INTERNAL COORDINATES (A.U.)
---------------------------
 C      0   0   0     0.000000000000     0.00000000     0.00000000
 C      1   0   0     2.882165460177     0.00000000     0.00000000
 H      1   2   0     2.055927624438   110.90256705     0.00000000
 H      1   2   3     2.056100952391   110.86324409   239.87076856
 H      1   2   3     2.055434526520   110.73086024   119.89883749
 C      2   1   3     2.892265865241   110.82732847    60.46156796
 H      2   1   3     2.062703639131   108.72687772   299.74078017
 H      2   1   3     2.062290960395   107.74494787   182.33410102
 C      6   2   1     2.879692203460   113.52506378   187.28636153
 H      6   2   1     2.061652533525   109.56680056    63.39938906
 H      6   2   1     2.060475014355   108.35687336   306.95275081
 N      9   6   2     2.818375185626   111.16264053   292.90570010
 H      9   6   2     2.060082317364   109.61828890   172.87366031
 H      9   6   2     2.060653273734   109.88581763    53.31165267
 H     12   9   6     1.948188998275   109.92814357   302.58725621
 H     12   9   6     1.945875512841   110.75821178   182.10426877
 H     12   9   6     1.946824607020   109.82671669    61.89483298

---------------------
BASIS SET INFORMATION
---------------------
There are 3 groups of distinct atoms

 Group   1 Type C   : 7s4p1d contracted to 3s2p1d pattern {511/31/1}
 Group   2 Type H   : 4s1p contracted to 2s1p pattern {31/1}
 Group   3 Type N   : 7s4p1d contracted to 3s2p1d pattern {511/31/1}

Atom   0C    basis set group =>   1
Atom   1C    basis set group =>   1
Atom   2H    basis set group =>   2
Atom   3H    basis set group =>   2
Atom   4H    basis set group =>   2
Atom   5C    basis set group =>   1
Atom   6H    basis set group =>   2
Atom   7H    basis set group =>   2
Atom   8C    basis set group =>   1
Atom   9H    basis set group =>   2
Atom  10H    basis set group =>   2
Atom  11N    basis set group =>   3
Atom  12H    basis set group =>   2
Atom  13H    basis set group =>   2
Atom  14H    basis set group =>   2
Atom  15H    basis set group =>   2
Atom  16H    basis set group =>   2
---------------------------------
AUXILIARY/J BASIS SET INFORMATION
---------------------------------
There are 3 groups of distinct atoms

 Group   1 Type C   : 12s5p4d2f1g contracted to 6s4p3d1f1g pattern {711111/2111/211/2/1}
 Group   2 Type H   : 5s2p1d contracted to 3s1p1d pattern {311/2/1}
 Group   3 Type N   : 12s5p4d2f1g contracted to 6s4p3d1f1g pattern {711111/2111/211/2/1}

Atom   0C    basis set group =>   1
Atom   1C    basis set group =>   1
Atom   2H    basis set group =>   2
Atom   3H    basis set group =>   2
Atom   4H    basis set group =>   2
Atom   5C    basis set group =>   1
Atom   6H    basis set group =>   2
Atom   7H    basis set group =>   2
Atom   8C    basis set group =>   1
Atom   9H    basis set group =>   2
Atom  10H    basis set group =>   2
Atom  11N    basis set group =>   3
Atom  12H    basis set group =>   2
Atom  13H    basis set group =>   2
Atom  14H    basis set group =>   2
Atom  15H    basis set group =>   2
Atom  16H    basis set group =>   2


           ************************************************************
           *        Program running with 4 parallel MPI-processes     *
           *              working on a common directory               *
           ************************************************************
------------------------------------------------------------------------------
                           ORCA GTO INTEGRAL CALCULATION
                           -- RI-GTO INTEGRALS CHOSEN --
------------------------------------------------------------------------------
------------------------------------------------------------------------------
                   ___                                                        
                  /   \      - P O W E R E D   B Y -                         
                 /     \                                                     
                 |  |  |   _    _      __       _____    __    __             
                 |  |  |  | |  | |    /  \     |  _  \  |  |  /  |          
                  \  \/   | |  | |   /    \    | | | |  |  | /  /          
                 / \  \   | |__| |  /  /\  \   | |_| |  |  |/  /          
                |  |  |   |  __  | /  /__\  \  |    /   |      \           
                |  |  |   | |  | | |   __   |  |    \   |  |\   \          
                \     /   | |  | | |  |  |  |  | |\  \  |  | \   \       
                 \___/    |_|  |_| |__|  |__|  |_| \__\ |__|  \__/        
                                                                              
                      - O R C A' S   B I G   F R I E N D -                    
                                      &                                       
                       - I N T E G R A L  F E E D E R -                       
                                                                              
 v1 FN, 2020, v2 2021                                                         
------------------------------------------------------------------------------


Reading SHARK input file butylamine_prot_aq_0.SHARKINP.tmp ... ok
----------------------
SHARK INTEGRAL PACKAGE
----------------------

Number of atoms                             ...     17
Number of basis functions                   ...    130
Number of shells                            ...     66
Maximum angular momentum                    ...      2
Integral batch strategy                     ... SHARK/LIBINT Hybrid
RI-J (if used) integral strategy            ... SPLIT-RIJ (Revised 2003 algorithm where possible)
Printlevel                                  ...      1
Contraction scheme used                     ... SEGMENTED contraction
Coulomb Range Separation                    ... NOT USED
Exchange Range Separation                   ... Long Range
   Mu parameter                             ...  0.300000
   Scaling (regular/separated)              ...  0.157706  0.842294
Finite Nucleus Model                        ... NOT USED
Auxiliary Coulomb fitting basis             ... AVAILABLE
   # of basis functions in Aux-J            ...    377
   # of shells in Aux-J                     ...    135
   Maximum angular momentum in Aux-J        ...      4
Auxiliary J/K fitting basis                 ... NOT available
Auxiliary Correlation fitting basis         ... NOT available
Auxiliary 'external' fitting basis          ... NOT available
Integral threshold                          ...     2.500000e-11
Primitive cut-off                           ...     2.500000e-12
Primitive pair pre-selection threshold      ...     2.500000e-12

Calculating pre-screening integrals         ... done (  0.0 sec) Dimension = 66
Organizing shell pair data                  ... done (  0.0 sec)
Shell pair information
Total number of shell pairs                 ...      2211
Shell pairs after pre-screening             ...      2135
Total number of primitive shell pairs       ...      7361
Primitive shell pairs kept                  ...      5620
          la=0 lb=0:    763 shell pairs
          la=1 lb=0:    825 shell pairs
          la=1 lb=1:    237 shell pairs
          la=2 lb=0:    189 shell pairs
          la=2 lb=1:    106 shell pairs
          la=2 lb=2:     15 shell pairs

Calculating one electron integrals          ... done (  0.0 sec)
Calculating RI/J V-Matrix + Cholesky decomp.... done (  0.0 sec)
Calculating Nuclear repulsion               ... done (  0.0 sec) ENN=    198.328683162990 Eh

SHARK setup successfully completed in   0.2 seconds

Maximum memory used throughout the entire GTOINT-calculation: 10.8 MB


           ************************************************************
           *        Program running with 4 parallel MPI-processes     *
           *              working on a common directory               *
           ************************************************************
-------------------------------------------------------------------------------
                                 ORCA SCF
-------------------------------------------------------------------------------

------------
SCF SETTINGS
------------
Hamiltonian:
 Density Functional     Method          .... DFT(GTOs)
 Exchange Functional    Exchange        .... WB97X
 Correlation Functional Correlation     .... WB97X
 Gradients option       PostSCFGGA      .... off
 Hybrid DFT is turned on
   Fraction HF Exchange ScalHFX         ....  0.157706
   Scaling of DF-GGA-X  ScalDFX         ....  0.000000
   Scaling of DF-GGA-C  ScalDFC         ....  1.000000
   Scaling of DF-LDA-C  ScalLDAC        ....  1.000000
   Perturbative correction              ....  0.000000
   Density functional embedding theory  .... OFF
 Long-range corrected/Screened/Range-Separated Hybrid DFT is turned on
   Amount of maximum screened exact exchange              ....  0.842294
   Range separation parameter mu (erf(mu*r12)/r12)        ....  0.300000
 RI-approximation to the Coulomb term is turned on
   Number of AuxJ basis functions       .... 377
   RIJ-COSX (HFX calculated with COS-X)).... on


General Settings:
 Integral files         IntName         .... butylamine_prot_aq_0
 Hartree-Fock type      HFTyp           .... RHF
 Total Charge           Charge          ....    1
 Multiplicity           Mult            ....    1
 Number of Electrons    NEL             ....   42
 Basis Dimension        Dim             ....  130
 Nuclear Repulsion      ENuc            ....    198.3286831630 Eh

Convergence Acceleration:
 DIIS                   CNVDIIS         .... on
   Start iteration      DIISMaxIt       ....     0
   Startup error        DIISStart       ....  0.200000
   # of expansion vecs  DIISMaxEq       ....     5
   Bias factor          DIISBfac        ....   1.050
   Max. coefficient     DIISMaxC        ....  10.000
 Trust-Rad. Augm. Hess. CNVTRAH         .... auto
   Auto Start mean grad. ratio tolernc. ....  1.125000
   Auto Start start iteration           ....    20
   Auto Start num. interpolation iter.  ....    10
   Max. Number of Micro iterations      ....    16
   Max. Number of Macro iterations      .... Maxiter - #DIIS iter
   Number of Davidson start vectors     ....     2
   Converg. threshold I  (grad. norm)   ....   1.000e-05
   Converg. threshold II (energy diff.) ....   1.000e-08
   Grad. Scal. Fac. for Micro threshold ....   0.100
   Minimum threshold for Micro iter.    ....   0.010
   NR start threshold (gradient norm)   ....   0.001
   Initial trust radius                 ....   0.400
   Minimum AH scaling param. (alpha)    ....   1.000
   Maximum AH scaling param. (alpha)    .... 1000.000
   Orbital update algorithm             .... Taylor
   White noise on init. David. guess    .... on
   Maximum white noise                  ....   0.010
   Quad. conv. algorithm                .... NR
 SOSCF                  CNVSOSCF        .... on
   Start iteration      SOSCFMaxIt      ....   150
   Startup grad/error   SOSCFStart      ....  0.001000
 Level Shifting         CNVShift        .... on
   Level shift para.    LevelShift      ....    0.2500
   Turn off err/grad.   ShiftErr        ....    0.0000
 Zerner damping         CNVZerner       .... off
 Static damping         CNVDamp         .... on
   Fraction old density DampFac         ....    0.8500
   Max. Damping (<1)    DampMax         ....    0.9800
   Min. Damping (>=0)   DampMin         ....    0.0000
   Turn off err/grad.   DampErr         ....    0.0300
 Fernandez-Rico         CNVRico         .... off

SCF Procedure:
 Maximum # iterations   MaxIter         ....   125
 SCF integral mode      SCFMode         .... Direct
   Integral package                     .... SHARK and LIBINT hybrid scheme
 Reset frequency        DirectResetFreq ....    20
 Integral Threshold     Thresh          ....  2.500e-11 Eh
 Primitive CutOff       TCut            ....  2.500e-12 Eh

Convergence Tolerance:
 Convergence Check Mode ConvCheckMode   .... Total+1el-Energy
 Convergence forced     ConvForced      .... 0
 Energy Change          TolE            ....  1.000e-08 Eh
 1-El. energy change                    ....  1.000e-05 Eh
 Orbital Gradient       TolG            ....  1.000e-05
 Orbital Rotation angle TolX            ....  1.000e-05
 DIIS Error             TolErr          ....  5.000e-07


Diagonalization of the overlap matrix:
Smallest eigenvalue                        ... 1.703e-03
Time for diagonalization                   ...    0.004 sec
Threshold for overlap eigenvalues          ... 1.000e-08
Number of eigenvalues below threshold      ... 0
Time for construction of square roots      ...    0.002 sec
Total time needed                          ...    0.006 sec

Time for model grid setup =    0.071 sec

------------------------------
INITIAL GUESS: MODEL POTENTIAL
------------------------------
Loading Hartree-Fock densities                     ... done
Calculating cut-offs                               ... done
Initializing the effective Hamiltonian             ... done
Setting up the integral package (SHARK)            ... done
Starting the Coulomb interaction                   ... done (   0.1 sec)
Reading the grid                                   ... done
Mapping shells                                     ... done
Starting the XC term evaluation                    ... done (   0.1 sec)
  promolecular density results
     # of electrons  =     42.992156347
     EX              =    -30.585209655
     EC              =     -1.392946386
     EX+EC           =    -31.978156041
Transforming the Hamiltonian                       ... done (   0.0 sec)
Diagonalizing the Hamiltonian                      ... done (   0.0 sec)
Back transforming the eigenvectors                 ... done (   0.0 sec)
Now organizing SCF variables                       ... done
                      ------------------
                      INITIAL GUESS DONE (   0.2 sec)
                      ------------------
-------------------
DFT GRID GENERATION
-------------------

General Integration Accuracy     IntAcc      ... 4.388
Radial Grid Type                 RadialGrid  ... OptM3 with GC (2021)
Angular Grid (max. ang.)         AngularGrid ... 4 (Lebedev-302)
Angular grid pruning method      GridPruning ... 4 (adaptive)
Weight generation scheme         WeightScheme... Becke
Basis function cutoff            BFCut       ... 1.0000e-11
Integration weight cutoff        WCut        ... 1.0000e-14
Angular grids for H and He will be reduced by one unit
Partially contracted basis set               ... off
Rotationally invariant grid construction     ... off

Total number of grid points                  ...    68570
Total number of batches                      ...     1080
Average number of points per batch           ...       63
Average number of grid points per atom       ...     4034
Time for grid setup =    0.353 sec

--------------------
COSX GRID GENERATION
--------------------

GRIDX 1
-------
General Integration Accuracy     IntAcc      ... 3.816
Radial Grid Type                 RadialGrid  ... OptM3 with GC (2021)
Angular Grid (max. ang.)         AngularGrid ... 1 (Lebedev-50)
Angular grid pruning method      GridPruning ... 4 (adaptive)
Weight generation scheme         WeightScheme... Becke
Basis function cutoff            BFCut       ... 1.0000e-11
Integration weight cutoff        WCut        ... 1.0000e-14
Angular grids for H and He will be reduced by one unit
Partially contracted basis set               ... on
Rotationally invariant grid construction     ... off

Total number of grid points                  ...     8801
Total number of batches                      ...      148
Average number of points per batch           ...       59
Average number of grid points per atom       ...      518
UseSFitting                                  ... on

GRIDX 2
-------
General Integration Accuracy     IntAcc      ... 4.020
Radial Grid Type                 RadialGrid  ... OptM3 with GC (2021)
Angular Grid (max. ang.)         AngularGrid ... 2 (Lebedev-110)
Angular grid pruning method      GridPruning ... 4 (adaptive)
Weight generation scheme         WeightScheme... Becke
Basis function cutoff            BFCut       ... 1.0000e-11
Integration weight cutoff        WCut        ... 1.0000e-14
Angular grids for H and He will be reduced by one unit
Partially contracted basis set               ... on
Rotationally invariant grid construction     ... off

Total number of grid points                  ...    18069
Total number of batches                      ...      292
Average number of points per batch           ...       61
Average number of grid points per atom       ...     1063
UseSFitting                                  ... on

GRIDX 3
-------
General Integration Accuracy     IntAcc      ... 4.338
Radial Grid Type                 RadialGrid  ... OptM3 with GC (2021)
Angular Grid (max. ang.)         AngularGrid ... 3 (Lebedev-194)
Angular grid pruning method      GridPruning ... 4 (adaptive)
Weight generation scheme         WeightScheme... Becke
Basis function cutoff            BFCut       ... 1.0000e-11
Integration weight cutoff        WCut        ... 1.0000e-14
Angular grids for H and He will be reduced by one unit
Partially contracted basis set               ... on
Rotationally invariant grid construction     ... off

Total number of grid points                  ...    39445
Total number of batches                      ...      624
Average number of points per batch           ...       63
Average number of grid points per atom       ...     2320
UseSFitting                                  ... on

Time for X-Grid setup             =    0.439 sec

--------------
SCF ITERATIONS
--------------
ITER       Energy         Delta-E        Max-DP      RMS-DP      [F,P]     Damp
               ***  Starting incremental Fock matrix formation  ***
  0   -213.8176144008   0.000000000000 0.03357984  0.00096400  0.1601690 0.8500
  1   -213.8464223224  -0.028807921567 0.03017931  0.00092344  0.1280373 0.8500
                               ***Turning on DIIS***
  2   -213.8681758518  -0.021753529464 0.02349507  0.00075670  0.0970971 0.8500
  3   -213.8842267825  -0.016050930701 0.01437775  0.00053412  0.0725050 0.8500
  4   -213.8965678471  -0.012341064580 0.00947266  0.00040597  0.0572065 0.8500
  5   -213.9062676918  -0.009699844681 0.00718734  0.00033173  0.0471269 0.8500
  6   -213.9141470780  -0.007879386161 0.00590550  0.00027952  0.0396065 0.8500
  7   -213.9206686994  -0.006521621455 0.00506241  0.00024087  0.0335570 0.8500
  8   -213.9261270481  -0.005458348705 0.02888981  0.00138239  0.0283791 0.0000
  9   -213.9555176288  -0.029390580634 0.00117355  0.00004248  0.0013332 0.0000
                      *** Initiating the SOSCF procedure ***
                           *** Shutting down DIIS ***
                      *** Re-Reading the Fockian *** 
                      *** Removing any level shift *** 
ITER      Energy       Delta-E        Grad      Rot      Max-DP    RMS-DP
 10   -213.95552875  -0.0000111230  0.000135  0.000135  0.000645  0.000019
               *** Restarting incremental Fock matrix formation ***
 11   -213.95558490  -0.0000561446  0.000081  0.000103  0.000350  0.000012
 12   -213.95558510  -0.0000002066  0.000031  0.000041  0.000184  0.000006
 13   -213.95558513  -0.0000000268  0.000016  0.000013  0.000041  0.000002
                  ***Gradient check signals convergence***
              ***Rediagonalizing the Fockian in SOSCF/NRSCF***

               *****************************************************
               *                     SUCCESS                       *
               *           SCF CONVERGED AFTER  14 CYCLES          *
               *****************************************************

Old exchange energy                            =    -10.467046030 Eh
New exchange energy                            =    -10.467060853 Eh
Exchange energy change after final integration =     -0.000014823 Eh
Total energy after final integration           =   -213.955599958 Eh
Final COS-X integration done in                =     3.522 sec

----------------
TOTAL SCF ENERGY
----------------

Total Energy       :         -213.95559996 Eh           -5822.02786 eV

Components:
Nuclear Repulsion  :          198.32868316 Eh            5396.79784 eV
Electronic Energy  :         -412.28428312 Eh          -11218.82570 eV
One Electron Energy:         -670.78748250 Eh          -18253.05537 eV
Two Electron Energy:          258.50319938 Eh            7034.22967 eV
Max COSX asymmetry :            0.00000206 Eh               0.00006 eV

Virial components:
Potential Energy   :         -425.28533991 Eh          -11572.60244 eV
Kinetic Energy     :          211.32973995 Eh            5750.57458 eV
Virial Ratio       :            2.01242542


DFT components:
N(Alpha)           :       20.999929765920 electrons
N(Beta)            :       20.999929765920 electrons
N(Total)           :       41.999859531839 electrons
E(XC)              :      -22.315017254593 Eh       
DFET-embed. en.    :        0.000000000000 Eh       

---------------
SCF CONVERGENCE
---------------

  Last Energy change         ...   -5.4160e-09  Tolerance :   1.0000e-08
  Last MAX-Density change    ...    2.6645e-15  Tolerance :   1.0000e-07
  Last RMS-Density change    ...    3.9387e-17  Tolerance :   5.0000e-09
  Last Orbital Gradient      ...    1.1031e-06  Tolerance :   1.0000e-05
  Last Orbital Rotation      ...    9.6079e-07  Tolerance :   1.0000e-05

             **** THE GBW FILE WAS UPDATED (butylamine_prot_aq_0.gbw) ****
             **** DENSITY butylamine_prot_aq_0.scfp WAS UPDATED ****
             **** ENERGY FILE WAS UPDATED (butylamine_prot_aq_0.en.tmp) ****
             **** THE GBW FILE WAS UPDATED (butylamine_prot_aq_0.gbw) ****
             **** DENSITY butylamine_prot_aq_0.scfp WAS UPDATED ****
----------------
ORBITAL ENERGIES
----------------

  NO   OCC          E(Eh)            E(eV) 
   0   2.0000     -14.743039      -401.1785 
   1   2.0000     -10.514496      -286.1140 
   2   2.0000     -10.441928      -284.1393 
   3   2.0000     -10.420220      -283.5486 
   4   2.0000     -10.384391      -282.5736 
   5   2.0000      -1.332083       -36.2478 
   6   2.0000      -1.099735       -29.9253 
   7   2.0000      -1.024324       -27.8733 
   8   2.0000      -0.938852       -25.5475 
   9   2.0000      -0.911632       -24.8068 
  10   2.0000      -0.896007       -24.3816 
  11   2.0000      -0.855584       -23.2816 
  12   2.0000      -0.802405       -21.8346 
  13   2.0000      -0.742120       -20.1941 
  14   2.0000      -0.712146       -19.3785 
  15   2.0000      -0.697893       -18.9906 
  16   2.0000      -0.648031       -17.6338 
  17   2.0000      -0.636017       -17.3069 
  18   2.0000      -0.597235       -16.2516 
  19   2.0000      -0.582170       -15.8417 
  20   2.0000      -0.581164       -15.8143 
  21   0.0000      -0.083270        -2.2659 
  22   0.0000      -0.023774        -0.6469 
  23   0.0000      -0.019404        -0.5280 
  24   0.0000       0.006066         0.1651 
  25   0.0000       0.028755         0.7825 
  26   0.0000       0.044293         1.2053 
  27   0.0000       0.052360         1.4248 
  28   0.0000       0.076213         2.0739 
  29   0.0000       0.087772         2.3884 
  30   0.0000       0.096696         2.6312 
  31   0.0000       0.111665         3.0386 
  32   0.0000       0.121204         3.2981 
  33   0.0000       0.138900         3.7797 
  34   0.0000       0.155961         4.2439 
  35   0.0000       0.174963         4.7610 
  36   0.0000       0.190851         5.1933 
  37   0.0000       0.313467         8.5299 
  38   0.0000       0.325363         8.8536 
  39   0.0000       0.331148         9.0110 
  40   0.0000       0.356331         9.6963 
  41   0.0000       0.385234        10.4828 
  42   0.0000       0.394062        10.7230 
  43   0.0000       0.426275        11.5995 
  44   0.0000       0.482532        13.1304 
  45   0.0000       0.487417        13.2633 
  46   0.0000       0.520654        14.1677 
  47   0.0000       0.547471        14.8974 
  48   0.0000       0.572449        15.5771 
  49   0.0000       0.578968        15.7545 
  50   0.0000       0.593284        16.1441 
  51   0.0000       0.607508        16.5311 
  52   0.0000       0.621164        16.9027 
  53   0.0000       0.633163        17.2292 
  54   0.0000       0.643387        17.5074 
  55   0.0000       0.656326        17.8595 
  56   0.0000       0.662147        18.0179 
  57   0.0000       0.670038        18.2327 
  58   0.0000       0.685056        18.6413 
  59   0.0000       0.694188        18.8898 
  60   0.0000       0.694832        18.9073 
  61   0.0000       0.714682        19.4475 
  62   0.0000       0.729528        19.8515 
  63   0.0000       0.780336        21.2340 
  64   0.0000       0.839405        22.8414 
  65   0.0000       0.914968        24.8975 
  66   0.0000       0.963161        26.2089 
  67   0.0000       0.999198        27.1896 
  68   0.0000       1.031534        28.0695 
  69   0.0000       1.112247        30.2658 
  70   0.0000       1.168213        31.7887 
  71   0.0000       1.175741        31.9935 
  72   0.0000       1.198395        32.6100 
  73   0.0000       1.234966        33.6051 
  74   0.0000       1.317887        35.8615 
  75   0.0000       1.341473        36.5033 
  76   0.0000       1.405451        38.2443 
  77   0.0000       1.413805        38.4716 
  78   0.0000       1.511952        41.1423 
  79   0.0000       1.540036        41.9065 
  80   0.0000       1.609480        43.7962 
  81   0.0000       1.662822        45.2477 
  82   0.0000       1.672016        45.4979 
  83   0.0000       1.696927        46.1757 
  84   0.0000       1.716893        46.7190 
  85   0.0000       1.731122        47.1062 
  86   0.0000       1.739763        47.3414 
  87   0.0000       1.774674        48.2913 
  88   0.0000       1.784339        48.5543 
  89   0.0000       1.787942        48.6524 
  90   0.0000       1.800403        48.9915 
  91   0.0000       1.807191        49.1762 
  92   0.0000       1.823942        49.6320 
  93   0.0000       1.829274        49.7771 
  94   0.0000       1.836297        49.9682 
  95   0.0000       1.864657        50.7399 
  96   0.0000       1.877540        51.0905 
  97   0.0000       1.887291        51.3558 
  98   0.0000       1.906734        51.8849 
  99   0.0000       1.936732        52.7012 
 100   0.0000       1.984712        54.0068 
 101   0.0000       2.035154        55.3793 
 102   0.0000       2.073981        56.4359 
 103   0.0000       2.148672        58.4683 
 104   0.0000       2.171751        59.0964 
 105   0.0000       2.219297        60.3901 
 106   0.0000       2.280111        62.0450 
 107   0.0000       2.318381        63.0863 
 108   0.0000       2.351246        63.9807 
 109   0.0000       2.382267        64.8248 
 110   0.0000       2.418850        65.8203 
 111   0.0000       2.426401        66.0257 
 112   0.0000       2.475073        67.3501 
 113   0.0000       2.535154        68.9850 
 114   0.0000       2.585812        70.3635 
 115   0.0000       2.588138        70.4268 
 116   0.0000       2.619385        71.2771 
 117   0.0000       2.648139        72.0595 
 118   0.0000       2.716085        73.9084 
 119   0.0000       2.828437        76.9657 
 120   0.0000       2.840987        77.3072 
 121   0.0000       2.860610        77.8412 
 122   0.0000       2.880643        78.3863 
 123   0.0000       2.950217        80.2795 
 124   0.0000       2.980414        81.1012 
 125   0.0000       3.027246        82.3756 
 126   0.0000       3.033712        82.5515 
 127   0.0000       3.060211        83.2726 
 128   0.0000       3.157935        85.9318 
 129   0.0000       3.169847        86.2559 

                    ********************************
                    * MULLIKEN POPULATION ANALYSIS *
                    ********************************

-----------------------
MULLIKEN ATOMIC CHARGES
-----------------------
   0 C :   -0.020255
   1 C :   -0.123549
   2 H :    0.052945
   3 H :    0.043648
   4 H :    0.065417
   5 C :   -0.101343
   6 H :    0.051183
   7 H :    0.017944
   8 C :    0.014909
   9 H :    0.052647
  10 H :    0.086171
  11 N :   -0.011445
  12 H :    0.108715
  13 H :    0.102888
  14 H :    0.218759
  15 H :    0.226049
  16 H :    0.215317
Sum of atomic charges:    1.0000000

--------------------------------
MULLIKEN REDUCED ORBITAL CHARGES
--------------------------------
  0 C s       :     3.006329  s :     3.006329
      pz      :     1.021129  p :     2.986214
      px      :     0.922994
      py      :     1.042092
      dz2     :     0.008430  d :     0.027712
      dxz     :     0.004082
      dyz     :     0.002553
      dx2y2   :     0.005906
      dxy     :     0.006742
  1 C s       :     3.057594  s :     3.057594
      pz      :     1.025843  p :     3.029059
      px      :     1.033006
      py      :     0.970210
      dz2     :     0.010370  d :     0.036896
      dxz     :     0.005797
      dyz     :     0.003446
      dx2y2   :     0.008474
      dxy     :     0.008808
  2 H s       :     0.922648  s :     0.922648
      pz      :     0.005875  p :     0.024407
      px      :     0.005437
      py      :     0.013094
  3 H s       :     0.931956  s :     0.931956
      pz      :     0.015205  p :     0.024397
      px      :     0.004192
      py      :     0.005000
  4 H s       :     0.910357  s :     0.910357
      pz      :     0.006245  p :     0.024225
      px      :     0.008119
      py      :     0.009860
  5 C s       :     3.069365  s :     3.069365
      pz      :     1.014407  p :     2.997172
      px      :     0.909351
      py      :     1.073415
      dz2     :     0.010447  d :     0.034805
      dxz     :     0.005507
      dyz     :     0.003195
      dx2y2   :     0.009748
      dxy     :     0.005909
  6 H s       :     0.926262  s :     0.926262
      pz      :     0.015160  p :     0.022555
      px      :     0.003293
      py      :     0.004101
  7 H s       :     0.959157  s :     0.959157
      pz      :     0.005536  p :     0.022899
      px      :     0.004350
      py      :     0.013013
  8 C s       :     3.042011  s :     3.042011
      pz      :     1.075105  p :     2.897268
      px      :     1.012266
      py      :     0.809897
      dz2     :     0.011290  d :     0.045812
      dxz     :     0.006159
      dyz     :     0.005614
      dx2y2   :     0.008129
      dxy     :     0.014619
  9 H s       :     0.924182  s :     0.924182
      pz      :     0.015378  p :     0.023171
      px      :     0.003514
      py      :     0.004279
 10 H s       :     0.890269  s :     0.890269
      pz      :     0.004908  p :     0.023560
      px      :     0.005328
      py      :     0.013324
 11 N s       :     3.304729  s :     3.304729
      pz      :     1.211899  p :     3.688672
      px      :     1.219649
      py      :     1.257124
      dz2     :     0.005344  d :     0.018044
      dxz     :     0.001654
      dyz     :     0.002621
      dx2y2   :     0.004957
      dxy     :     0.003467
 12 H s       :     0.868584  s :     0.868584
      pz      :     0.005224  p :     0.022702
      px      :     0.006021
      py      :     0.011457
 13 H s       :     0.874371  s :     0.874371
      pz      :     0.016521  p :     0.022742
      px      :     0.003404
      py      :     0.002817
 14 H s       :     0.737621  s :     0.737621
      pz      :     0.028827  p :     0.043620
      px      :     0.007650
      py      :     0.007143
 15 H s       :     0.730400  s :     0.730400
      pz      :     0.010220  p :     0.043551
      px      :     0.026202
      py      :     0.007129
 16 H s       :     0.740288  s :     0.740288
      pz      :     0.010765  p :     0.044395
      px      :     0.013556
      py      :     0.020074


                     *******************************
                     * LOEWDIN POPULATION ANALYSIS *
                     *******************************

----------------------
LOEWDIN ATOMIC CHARGES
----------------------
   0 C :   -0.045600
   1 C :   -0.051903
   2 H :    0.035618
   3 H :    0.032486
   4 H :    0.042322
   5 C :   -0.043787
   6 H :    0.032197
   7 H :    0.014019
   8 C :    0.053522
   9 H :    0.034056
  10 H :    0.057443
  11 N :    0.295772
  12 H :    0.054515
  13 H :    0.052925
  14 H :    0.146426
  15 H :    0.148717
  16 H :    0.141271

-------------------------------
LOEWDIN REDUCED ORBITAL CHARGES
-------------------------------
  0 C s       :     2.824974  s :     2.824974
      pz      :     1.069768  p :     3.148978
      px      :     1.000397
      py      :     1.078813
      dz2     :     0.021843  d :     0.071648
      dxz     :     0.010063
      dyz     :     0.006592
      dx2y2   :     0.016547
      dxy     :     0.016603
  1 C s       :     2.830674  s :     2.830674
      pz      :     1.062018  p :     3.131552
      px      :     1.041329
      py      :     1.028206
      dz2     :     0.026110  d :     0.089676
      dxz     :     0.012694
      dyz     :     0.008795
      dx2y2   :     0.020825
      dxy     :     0.021252
  2 H s       :     0.897274  s :     0.897274
      pz      :     0.015551  p :     0.067108
      px      :     0.015965
      py      :     0.035591
  3 H s       :     0.900416  s :     0.900416
      pz      :     0.040938  p :     0.067098
      px      :     0.012784
      py      :     0.013376
  4 H s       :     0.890251  s :     0.890251
      pz      :     0.017012  p :     0.067427
      px      :     0.023585
      py      :     0.026831
  5 C s       :     2.833393  s :     2.833393
      pz      :     1.058179  p :     3.122549
      px      :     0.985415
      py      :     1.078954
      dz2     :     0.026201  d :     0.087844
      dxz     :     0.013582
      dyz     :     0.007487
      dx2y2   :     0.024446
      dxy     :     0.016127
  6 H s       :     0.900090  s :     0.900090
      pz      :     0.041521  p :     0.067712
      px      :     0.013973
      py      :     0.012218
  7 H s       :     0.918508  s :     0.918508
      pz      :     0.015546  p :     0.067472
      px      :     0.016214
      py      :     0.035712
  8 C s       :     2.839673  s :     2.839673
      pz      :     1.078762  p :     3.001768
      px      :     1.037889
      py      :     0.885117
      dz2     :     0.027535  d :     0.105037
      dxz     :     0.013054
      dyz     :     0.012122
      dx2y2   :     0.019454
      dxy     :     0.032873
  9 H s       :     0.897472  s :     0.897472
      pz      :     0.041995  p :     0.068472
      px      :     0.012289
      py      :     0.014187
 10 H s       :     0.873870  s :     0.873870
      pz      :     0.014095  p :     0.068687
      px      :     0.016619
      py      :     0.037973
 11 N s       :     2.995157  s :     2.995157
      pz      :     1.213510  p :     3.663362
      px      :     1.212965
      py      :     1.236887
      dz2     :     0.014329  d :     0.045710
      dxz     :     0.004378
      dyz     :     0.005953
      dx2y2   :     0.011829
      dxy     :     0.009220
 12 H s       :     0.876156  s :     0.876156
      pz      :     0.016022  p :     0.069329
      px      :     0.020744
      py      :     0.032563
 13 H s       :     0.878067  s :     0.878067
      pz      :     0.046546  p :     0.069009
      px      :     0.013251
      py      :     0.009211
 14 H s       :     0.743927  s :     0.743927
      pz      :     0.072718  p :     0.109647
      px      :     0.017561
      py      :     0.019369
 15 H s       :     0.740971  s :     0.740971
      pz      :     0.023731  p :     0.110312
      px      :     0.066830
      py      :     0.019751
 16 H s       :     0.747353  s :     0.747353
      pz      :     0.024797  p :     0.111376
      px      :     0.032247
      py      :     0.054332


                      *****************************
                      * MAYER POPULATION ANALYSIS *
                      *****************************

  NA   - Mulliken gross atomic population
  ZA   - Total nuclear charge
  QA   - Mulliken gross atomic charge
  VA   - Mayer's total valence
  BVA  - Mayer's bonded valence
  FA   - Mayer's free valence

  ATOM       NA         ZA         QA         VA         BVA        FA
  0 C      6.0203     6.0000    -0.0203     4.0245     4.0245     0.0000
  1 C      6.1235     6.0000    -0.1235     4.0603     4.0603     0.0000
  2 H      0.9471     1.0000     0.0529     0.9934     0.9934     0.0000
  3 H      0.9564     1.0000     0.0436     0.9917     0.9917    -0.0000
  4 H      0.9346     1.0000     0.0654     0.9889     0.9889    -0.0000
  5 C      6.1013     6.0000    -0.1013     4.0036     4.0036     0.0000
  6 H      0.9488     1.0000     0.0512     0.9768     0.9768    -0.0000
  7 H      0.9821     1.0000     0.0179     0.9765     0.9765     0.0000
  8 C      5.9851     6.0000     0.0149     3.9157     3.9157     0.0000
  9 H      0.9474     1.0000     0.0526     0.9871     0.9871     0.0000
 10 H      0.9138     1.0000     0.0862     0.9890     0.9890     0.0000
 11 N      7.0114     7.0000    -0.0114     3.7139     3.7139    -0.0000
 12 H      0.8913     1.0000     0.1087     0.9782     0.9782     0.0000
 13 H      0.8971     1.0000     0.1029     0.9841     0.9841     0.0000
 14 H      0.7812     1.0000     0.2188     0.9633     0.9633    -0.0000
 15 H      0.7740     1.0000     0.2260     0.9538     0.9538    -0.0000
 16 H      0.7847     1.0000     0.2153     0.9744     0.9744    -0.0000

  Mayer bond orders larger than 0.100000
B(  0-C ,  1-C ) :   1.0925 B(  0-C ,  2-H ) :   0.9775 B(  0-C ,  3-H ) :   0.9747 
B(  0-C ,  4-H ) :   0.9708 B(  1-C ,  5-C ) :   1.0366 B(  1-C ,  6-H ) :   0.9584 
B(  1-C ,  7-H ) :   0.9480 B(  5-C ,  8-C ) :   1.0659 B(  5-C ,  9-H ) :   0.9521 
B(  5-C , 10-H ) :   0.9429 B(  8-C , 11-N ) :   0.9163 B(  8-C , 12-H ) :   0.9549 
B(  8-C , 13-H ) :   0.9529 B( 11-N , 14-H ) :   0.9319 B( 11-N , 15-H ) :   0.9298 
B( 11-N , 16-H ) :   0.9309 

-------
TIMINGS
-------

Total SCF time: 0 days 0 hours 0 min 25 sec 

Total time                  ....      25.172 sec
Sum of individual times     ....      24.895 sec  ( 98.9%)

Fock matrix formation       ....      23.796 sec  ( 94.5%)
  Split-RI-J                ....       1.078 sec  (  4.5% of F)
  Chain of spheres X        ....      18.389 sec  ( 77.3% of F)
  XC integration            ....       3.783 sec  ( 15.9% of F)
    Basis function eval.    ....       1.230 sec  ( 32.5% of XC)
    Density eval.           ....       0.635 sec  ( 16.8% of XC)
    XC-Functional eval.     ....       0.554 sec  ( 14.7% of XC)
    XC-Potential eval.      ....       0.736 sec  ( 19.5% of XC)
Diagonalization             ....       0.049 sec  (  0.2%)
Density matrix formation    ....       0.003 sec  (  0.0%)
Population analysis         ....       0.013 sec  (  0.1%)
Initial guess               ....       0.116 sec  (  0.5%)
Orbital Transformation      ....       0.000 sec  (  0.0%)
Orbital Orthonormalization  ....       0.000 sec  (  0.0%)
DIIS solution               ....       0.040 sec  (  0.2%)
SOSCF solution              ....       0.015 sec  (  0.1%)
Grid generation             ....       0.862 sec  (  3.4%)

Maximum memory used throughout the entire SCF-calculation: 50.3 MB


-------------------------------------------------------------------------------
                          DFT DISPERSION CORRECTION                            
                                                                               
                                 DFTD4 V2.5                                    
-------------------------------------------------------------------------------
The WB97X functional is recognized
Active option DFTDOPT                   ...         5   

Starting D4
-------------------------   ----------------
Dispersion correction           -0.001299167
-------------------------   ----------------


-------------------------   --------------------
FINAL SINGLE POINT ENERGY      -213.956899125096
-------------------------   --------------------



           ************************************************************
           *        Program running with 4 parallel MPI-processes     *
           *              working on a common directory               *
           ************************************************************
------------------------------------------------------------------------------
                         ORCA SCF GRADIENT CALCULATION
------------------------------------------------------------------------------

 ... reading COSX grid (gridx3)
Gradient of the Kohn-Sham DFT energy:
Kohn-Sham wavefunction type      ... RKS
Hartree-Fock exchange scaling    ...    0.158
Number of operators              ...    1
Number of atoms                  ...   17
Basis set dimensions             ...  130
Integral neglect threshold       ... 2.5e-11
Integral primitive cutoff        ... 2.5e-12
SHARK Integral package           ... ON

Nuc. rep. gradient       (SHARK) ... done (  0.0 sec)
HCore & Overlap gradient (SHARK) ... done (  0.0 sec)
RI-J gradient            (SHARK) ... done (  0.2 sec)
COSX-gradient                    ... done (  3.8 sec)
Exchange-correlation gradient    ... done
Dispersion correction            ... Starting D4
Starting D4
Starting D4
Starting D4


------------------- 
Dispersion Gradient 
------------------- 
   1  :   -0.000027917   -0.000000478    0.000002081
   2  :   -0.000008048   -0.000004305   -0.000003869
   3  :   -0.000006939   -0.000001522    0.000000163
   4  :   -0.000007844   -0.000000842   -0.000000350
   5  :   -0.000006658   -0.000000664    0.000000132
   6  :   -0.000001195    0.000006909    0.000003174
   7  :   -0.000004810    0.000000552    0.000000474
   8  :   -0.000004193    0.000001013    0.000000336
   9  :    0.000012054    0.000009137   -0.000004358
  10  :    0.000001077    0.000000120   -0.000001136
  11  :   -0.000000616    0.000001052   -0.000000654
  12  :    0.000021518   -0.000001545   -0.000000758
  13  :    0.000005080   -0.000000142    0.000000252
  14  :    0.000005403   -0.000000054    0.000001252
  15  :    0.000005534   -0.000001360    0.000008411
  16  :    0.000015296   -0.000001658   -0.000002975
  17  :    0.000002259   -0.000006210   -0.000002175

  |G| =    0.000045575

done

------------------
CARTESIAN GRADIENT
------------------

   1   C   :   -0.007416437    0.003882704    0.002965071
   2   C   :    0.007950045   -0.012163844   -0.008214035
   3   H   :    0.003042999   -0.007531536    0.002648908
   4   H   :    0.001578561    0.000345215   -0.008682100
   5   H   :    0.005403095    0.004982284    0.002366249
   6   C   :   -0.002977888    0.014141422    0.011659510
   7   H   :   -0.002634915    0.001508635    0.008138753
   8   H   :   -0.004544922    0.009815013   -0.000714915
   9   C   :    0.016184681   -0.010655877   -0.006110019
  10   H   :   -0.000502854   -0.002168568   -0.009611142
  11   H   :    0.000185408   -0.007713245    0.000551047
  12   N   :   -0.001758191   -0.001984850    0.002573228
  13   H   :   -0.007984638   -0.001902337   -0.001455196
  14   H   :   -0.003961509    0.002270838    0.006246429
  15   H   :   -0.001620116    0.002950242    0.002500967
  16   H   :    0.001304671    0.003529776   -0.002395920
  17   H   :   -0.002240508    0.000919793   -0.002523058

Difference to translation invariance:
           :    0.0000074830    0.0002256639   -0.0000562224

Difference to rotation invariance:
           :    0.0001448606   -0.0004057658    0.0000584280

Norm of the cartesian gradient     ...    0.0432270233
RMS gradient                       ...    0.0060529940
MAX gradient                       ...    0.0161846810

-------
TIMINGS
-------

Total SCF gradient time            ...        5.427 sec

One electron gradient       ....       0.044 sec  (  0.8%)
RI-J Coulomb gradient       ....       0.235 sec  (  4.3%)
COSX gradient               ....       3.750 sec  ( 69.1%)
XC gradient                 ....       1.126 sec  ( 20.8%)

Maximum memory used throughout the entire SCFGRAD-calculation: 38.7 MB
------------------------------------------------------------------------------
                         ORCA GEOMETRY RELAXATION STEP
------------------------------------------------------------------------------

Reading the OPT-File                    .... done
Getting information on internals        .... done
Copying old internal coords+grads       .... done
Making the new internal coordinates     .... (new redundants).... done
Validating the new internal coordinates .... (new redundants).... done
Calculating the B-matrix                .... done
Calculating the G,G- and P matrices     .... done
Transforming gradient to internals      .... done
Projecting the internal gradient        .... done
Number of atoms                         ....  17
Number of internal coordinates          ....  82
Current Energy                          ....  -213.956899125 Eh
Current gradient norm                   ....     0.043227023 Eh/bohr
Maximum allowed component of the step   ....  0.300
Current trust radius                    ....  0.300
Evaluating the initial hessian          ....  (Almloef) done
Projecting the Hessian                  .... done
Forming the augmented Hessian           .... done
Diagonalizing the augmented Hessian     .... done
Last element of RFO vector              ....  0.989800729
Lowest eigenvalues of augmented Hessian:
 -0.003037241  0.011124424  0.011523264  0.011724073  0.013614950
Length of the computed step             ....  0.143926775
The final length of the internal step   ....  0.143926775
Converting the step to cartesian space:
 Initial RMS(Int)=    0.0158940534
Transforming coordinates:
 Iter   0:  RMS(Cart)=    0.0289642927 RMS(Int)=    0.0158623730
 Iter   1:  RMS(Cart)=    0.0003850279 RMS(Int)=    0.0002544091
 Iter   2:  RMS(Cart)=    0.0000105008 RMS(Int)=    0.0000050817
 Iter   3:  RMS(Cart)=    0.0000002786 RMS(Int)=    0.0000001797
 Iter   4:  RMS(Cart)=    0.0000000079 RMS(Int)=    0.0000000045
done
Storing new coordinates                 .... done

                                .--------------------.
          ----------------------|Geometry convergence|-------------------------
          Item                value                   Tolerance       Converged
          ---------------------------------------------------------------------
          RMS gradient        0.0032679831            0.0001000000      NO
          MAX gradient        0.0104124949            0.0003000000      NO
          RMS step            0.0158940534            0.0020000000      NO
          MAX step            0.0447339799            0.0040000000      NO
          ........................................................
          Max(Bonds)      0.0152      Max(Angles)    1.40
          Max(Dihed)        2.56      Max(Improp)    0.00
          ---------------------------------------------------------------------

The optimization has not yet converged - more geometry cycles are needed


    ---------------------------------------------------------------------------
                         Redundant Internal Coordinates
                            (Angstroem and degrees)

        Definition                    Value    dE/dq     Step     New-Value
    ----------------------------------------------------------------------------
     1. B(C   1,C   0)                1.5252 -0.002408  0.0033    1.5285   
     2. B(H   2,C   0)                1.0880 -0.008554  0.0124    1.1003   
     3. B(H   3,C   0)                1.0880 -0.008772  0.0127    1.1007   
     4. B(H   4,C   0)                1.0877 -0.007649  0.0111    1.0987   
     5. B(C   5,C   1)                1.5305 -0.002019  0.0028    1.5334   
     6. B(H   6,C   1)                1.0915 -0.008183  0.0120    1.1035   
     7. B(H   7,C   1)                1.0913 -0.010412  0.0152    1.1066   
     8. B(C   8,C   5)                1.5239  0.000558 -0.0008    1.5231   
     9. B(H   9,C   5)                1.0910 -0.009422  0.0138    1.1048   
    10. B(H  10,C   5)                1.0904 -0.007154  0.0104    1.1008   
    11. B(N  11,C   8)                1.4914 -0.006429  0.0088    1.5002   
    12. B(H  12,C   8)                1.0901 -0.006162  0.0090    1.0991   
    13. B(H  13,C   8)                1.0905 -0.006128  0.0089    1.0994   
    14. B(H  14,N  11)                1.0309  0.002335 -0.0031    1.0279   
    15. B(H  15,N  11)                1.0297  0.001951 -0.0025    1.0272   
    16. B(H  16,N  11)                1.0302  0.001266 -0.0017    1.0286   
    17. A(H   3,C   0,H   4)          108.09  0.001087   -0.18    107.91   
    18. A(C   1,C   0,H   4)          110.73 -0.001188    0.21    110.94   
    19. A(C   1,C   0,H   2)          110.90  0.000157   -0.03    110.87   
    20. A(H   2,C   0,H   4)          108.01  0.000630   -0.14    107.87   
    21. A(H   2,C   0,H   3)          108.13  0.000461   -0.08    108.05   
    22. A(C   1,C   0,H   3)          110.86 -0.001045    0.20    111.06   
    23. A(C   0,C   1,C   5)          110.83 -0.003671    0.92    111.74   
    24. A(H   6,C   1,H   7)          108.50  0.000737   -0.88    107.62   
    25. A(C   5,C   1,H   7)          111.20  0.001451   -0.34    110.86   
    26. A(C   0,C   1,H   7)          107.74  0.000235    0.19    107.93   
    27. A(C   5,C   1,H   6)          109.76  0.001682   -0.31    109.45   
    28. A(C   0,C   1,H   6)          108.73 -0.000419    0.42    109.15   
    29. A(C   1,C   5,H   9)          109.57 -0.000177    0.25    109.81   
    30. A(C   1,C   5,C   8)          113.53 -0.002030    0.52    114.04   
    31. A(C   8,C   5,H   9)          110.37  0.001099   -0.29    110.07   
    32. A(H   9,C   5,H  10)          107.03  0.000625   -0.60    106.43   
    33. A(C   8,C   5,H  10)          107.76  0.002277   -0.55    107.21   
    34. A(C   1,C   5,H  10)          108.36 -0.001659    0.61    108.97   
    35. A(H  12,C   8,H  13)          108.83  0.000447   -0.03    108.80   
    36. A(N  11,C   8,H  13)          108.73  0.002701   -1.16    107.56   
    37. A(C   5,C   8,H  13)          109.89 -0.002764    0.76    110.64   
    38. A(N  11,C   8,H  12)          108.57  0.002394   -0.74    107.83   
    39. A(C   5,C   8,H  12)          109.62 -0.004004    1.40    111.01   
    40. A(C   5,C   8,N  11)          111.16  0.001327   -0.25    110.91   
    41. A(H  15,N  11,H  16)          108.81  0.003287   -0.53    108.28   
    42. A(H  14,N  11,H  16)          108.50  0.003398   -0.73    107.77   
    43. A(C   8,N  11,H  16)          109.83 -0.002713    0.48    110.31   
    44. A(H  14,N  11,H  15)          108.97  0.003655   -0.63    108.35   
    45. A(C   8,N  11,H  15)          110.76 -0.004214    0.81    111.57   
    46. A(C   8,N  11,H  14)          109.93 -0.003145    0.54    110.47   
    47. D(H   6,C   1,C   0,H   4)     59.64  0.000477   -0.39     59.25   
    48. D(H   7,C   1,C   0,H   4)    -57.77 -0.000300    0.33    -57.44   
    49. D(H   7,C   1,C   0,H   3)     62.20 -0.000404    0.37     62.58   
    50. D(H   6,C   1,C   0,H   2)    -60.26  0.000365   -0.33    -60.59   
    51. D(C   5,C   1,C   0,H   4)   -179.64  0.000010    0.07   -179.57   
    52. D(H   6,C   1,C   0,H   3)    179.61  0.000374   -0.34    179.27   
    53. D(C   5,C   1,C   0,H   3)    -59.67 -0.000094    0.11    -59.55   
    54. D(C   5,C   1,C   0,H   2)     60.46 -0.000102    0.12     60.59   
    55. D(H   7,C   1,C   0,H   2)   -177.67 -0.000412    0.38   -177.28   
    56. D(H   9,C   5,C   1,H   6)   -176.49 -0.001414   -0.14   -176.63   
    57. D(C   8,C   5,C   1,H   7)     67.46  0.001376   -1.48     65.98   
    58. D(C   8,C   5,C   1,H   6)    -52.61 -0.001576    0.04    -52.56   
    59. D(C   8,C   5,C   1,C   0)   -172.71  0.000189   -0.86   -173.58   
    60. D(H   9,C   5,C   1,H   7)    -56.43  0.001538   -1.66    -58.08   
    61. D(H  10,C   5,C   1,H   7)   -172.87  0.001821   -1.42   -174.29   
    62. D(H  10,C   5,C   1,H   6)     67.06 -0.001131    0.10     67.16   
    63. D(H  10,C   5,C   1,C   0)    -53.05  0.000634   -0.80    -53.85   
    64. D(H   9,C   5,C   1,C   0)     63.40  0.000351   -1.04     62.36   
    65. D(H  13,C   8,C   5,H   9)    176.76  0.000446    1.28    178.04   
    66. D(H  13,C   8,C   5,C   1)     53.31  0.001323    0.80     54.11   
    67. D(H  12,C   8,C   5,H  10)     52.87 -0.000525    1.37     54.24   
    68. D(H  12,C   8,C   5,H   9)    -63.68 -0.003180    2.56    -61.11   
    69. D(H  12,C   8,C   5,C   1)    172.87 -0.002303    2.08    174.96   
    70. D(N  11,C   8,C   5,H  10)    172.90  0.000687    1.21    174.10   
    71. D(N  11,C   8,C   5,H   9)     56.36 -0.001967    2.40     58.75   
    72. D(H  13,C   8,C   5,H  10)    -66.69  0.003101    0.09    -66.61   
    73. D(N  11,C   8,C   5,C   1)    -67.09 -0.001090    1.92    -65.18   
    74. D(H  15,N  11,C   8,C   5)   -177.90  0.000688   -0.86   -178.75   
    75. D(H  14,N  11,C   8,H  13)   -178.50  0.001310   -0.78   -179.28   
    76. D(H  14,N  11,C   8,H  12)     63.24 -0.002101    0.33     63.57   
    77. D(H  14,N  11,C   8,C   5)    -57.41  0.000482   -0.76    -58.18   
    78. D(H  16,N  11,C   8,H  13)    -59.19  0.001871   -1.05    -60.24   
    79. D(H  16,N  11,C   8,H  12)   -177.45 -0.001540    0.06   -177.39   
    80. D(H  16,N  11,C   8,C   5)     61.89  0.001043   -1.03     60.86   
    81. D(H  15,N  11,C   8,H  13)     61.02  0.001516   -0.88     60.14   
    82. D(H  15,N  11,C   8,H  12)    -57.24 -0.001895    0.24    -57.01   
    ----------------------------------------------------------------------------

         *************************************************************
         *                GEOMETRY OPTIMIZATION CYCLE   2            *
         *************************************************************
---------------------------------
CARTESIAN COORDINATES (ANGSTROEM)
---------------------------------
  C     -2.473666   -0.164759    0.125188
  C     -1.025643   -0.372965   -0.317746
  H     -2.851941    0.810207   -0.216950
  H     -2.560603   -0.198415    1.221967
  H     -3.127251   -0.944489   -0.289639
  C     -0.095092    0.700095    0.260024
  H     -0.976922   -0.346573   -1.419882
  H     -0.711830   -1.383085    0.007311
  C      1.331343    0.635217   -0.269986
  H     -0.092782    0.639270    1.363105
  H     -0.492690    1.694127    0.003964
  N      2.004566   -0.635166    0.158296
  H      1.930119    1.476724    0.106079
  H      1.337713    0.659777   -1.369089
  H      2.012568   -0.709772    1.183431
  H      2.974554   -0.679922   -0.176655
  H      1.497615   -1.450051   -0.211705

----------------------------
CARTESIAN COORDINATES (A.U.)
----------------------------
  NO LB      ZA    FRAG     MASS         X           Y           Z
   0 C     6.0000    0    12.011   -4.674552   -0.311349    0.236572
   1 C     6.0000    0    12.011   -1.938184   -0.704802   -0.600454
   2 H     1.0000    0     1.008   -5.389388    1.531069   -0.409977
   3 H     1.0000    0     1.008   -4.838838   -0.374951    2.309183
   4 H     1.0000    0     1.008   -5.909647   -1.784826   -0.547338
   5 C     6.0000    0    12.011   -0.179698    1.322989    0.491374
   6 H     1.0000    0     1.008   -1.846115   -0.654927   -2.683187
   7 H     1.0000    0     1.008   -1.345164   -2.613653    0.013815
   8 C     6.0000    0    12.011    2.515874    1.200385   -0.510199
   9 H     1.0000    0     1.008   -0.175333    1.208045    2.575895
  10 H     1.0000    0     1.008   -0.931049    3.201437    0.007492
  11 N     7.0000    0    14.007    3.788080   -1.200290    0.299137
  12 H     1.0000    0     1.008    3.647397    2.790604    0.200461
  13 H     1.0000    0     1.008    2.527912    1.246799   -2.587202
  14 H     1.0000    0     1.008    3.803202   -1.341274    2.236360
  15 H     1.0000    0     1.008    5.621092   -1.284866   -0.333829
  16 H     1.0000    0     1.008    2.830083   -2.740199   -0.400064

--------------------------------
INTERNAL COORDINATES (ANGSTROEM)
--------------------------------
 C      0   0   0     0.000000000000     0.00000000     0.00000000
 C      1   0   0     1.528500424670     0.00000000     0.00000000
 H      1   2   0     1.100322131538   110.87165872     0.00000000
 H      1   2   3     1.100733272177   111.06334643   239.86038882
 H      1   2   3     1.098741969464   110.94394323   119.84403697
 C      2   1   3     1.533363080851   111.74035987    60.58600090
 H      2   1   3     1.103527023140   109.14658163   299.40758053
 H      2   1   3     1.106563843237   107.93150469   182.71975193
 C      6   2   1     1.523101370904   114.04316588   186.42425888
 H      6   2   1     1.104759131069   109.81390343    62.35924648
 H      6   2   1     1.100795175975   108.97111276   306.15049614
 N      9   6   2     1.500175426810   110.91659103   294.82511296
 H      9   6   2     1.099132692449   111.00956259   174.96318258
 H      9   6   2     1.099395498007   110.63190772    54.10353693
 H     12   9   6     1.027876799312   110.46800646   301.82739371
 H     12   9   6     1.027166932616   111.56666775   181.24804962
 H     12   9   6     1.028560394324   110.30521320    60.86252358

---------------------------
INTERNAL COORDINATES (A.U.)
---------------------------
 C      0   0   0     0.000000000000     0.00000000     0.00000000
 C      1   0   0     2.888447198208     0.00000000     0.00000000
 H      1   2   0     2.079307487700   110.87165872     0.00000000
[...]
     29      -0.009232   0.004527   0.005852  -0.010985  -0.879615   0.007427
     30      -0.054413  -0.006201   0.019134  -0.011652   0.155581  -0.001202
     31       0.005030  -0.006678   0.001549   0.028692  -0.390677   0.007755
     32       0.100302  -0.026512  -0.019301  -0.008708   0.130811  -0.001998
     33      -0.051067   0.008855   0.041116   0.000139   0.000300  -0.000091
     34       0.093017   0.012027   0.015829   0.000560  -0.000176  -0.000055
     35      -0.023803   0.042859  -0.013942   0.000468   0.000494  -0.000069
     36      -0.045394  -0.020612  -0.021684   0.001798   0.008603  -0.000387
     37       0.091365   0.038462   0.045887  -0.001542   0.019088  -0.001593
     38      -0.146524  -0.006177  -0.014373  -0.001331   0.010125  -0.000828
     39       0.028264   0.027126  -0.013061   0.001211  -0.000421  -0.000509
     40       0.172328  -0.051812   0.024929  -0.000440  -0.003063  -0.000170
     41       0.022602   0.017273  -0.006887   0.004059   0.038525   0.001480
     42       0.238161  -0.364054  -0.552204   0.000540  -0.003774   0.000017
     43      -0.450349   0.254168  -0.409403   0.001228   0.003293  -0.000050
     44      -0.076478   0.069457  -0.033597  -0.000317  -0.006295   0.000534
     45       0.001422  -0.239297  -0.051522  -0.002266  -0.001122   0.000565
     46      -0.506176  -0.346119   0.261729  -0.002583   0.000239   0.000171
     47       0.211220  -0.562197  -0.290334  -0.000323  -0.000964  -0.000200
     48       0.395828   0.445268  -0.100756   0.001792   0.000250  -0.000187
     49      -0.326550  -0.136092  -0.170380  -0.011637  -0.001916   0.001219
     50       0.205953  -0.278002   0.568395  -0.005651  -0.000995   0.000373
                 42         43         44         45         46         47    
      0      -0.002234   0.000285  -0.000817   0.020200   0.027429  -0.000246
      1       0.003626  -0.000396   0.001616  -0.043923   0.081601  -0.001022
      2      -0.008110   0.000439  -0.002501   0.080210   0.037489  -0.000268
      3       0.005484  -0.000068   0.001869   0.001142  -0.000946   0.000276
      4      -0.028085   0.001561  -0.006208  -0.004649   0.002129   0.000255
      5       0.083962  -0.002403   0.011936   0.008895   0.001138  -0.000403
      6       0.025067  -0.002028   0.006427  -0.240091   0.152956  -0.002279
      7      -0.065287   0.006024  -0.021914   0.593286  -0.360225   0.005266
      8       0.022627  -0.002148   0.008191  -0.212971   0.143564  -0.002088
      9      -0.003133   0.000335  -0.000068   0.057623   0.023701  -0.000800
     10      -0.000299   0.000065  -0.000274   0.009838   0.016282  -0.000200
     11       0.065835  -0.002781   0.018541  -0.714592  -0.269253   0.002442
     12       0.011783  -0.001334   0.002509  -0.056158  -0.497495   0.005795
     13       0.019060  -0.001849   0.004890  -0.081118  -0.626210   0.007223
     14       0.006418  -0.000507   0.000729  -0.026692  -0.321443   0.003784
     15      -0.006606  -0.002454   0.025700   0.000205  -0.000365  -0.000112
     16       0.014875   0.010642  -0.065240  -0.000762  -0.000171   0.001211
     17       0.002030  -0.007987   0.056623   0.001159  -0.000120  -0.005417
     18       0.043422  -0.002164   0.002877   0.007590   0.002077   0.001533
     19       0.002493  -0.000954  -0.000855   0.001000  -0.000627   0.001115
     20      -0.890789   0.021022  -0.114836  -0.086476  -0.018449   0.006767
     21      -0.115471   0.005117  -0.022285  -0.021958   0.009460   0.000429
     22       0.337283  -0.016613   0.078147   0.054359  -0.022298  -0.001600
     23      -0.108533   0.005401  -0.025358  -0.018574   0.006460   0.000461
     24      -0.000246  -0.034573  -0.006297   0.000082  -0.000477  -0.034612
     25      -0.000637  -0.042617  -0.009225   0.000067  -0.000569  -0.044533
     26      -0.000688   0.043469   0.003509  -0.000192  -0.000975  -0.079301
     27      -0.002448   0.000911   0.007282  -0.002104  -0.000942  -0.004194
     28       0.001116   0.001604  -0.002227  -0.001429  -0.000202  -0.000048
     29      -0.077650   0.051179  -0.445815  -0.012891   0.000248   0.058655
     30       0.073987   0.043101  -0.308288  -0.002005  -0.000980   0.006139
     31      -0.180083  -0.119571   0.773978   0.011215  -0.001632  -0.014065
     32       0.056250   0.036831  -0.230606  -0.002267   0.000387   0.005536
     33       0.000306   0.000723  -0.000521  -0.000041   0.000073   0.000885
     34      -0.000159   0.001491   0.000729   0.000003   0.000059   0.001174
     35      -0.000098  -0.001229  -0.000018   0.000029   0.000049   0.002029
     36       0.004411   0.360183   0.073047  -0.000612   0.005002   0.434506
     37       0.006993   0.461579   0.094141  -0.000621   0.006489   0.547933
     38       0.002552   0.251592   0.048437  -0.000432   0.003451   0.290003
     39       0.002718   0.028263   0.006339   0.000709  -0.000049  -0.032765
     40       0.000329   0.027656   0.003406   0.000010  -0.000371  -0.026761
     41       0.001279  -0.752361  -0.086308   0.001336   0.007645   0.641336
     42      -0.001393  -0.000046  -0.002763  -0.000306  -0.000026   0.003018
     43      -0.000484   0.001072   0.001391  -0.000046   0.000033  -0.005385
     44      -0.000453   0.010331  -0.002698  -0.000505  -0.000001  -0.010924
     45       0.001798   0.001048  -0.000254   0.000379   0.000250   0.000354
     46       0.001100  -0.007056   0.000256   0.000234  -0.000154  -0.000262
     47       0.000134   0.002951  -0.000255  -0.000182  -0.000047   0.000684
     48      -0.002069  -0.004812  -0.001315  -0.000218  -0.000502  -0.010627
     49       0.001783  -0.005568   0.000949   0.000275  -0.000793  -0.004187
     50       0.003876  -0.003830   0.001304   0.000572  -0.000452  -0.007373
                 48         49         50    
      0      -0.000020   0.000106  -0.000078
      1      -0.000078   0.000104  -0.000017
      2       0.000017  -0.000107  -0.000001
      3      -0.000008   0.000006   0.000005
      4       0.000503  -0.000755   0.000389
      5      -0.000009   0.000219  -0.000110
      6       0.000473  -0.000820   0.000412
      7      -0.000156   0.000494  -0.000484
      8       0.000024   0.000085   0.000043
      9       0.000079  -0.000333   0.000001
     10       0.000102  -0.000033   0.000035
     11      -0.000137   0.001043  -0.000114
     12      -0.000611   0.000049   0.000077
     13      -0.000293  -0.000184   0.000222
     14      -0.000086  -0.000065   0.000107
     15      -0.000120   0.000049   0.000263
     16       0.000419   0.000005  -0.000186
     17      -0.000573  -0.000579  -0.000311
     18      -0.000168   0.000520  -0.000170
     19       0.000366  -0.000375   0.000199
     20      -0.001539   0.001794  -0.000069
     21      -0.000023  -0.000516   0.001188
     22      -0.004533   0.007420  -0.003898
     23       0.002233  -0.003521   0.001756
     24      -0.000003   0.000154   0.000296
     25      -0.001140   0.000661  -0.000387
     26       0.000546   0.001002   0.000244
     27       0.000550   0.000988   0.000254
     28      -0.000583  -0.000009  -0.000126
     29       0.004037   0.004812   0.002590
     30      -0.001596  -0.000184   0.000470
     31      -0.001244   0.001182  -0.001342
     32       0.000609   0.000101   0.000102
     33       0.012636   0.035581  -0.066739
     34      -0.039871   0.035165  -0.014429
     35       0.012984   0.064228   0.045031
     36       0.001596  -0.004566   0.001779
     37       0.008468  -0.011179   0.003562
     38       0.001775  -0.004813   0.000313
     39      -0.001634  -0.001839   0.000099
     40       0.003677   0.002125   0.002185
     41      -0.007797  -0.011652  -0.006838
     42      -0.015105  -0.015681  -0.019167
     43       0.050126   0.066407   0.039171
     44      -0.589433  -0.667887  -0.436811
     45      -0.482522  -0.095566   0.794556
     46       0.029274   0.009400  -0.054989
     47       0.182081   0.042807  -0.293888
     48       0.325171  -0.380226   0.142109
     49       0.472365  -0.564074   0.218358
     50       0.228036  -0.261580   0.109173


-----------
IR SPECTRUM
-----------

 Mode   freq       eps      Int      T**2         TX        TY        TZ
       cm**-1   L/(mol*cm) km/mol    a.u.
----------------------------------------------------------------------------
  6:     92.22   0.000611    3.09  0.002068  ( 0.008665  0.004679  0.044395)
  7:    139.94   0.001826    9.23  0.004072  ( 0.059613  0.020987  0.008810)
  8:    198.71   0.001200    6.07  0.001885  ( 0.043333  0.001883  0.001877)
  9:    247.11   0.000026    0.13  0.000033  ( 0.005449  0.000860  0.001736)
 10:    284.50   0.000025    0.13  0.000027  (-0.000129  0.004486 -0.002697)
 11:    334.29   0.002626   13.27  0.002452  (-0.046784  0.013084  0.009570)
 12:    491.24   0.000697    3.52  0.000443  ( 0.019592 -0.003950 -0.006593)
 13:    739.39   0.001478    7.47  0.000624  (-0.016742  0.008146 -0.016641)
 14:    813.04   0.001577    7.97  0.000605  ( 0.019720  0.012194  0.008235)
 15:    854.10   0.000338    1.71  0.000123  (-0.006787  0.008182 -0.003230)
 16:    900.87   0.002059   10.40  0.000713  ( 0.001940 -0.011727 -0.023915)
 17:    930.11   0.002037   10.29  0.000683  (-0.025377 -0.003680 -0.005078)
 18:    998.64   0.000971    4.91  0.000303  ( 0.012862  0.006325 -0.009897)
 19:   1034.45   0.001821    9.20  0.000549  (-0.022512  0.003456  0.005521)
 20:   1057.50   0.002039   10.30  0.000602  ( 0.015670 -0.018776 -0.001897)
 21:   1096.12   0.000403    2.03  0.000115  ( 0.004017  0.008541 -0.005054)
 22:   1169.56   0.002066   10.44  0.000551  (-0.020554 -0.010216  0.004941)
 23:   1202.70   0.000835    4.22  0.000217  ( 0.006347  0.003273 -0.012872)
 24:   1280.94   0.000992    5.01  0.000242  ( 0.009207  0.004904 -0.011528)
 25:   1314.19   0.000709    3.58  0.000168  ( 0.008093  0.007644  0.006663)
 26:   1332.60   0.000328    1.66  0.000077  (-0.007533  0.003835 -0.002305)
 27:   1354.88   0.002436   12.31  0.000561  ( 0.011733  0.012418  0.016408)
 28:   1405.07   0.000574    2.90  0.000127  ( 0.010529 -0.003825 -0.001418)
 29:   1420.32   0.000034    0.17  0.000007  (-0.001391 -0.001883  0.001385)
 30:   1437.52   0.000809    4.09  0.000176  ( 0.012894  0.003037 -0.000408)
 31:   1460.32   0.002219   11.22  0.000474  (-0.011602  0.014179  0.011773)
 32:   1471.29   0.001405    7.10  0.000298  (-0.017071  0.002327 -0.001063)
 33:   1479.88   0.003046   15.39  0.000642  (-0.004124  0.012734 -0.021519)
 34:   1481.78   0.004771   24.11  0.001005  ( 0.010973  0.026276 -0.013931)
 35:   1488.74   0.003331   16.83  0.000698  ( 0.011562 -0.021385 -0.010356)
 36:   1502.65   0.028355  143.30  0.005889  ( 0.046386 -0.058923  0.016282)
 37:   1621.59   0.009254   46.77  0.001781  ( 0.000244 -0.017352 -0.038468)
 38:   1633.11   0.007218   36.48  0.001379  (-0.035814 -0.008745  0.004489)
 39:   3029.32   0.009138   46.18  0.000941  (-0.018310  0.024465  0.002752)
 40:   3073.38   0.001102    5.57  0.000112  ( 0.002356  0.004600  0.009228)
 41:   3077.96   0.001821    9.20  0.000185  ( 0.011732 -0.003274 -0.006024)
 42:   3099.02   0.002989   15.11  0.000301  ( 0.002679 -0.006471  0.015874)
 43:   3122.12   0.000208    1.05  0.000021  (-0.003865 -0.001023  0.002201)
 44:   3144.42   0.000620    3.13  0.000062  (-0.000419 -0.003396  0.007060)
 45:   3176.03   0.002163   10.93  0.000213  ( 0.002762 -0.006892  0.012546)
 46:   3191.38   0.000956    4.83  0.000094  ( 0.002615  0.008422  0.003968)
 47:   3197.57   0.000020    0.10  0.000002  (-0.001034 -0.000287 -0.000889)
 48:   3440.72   0.009064   45.81  0.000822  (-0.012157  0.024918 -0.007308)
 49:   3530.06   0.024407  123.35  0.002158  (-0.025323 -0.016956 -0.035056)
 50:   3545.69   0.028350  143.27  0.002495  ( 0.042683  0.005809 -0.025290)

* The epsilon (eps) is given for a Dirac delta lineshape.
** The dipole moment derivative (T) already includes vibrational overlap.

The first frequency considered to be a vibration is 6
The total number of vibrations considered is 45


--------------------------
THERMOCHEMISTRY AT 298.15K
--------------------------

Temperature         ... 298.15 K
Pressure            ... 1.00 atm
Total Mass          ... 74.15 AMU

Throughout the following assumptions are being made:
  (1) The electronic state is orbitally nondegenerate
  (2) There are no thermally accessible electronically excited states
  (3) Hindered rotations indicated by low frequency modes are not
      treated as such but are treated as vibrations and this may
      cause some error
  (4) All equations used are the standard statistical mechanics
      equations for an ideal gas
  (5) All vibrations are strictly harmonic

freq.      92.22  E(vib)   ...       0.47 
freq.     139.94  E(vib)   ...       0.41 
freq.     198.71  E(vib)   ...       0.35 
freq.     247.11  E(vib)   ...       0.31 
freq.     284.50  E(vib)   ...       0.28 
freq.     334.29  E(vib)   ...       0.24 
freq.     491.24  E(vib)   ...       0.14 
freq.     739.39  E(vib)   ...       0.06 
freq.     813.04  E(vib)   ...       0.05 
freq.     854.10  E(vib)   ...       0.04 
freq.     900.87  E(vib)   ...       0.03 
freq.     930.11  E(vib)   ...       0.03 
freq.     998.64  E(vib)   ...       0.02 
freq.    1034.45  E(vib)   ...       0.02 
freq.    1057.50  E(vib)   ...       0.02 
freq.    1096.12  E(vib)   ...       0.02 
freq.    1169.56  E(vib)   ...       0.01 
freq.    1202.70  E(vib)   ...       0.01 
freq.    1280.94  E(vib)   ...       0.01 
freq.    1314.19  E(vib)   ...       0.01 
freq.    1332.60  E(vib)   ...       0.01 
freq.    1354.88  E(vib)   ...       0.01 
freq.    1405.07  E(vib)   ...       0.00 
freq.    1420.32  E(vib)   ...       0.00 
freq.    1437.52  E(vib)   ...       0.00 
freq.    1460.32  E(vib)   ...       0.00 
freq.    1471.29  E(vib)   ...       0.00 
freq.    1479.88  E(vib)   ...       0.00 
freq.    1481.78  E(vib)   ...       0.00 
freq.    1488.74  E(vib)   ...       0.00 
freq.    1502.65  E(vib)   ...       0.00 
freq.    1621.59  E(vib)   ...       0.00 
freq.    1633.11  E(vib)   ...       0.00 
freq.    3029.32  E(vib)   ...       0.00 
freq.    3073.38  E(vib)   ...       0.00 
freq.    3077.96  E(vib)   ...       0.00 
freq.    3099.02  E(vib)   ...       0.00 
freq.    3122.12  E(vib)   ...       0.00 
freq.    3144.42  E(vib)   ...       0.00 
freq.    3176.03  E(vib)   ...       0.00 
freq.    3191.38  E(vib)   ...       0.00 
freq.    3197.57  E(vib)   ...       0.00 
freq.    3440.72  E(vib)   ...       0.00 
freq.    3530.06  E(vib)   ...       0.00 
freq.    3545.69  E(vib)   ...       0.00 

------------
INNER ENERGY
------------

The inner energy is: U= E(el) + E(ZPE) + E(vib) + E(rot) + E(trans)
    E(el)   - is the total energy from the electronic structure calculation
              = E(kin-el) + E(nuc-el) + E(el-el) + E(nuc-nuc)
    E(ZPE)  - the the zero temperature vibrational energy from the frequency calculation
    E(vib)  - the the finite temperature correction to E(ZPE) due to population
              of excited vibrational states
    E(rot)  - is the rotational thermal energy
    E(trans)- is the translational thermal energy

Summary of contributions to the inner energy U:
Electronic energy                ...   -213.95933485 Eh
Zero point energy                ...      0.16607172 Eh     104.21 kcal/mol
Thermal vibrational correction   ...      0.00411159 Eh       2.58 kcal/mol
Thermal rotational correction    ...      0.00141627 Eh       0.89 kcal/mol
Thermal translational correction ...      0.00141627 Eh       0.89 kcal/mol
-----------------------------------------------------------------------
Total thermal energy                   -213.78631900 Eh


Summary of corrections to the electronic energy:
(perhaps to be used in another calculation)
Total thermal correction                  0.00694413 Eh       4.36 kcal/mol
Non-thermal (ZPE) correction              0.16607172 Eh     104.21 kcal/mol
-----------------------------------------------------------------------
Total correction                          0.17301585 Eh     108.57 kcal/mol


--------
ENTHALPY
--------

The enthalpy is H = U + kB*T
                kB is Boltzmann's constant
Total free energy                 ...   -213.78631900 Eh 
Thermal Enthalpy correction       ...      0.00094421 Eh       0.59 kcal/mol
-----------------------------------------------------------------------
Total Enthalpy                    ...   -213.78537479 Eh


Note: Only C1 symmetry has been detected, increase convergence thresholds 
      if your molecule has a higher symmetry. Symmetry factor of 1.0 is   
      used for the rotational entropy correction. 
 

Note: Rotational entropy computed according to Herzberg 
Infrared and Raman Spectra, Chapter V,1, Van Nostrand Reinhold, 1945 
Point Group:  C1, Symmetry Number:   1  
Rotational constants in cm-1:     0.380618     0.076414     0.069931 

Vibrational entropy computed according to the QRRHO of S. Grimme
Chem.Eur.J. 2012 18 9955


-------
ENTROPY
-------

The entropy contributions are T*S = T*(S(el)+S(vib)+S(rot)+S(trans))
     S(el)   - electronic entropy
     S(vib)  - vibrational entropy
     S(rot)  - rotational entropy
     S(trans)- translational entropy
The entropies will be listed as multiplied by the temperature to get
units of energy

Electronic entropy                ...      0.00000000 Eh      0.00 kcal/mol
Vibrational entropy               ...      0.00704946 Eh      4.42 kcal/mol
Rotational entropy                ...      0.01243673 Eh      7.80 kcal/mol
Translational entropy             ...      0.01844761 Eh     11.58 kcal/mol
-----------------------------------------------------------------------
Final entropy term                ...      0.03793380 Eh     23.80 kcal/mol

In case the symmetry of your molecule has not been determined correctly
or in case you have a reason to use a different symmetry number we print 
out the resulting rotational entropy values for sn=1,12 :
 --------------------------------------------------------
|  sn= 1 | S(rot)=       0.01243673 Eh      7.80 kcal/mol|
|  sn= 2 | S(rot)=       0.01178227 Eh      7.39 kcal/mol|
|  sn= 3 | S(rot)=       0.01139944 Eh      7.15 kcal/mol|
|  sn= 4 | S(rot)=       0.01112782 Eh      6.98 kcal/mol|
|  sn= 5 | S(rot)=       0.01091713 Eh      6.85 kcal/mol|
|  sn= 6 | S(rot)=       0.01074499 Eh      6.74 kcal/mol|
|  sn= 7 | S(rot)=       0.01059944 Eh      6.65 kcal/mol|
|  sn= 8 | S(rot)=       0.01047336 Eh      6.57 kcal/mol|
|  sn= 9 | S(rot)=       0.01036215 Eh      6.50 kcal/mol|
|  sn=10 | S(rot)=       0.01026267 Eh      6.44 kcal/mol|
|  sn=11 | S(rot)=       0.01017268 Eh      6.38 kcal/mol|
|  sn=12 | S(rot)=       0.01009053 Eh      6.33 kcal/mol|
 --------------------------------------------------------


-------------------
GIBBS FREE ENERGY
-------------------

The Gibbs free energy is G = H - T*S

Total enthalpy                    ...   -213.78537479 Eh 
Total entropy correction          ...     -0.03793380 Eh    -23.80 kcal/mol
-----------------------------------------------------------------------
Final Gibbs free energy         ...   -213.82330859 Eh

For completeness - the Gibbs free energy minus the electronic energy
G-E(el)                           ...      0.13602626 Eh     85.36 kcal/mol


Timings for individual modules:

Sum of individual times         ...      264.381 sec (=   4.406 min)
GTO integral calculation        ...        3.758 sec (=   0.063 min)   1.4 %
SCF iterations                  ...      139.961 sec (=   2.333 min)  52.9 %
SCF Gradient evaluation         ...       40.209 sec (=   0.670 min)  15.2 %
Geometry relaxation             ...        0.315 sec (=   0.005 min)   0.1 %
Analytical frequency calculation...       80.137 sec (=   1.336 min)  30.3 %
                             ****ORCA TERMINATED NORMALLY****
TOTAL RUN TIME: 0 days 0 hours 4 minutes 27 seconds 138 msec
