
                                 *****************
                                 * O   R   C   A *
                                 *****************

                                            #,                                       
                                            ###                                      
                                            ####                                     
                                            #####                                    
                                            ######                                   
                                           ########,                                 
                                     ,,################,,,,,                         
                               ,,#################################,,                 
                          ,,##########################################,,             
                       ,#########################################, ''#####,          
                    ,#############################################,,   '####,        
                  ,##################################################,,,,####,       
                ,###########''''           ''''###############################       
              ,#####''   ,,,,##########,,,,          '''####'''          '####       
            ,##' ,,,,###########################,,,                        '##       
           ' ,,###''''                  '''############,,,                           
         ,,##''                                '''############,,,,        ,,,,,,###''
      ,#''                                            '''#######################'''  
     '                                                          ''''####''''         
             ,#######,   #######,   ,#######,      ##                                
            ,#'     '#,  ##    ##  ,#'     '#,    #''#        ######   ,####,        
            ##       ##  ##   ,#'  ##            #'  '#       #        #'  '#        
            ##       ##  #######   ##           ,######,      #####,   #    #        
            '#,     ,#'  ##    ##  '#,     ,#' ,#      #,         ##   #,  ,#        
             '#######'   ##     ##  '#######'  #'      '#     #####' # '####'        



                  #######################################################
                  #                        -***-                        #
                  #          Department of theory and spectroscopy      #
                  #    Directorship and core code : Frank Neese         #
                  #        Max Planck Institute fuer Kohlenforschung    #
                  #                Kaiser Wilhelm Platz 1               #
                  #                 D-45470 Muelheim/Ruhr               #
                  #                      Germany                        #
                  #                                                     #
                  #                  All rights reserved                #
                  #                        -***-                        #
                  #######################################################


                         Program Version 5.0.4 -  RELEASE  -


 With contributions from (in alphabetic order):
   Daniel Aravena         : Magnetic Suceptibility
   Michael Atanasov       : Ab Initio Ligand Field Theory (pilot matlab implementation)
   Alexander A. Auer      : GIAO ZORA, VPT2 properties, NMR spectrum
   Ute Becker             : Parallelization
   Giovanni Bistoni       : ED, misc. LED, open-shell LED, HFLD
   Martin Brehm           : Molecular dynamics
   Dmytro Bykov           : SCF Hessian
   Vijay G. Chilkuri      : MRCI spin determinant printing, contributions to CSF-ICE
   Dipayan Datta          : RHF DLPNO-CCSD density
   Achintya Kumar Dutta   : EOM-CC, STEOM-CC
   Dmitry Ganyushin       : Spin-Orbit,Spin-Spin,Magnetic field MRCI
   Miquel Garcia          : C-PCM and meta-GGA Hessian, CC/C-PCM, Gaussian charge scheme
   Yang Guo               : DLPNO-NEVPT2, F12-NEVPT2, CIM, IAO-localization
   Andreas Hansen         : Spin unrestricted coupled pair/coupled cluster methods
   Benjamin Helmich-Paris : MC-RPA, TRAH-SCF, COSX integrals
   Lee Huntington         : MR-EOM, pCC
   Robert Izsak           : Overlap fitted RIJCOSX, COSX-SCS-MP3, EOM
   Marcus Kettner         : VPT2
   Christian Kollmar      : KDIIS, OOCD, Brueckner-CCSD(T), CCSD density, CASPT2, CASPT2-K
   Simone Kossmann        : Meta GGA functionals, TD-DFT gradient, OOMP2, MP2 Hessian
   Martin Krupicka        : Initial AUTO-CI
   Lucas Lang             : DCDCAS
   Marvin Lechner         : AUTO-CI (C++ implementation), FIC-MRCC
   Dagmar Lenk            : GEPOL surface, SMD
   Dimitrios Liakos       : Extrapolation schemes; Compound Job, initial MDCI parallelization
   Dimitrios Manganas     : Further ROCIS development; embedding schemes
   Dimitrios Pantazis     : SARC Basis sets
   Anastasios Papadopoulos: AUTO-CI, single reference methods and gradients
   Taras Petrenko         : DFT Hessian,TD-DFT gradient, ASA, ECA, R-Raman, ABS, FL, XAS/XES, NRVS
   Peter Pinski           : DLPNO-MP2, DLPNO-MP2 Gradient
   Christoph Reimann      : Effective Core Potentials
   Marius Retegan         : Local ZFS, SOC
   Christoph Riplinger    : Optimizer, TS searches, QM/MM, DLPNO-CCSD(T), (RO)-DLPNO pert. Triples
   Tobias Risthaus        : Range-separated hybrids, TD-DFT gradient, RPA, STAB
   Michael Roemelt        : Original ROCIS implementation
   Masaaki Saitow         : Open-shell DLPNO-CCSD energy and density
   Barbara Sandhoefer     : DKH picture change effects
   Avijit Sen             : IP-ROCIS
   Kantharuban Sivalingam : CASSCF convergence, NEVPT2, FIC-MRCI
   Bernardo de Souza      : ESD, SOC TD-DFT
   Georgi Stoychev        : AutoAux, RI-MP2 NMR, DLPNO-MP2 response
   Willem Van den Heuvel  : Paramagnetic NMR
   Boris Wezisla          : Elementary symmetry handling
   Frank Wennmohs         : Technical directorship


 We gratefully acknowledge several colleagues who have allowed us to
 interface, adapt or use parts of their codes:
   Stefan Grimme, W. Hujo, H. Kruse, P. Pracht,  : VdW corrections, initial TS optimization,
                  C. Bannwarth, S. Ehlert          DFT functionals, gCP, sTDA/sTD-DF
   Ed Valeev, F. Pavosevic, A. Kumar             : LibInt (2-el integral package), F12 methods
   Garnet Chan, S. Sharma, J. Yang, R. Olivares  : DMRG
   Ulf Ekstrom                                   : XCFun DFT Library
   Mihaly Kallay                                 : mrcc  (arbitrary order and MRCC methods)
   Jiri Pittner, Ondrej Demel                    : Mk-CCSD
   Frank Weinhold                                : gennbo (NPA and NBO analysis)
   Christopher J. Cramer and Donald G. Truhlar   : smd solvation model
   Lars Goerigk                                  : TD-DFT with DH, B97 family of functionals
   V. Asgeirsson, H. Jonsson                     : NEB implementation
   FAccTs GmbH                                   : IRC, NEB, NEB-TS, DLPNO-Multilevel, CI-OPT
                                                   MM, QMMM, 2- and 3-layer-ONIOM, Crystal-QMMM,
                                                   LR-CPCM, SF, NACMEs, symmetry and pop. for TD-DFT,
                                                   nearIR, NL-DFT gradient (VV10), updates on ESD,
                                                   ML-optimized integration grids
   S Lehtola, MJT Oliveira, MAL Marques          : LibXC Library
   Liviu Ungur et al                             : ANISO software


 Your calculation uses the libint2 library for the computation of 2-el integrals
 For citations please refer to: http://libint.valeyev.net

 Your ORCA version has been built with support for libXC version: 5.1.0
 For citations please refer to: https://tddft.org/programs/libxc/

 This ORCA versions uses:
   CBLAS   interface :  Fast vector & matrix operations
   LAPACKE interface :  Fast linear algebra routines
   SCALAPACK package :  Parallel linear algebra routines
   Shared memory     :  Shared parallel matrices
   BLAS/LAPACK       :  OpenBLAS 0.3.15  USE64BITINT DYNAMIC_ARCH NO_AFFINITY SkylakeX SINGLE_THREADED
        Core in use  :  SkylakeX
   Copyright (c) 2011-2014, The OpenBLAS Project




***************************************
The coordinates will be read from file: butylamine_prot_aq_4.xyz
***************************************


Your calculation utilizes the atom-pairwise dispersion correction
based on tight binding partial charges (D4)
Cite in your paper:
E.Caldeweyher, C.Bannwarth, S.Grimme, J.Chem.Phys., (2017), 147, 034112.
E.Caldeweyher, S.Ehlert, A.Hansen, H.Neugebauer, S.Grimme, J.Chem.Phys., (2018), in progress.
   

XCFun DFT library Copyright 2009-2010 Ulf Ekstrom and contributors.
See http://admol.org/xcfun for more information.
This is free software; see the source code for copying conditions.
There is ABSOLUTELY NO WARRANTY; not even for MERCHANTABILITY or FITNESS FOR A PARTICULAR PURPOSE.
For details see the documentation.
Scientific users of this library should cite U. Ekstrom, L. Visscher, R. Bast, A. J. Thorvaldsen and K. Ruud;
J.Chem.Theor.Comp. 2010, DOI: 10.1021/ct100117s
XCFun Version 0.99 

================================================================================

----- Orbital basis set information -----
Your calculation utilizes the basis: def2-SVP
   F. Weigend and R. Ahlrichs, Phys. Chem. Chem. Phys. 7, 3297 (2005).

----- AuxJ basis set information -----
Your calculation utilizes the auxiliary basis: def2/J
   F. Weigend, Phys. Chem. Chem. Phys. 8, 1057 (2006).

================================================================================
                                        WARNINGS
                       Please study these warnings very carefully!
================================================================================


WARNING: Geometry Optimization
  ===> : Switching off AutoStart
         For restart on a previous wavefunction, please use MOREAD

INFO   : the flag for use of the SHARK integral package has been found!

================================================================================
                                       INPUT FILE
================================================================================
NAME = butylamine_prot_aq_4.inp
|  1> # ORCA 5.0.4 - /users/bwb16179/postgrad/2024_06/pKa_Reviewer_Comments/CREST_Confs/butylamine/butylamine_prot_aq_4.inp # write input file
|  2> # Basic Mode
|  3> #
|  4> ! Opt Freq wB97X Def2-SVP D4 SlowConv TightSCF Defgrid2 Def2/J RIJCOSX 
|  5> 
|  6> %PAL NPROCS 4 END
|  7> 
|  8> %maxcore 4500
|  9> 
| 10> %geom
| 11> Maxiter 150
| 12> END
| 13> 
| 14> * xyzfile 1 1 butylamine_prot_aq_4.xyz
| 15> 
| 16>                          ****END OF INPUT****
================================================================================

                       *****************************
                       * Geometry Optimization Run *
                       *****************************

Geometry optimization settings:
Update method            Update   .... BFGS
Choice of coordinates    CoordSys .... Z-matrix Internals
Initial Hessian          InHess   .... Almoef's Model

Convergence Tolerances:
Energy Change            TolE     ....  5.0000e-06 Eh
Max. Gradient            TolMAXG  ....  3.0000e-04 Eh/bohr
RMS Gradient             TolRMSG  ....  1.0000e-04 Eh/bohr
Max. Displacement        TolMAXD  ....  4.0000e-03 bohr
RMS Displacement         TolRMSD  ....  2.0000e-03 bohr
Strict Convergence                ....  False
------------------------------------------------------------------------------
                        ORCA OPTIMIZATION COORDINATE SETUP
------------------------------------------------------------------------------

The optimization will be done in new redundant internal coordinates
Making redundant internal coordinates   ...  (new redundants) done
Evaluating the initial hessian          ...  (Almloef) done
Evaluating the coordinates              ...  done
Calculating the B-matrix                .... done
Calculating the G-matrix                .... done
Diagonalizing the G-matrix              .... done
Small eigenvalue found = 2.032e-02
The first mode is                       ....   37
The number of degrees of freedom        ....   45

    -----------------------------------------------------------------
                    Redundant Internal Coordinates


    -----------------------------------------------------------------
         Definition                    Initial Value    Approx d2E/dq
    -----------------------------------------------------------------
      1. B(C   1,C   0)                  1.5278         0.376632   
      2. B(H   2,C   0)                  1.0882         0.362539   
      3. B(H   3,C   0)                  1.0881         0.362574   
      4. B(H   4,C   0)                  1.0882         0.362441   
      5. B(C   5,C   1)                  1.5315         0.371471   
      6. B(H   6,C   1)                  1.0914         0.358255   
      7. B(H   7,C   1)                  1.0914         0.358198   
      8. B(C   8,C   5)                  1.5270         0.377671   
      9. B(H   9,C   5)                  1.0899         0.360210   
     10. B(H  10,C   5)                  1.0909         0.358854   
     11. B(N  11,C   8)                  1.4915         0.385354   
     12. B(H  12,C   8)                  1.0903         0.359687   
     13. B(H  13,C   8)                  1.0900         0.360120   
     14. B(H  14,N  11)                  1.0320         0.399112   
     15. B(H  15,N  11)                  1.0297         0.402542   
     16. B(H  16,N  11)                  1.0303         0.401627   
     17. A(H   3,C   0,H   4)          107.0810         0.291449   
     18. A(C   1,C   0,H   4)          109.3834         0.325099   
     19. A(C   1,C   0,H   2)          111.8898         0.325114   
     20. A(H   2,C   0,H   4)          106.3678         0.291445   
     21. A(H   2,C   0,H   3)          110.7697         0.291462   
     22. A(C   1,C   0,H   3)          111.1130         0.325119   
     23. A(C   0,C   1,C   5)          114.7302         0.363507   
     24. A(H   6,C   1,H   7)          106.9346         0.290363   
     25. A(C   5,C   1,H   7)          107.7011         0.323737   
     26. A(C   0,C   1,H   7)          108.5169         0.324471   
     27. A(C   5,C   1,H   6)          109.4237         0.323745   
     28. A(C   0,C   1,H   6)          109.2414         0.324479   
     29. A(C   1,C   5,H   9)          107.4728         0.324034   
     30. A(C   1,C   5,C   8)          114.2554         0.363678   
     31. A(C   8,C   5,H   9)          108.1938         0.324917   
     32. A(H   9,C   5,H  10)          106.9672         0.290695   
     33. A(C   8,C   5,H  10)          110.1486         0.324715   
     34. A(C   1,C   5,H  10)          109.5093         0.323834   
     35. A(H  12,C   8,H  13)          108.6482         0.290789   
     36. A(N  11,C   8,H  13)          108.0850         0.324031   
     37. A(C   5,C   8,H  13)          109.9563         0.324903   
     38. A(N  11,C   8,H  12)          108.9602         0.323967   
     39. A(C   5,C   8,H  12)          109.7918         0.324839   
     40. A(C   5,C   8,N  11)          111.3387         0.363690   
     41. A(H  15,N  11,H  16)          108.7860         0.296255   
     42. A(H  14,N  11,H  16)          108.3695         0.295854   
     43. A(C   8,N  11,H  16)          109.9742         0.327099   
     44. A(H  14,N  11,H  15)          109.2262         0.295960   
     45. A(C   8,N  11,H  15)          110.7828         0.327222   
     46. A(C   8,N  11,H  14)          109.6565         0.326761   
     47. D(H   6,C   1,C   0,H   4)     68.5712         0.011316   
     48. D(H   7,C   1,C   0,H   4)    -47.6771         0.011316   
     49. D(H   7,C   1,C   0,H   3)     70.3331         0.011316   
     50. D(H   6,C   1,C   0,H   2)    -49.0296         0.011316   
     51. D(C   5,C   1,C   0,H   4)   -168.1606         0.011316   
     52. D(H   6,C   1,C   0,H   3)   -173.4186         0.011316   
     53. D(C   5,C   1,C   0,H   3)    -50.1503         0.011316   
     54. D(C   5,C   1,C   0,H   2)     74.2386         0.011316   
     55. D(H   7,C   1,C   0,H   2)   -165.2779         0.011316   
     56. D(H   9,C   5,C   1,H   6)    -60.7709         0.011026   
     57. D(C   8,C   5,C   1,H   7)    175.1829         0.011026   
     58. D(C   8,C   5,C   1,H   6)     59.2861         0.011026   
     59. D(C   8,C   5,C   1,C   0)    -63.8845         0.011026   
     60. D(H   9,C   5,C   1,H   7)     55.1259         0.011026   
     61. D(H  10,C   5,C   1,H   7)    -60.7294         0.011026   
     62. D(H  10,C   5,C   1,H   6)   -176.6262         0.011026   
     63. D(H  10,C   5,C   1,C   0)     60.2032         0.011026   
     64. D(H   9,C   5,C   1,C   0)    176.0585         0.011026   
     65. D(H  13,C   8,C   5,H   9)    -33.8370         0.011375   
     66. D(H  13,C   8,C   5,C   1)   -153.4898         0.011375   
     67. D(H  12,C   8,C   5,H  10)   -157.7489         0.011375   
     68. D(H  12,C   8,C   5,H   9)     85.6488         0.011375   
     69. D(H  12,C   8,C   5,C   1)    -34.0041         0.011375   
     70. D(N  11,C   8,C   5,H  10)    -36.9980         0.011375   
     71. D(N  11,C   8,C   5,H   9)   -153.6003         0.011375   
     72. D(H  13,C   8,C   5,H  10)     82.7653         0.011375   
     73. D(N  11,C   8,C   5,C   1)     86.7469         0.011375   
     74. D(H  15,N  11,C   8,C   5)   -177.4066         0.013589   
     75. D(H  14,N  11,C   8,H  13)   -177.6378         0.013589   
     76. D(H  14,N  11,C   8,H  12)     64.4666         0.013589   
     77. D(H  14,N  11,C   8,C   5)    -56.7711         0.013589   
     78. D(H  16,N  11,C   8,H  13)    -58.5670         0.013589   
     79. D(H  16,N  11,C   8,H  12)   -176.4626         0.013589   
     80. D(H  16,N  11,C   8,C   5)     62.2997         0.013589   
     81. D(H  15,N  11,C   8,H  13)     61.7268         0.013589   
     82. D(H  15,N  11,C   8,H  12)    -56.1688         0.013589   
    -----------------------------------------------------------------

Number of atoms                         .... 17
Number of degrees of freedom            .... 82

         *************************************************************
         *                GEOMETRY OPTIMIZATION CYCLE   1            *
         *************************************************************
---------------------------------
CARTESIAN COORDINATES (ANGSTROEM)
---------------------------------
  C     -1.631626   -0.898876    0.225255
  C     -1.367903    0.581716   -0.043841
  H     -1.089710   -1.255220    1.099007
  H     -1.396337   -1.503947   -0.647996
  H     -2.688590   -1.044345    0.439555
  C      0.011208    0.889878   -0.634345
  H     -1.500455    1.144678    0.881715
  H     -2.118930    0.945287   -0.747417
  C      1.179281    0.545712    0.287057
  H      0.046228    1.958987   -0.843388
  H      0.121817    0.374894   -1.589706
  N      1.596252   -0.877329    0.126403
  H      0.893107    0.715959    1.325278
  H      2.036046    1.177769    0.053554
  H      0.790471   -1.497293    0.303568
  H      2.355069   -1.111906    0.781683
  H      1.926369   -1.040863   -0.835770

----------------------------
CARTESIAN COORDINATES (A.U.)
----------------------------
  NO LB      ZA    FRAG     MASS         X           Y           Z
   0 C     6.0000    0    12.011   -3.083327   -1.698630    0.425671
   1 C     6.0000    0    12.011   -2.584962    1.099284   -0.082848
   2 H     1.0000    0     1.008   -2.059253   -2.372023    2.076823
   3 H     1.0000    0     1.008   -2.638694   -2.842047   -1.224536
   4 H     1.0000    0     1.008   -5.080698   -1.973525    0.830639
   5 C     6.0000    0    12.011    0.021181    1.681626   -1.198738
   6 H     1.0000    0     1.008   -2.835449    2.163128    1.666200
   7 H     1.0000    0     1.008   -4.004198    1.786333   -1.412414
   8 C     6.0000    0    12.011    2.228518    1.031246    0.542459
   9 H     1.0000    0     1.008    0.087358    3.701949   -1.593772
  10 H     1.0000    0     1.008    0.230201    0.708447   -3.004109
  11 N     7.0000    0    14.007    3.016479   -1.657912    0.238867
  12 H     1.0000    0     1.008    1.687729    1.352966    2.504412
  13 H     1.0000    0     1.008    3.847570    2.225661    0.101201
  14 H     1.0000    0     1.008    1.493774   -2.829473    0.573660
  15 H     1.0000    0     1.008    4.450436   -2.101198    1.477168
  16 H     1.0000    0     1.008    3.640310   -1.966946   -1.579377

--------------------------------
INTERNAL COORDINATES (ANGSTROEM)
--------------------------------
 C      0   0   0     0.000000000000     0.00000000     0.00000000
 C      1   0   0     1.527781266916     0.00000000     0.00000000
 H      1   2   0     1.088162410008   111.88980719     0.00000000
 H      1   2   3     1.088136015519   111.11297687   235.61104709
 H      1   2   3     1.088236087368   109.38341385   117.60080436
 C      2   1   3     1.531537289672   114.73022394    74.23861576
 H      2   1   3     1.091398445099   109.24141896   310.97037312
 H      2   1   3     1.091441881260   108.51687140   194.72210284
 C      6   2   1     1.527031387789   114.25540111   296.11550258
 H      6   2   1     1.089917021676   107.47275517   176.05854171
 H      6   2   1     1.090943870947   109.50930563    60.20323974
 N      9   6   2     1.491549464270   111.33867195    86.74685941
 H      9   6   2     1.090312448255   109.79177846   325.99593225
 H      9   6   2     1.089985111866   109.95633240   206.51017640
 H     12   9   6     1.032000658408   109.65650651   303.22887548
 H     12   9   6     1.029671146108   110.78280086   182.59342387
 H     12   9   6     1.030290230988   109.97421068    62.29967278

---------------------------
INTERNAL COORDINATES (A.U.)
---------------------------
 C      0   0   0     0.000000000000     0.00000000     0.00000000
 C      1   0   0     2.887088187006     0.00000000     0.00000000
 H      1   2   0     2.056328944143   111.88980719     0.00000000
 H      1   2   3     2.056279065787   111.11297687   235.61104709
 H      1   2   3     2.056468174175   109.38341385   117.60080436
 C      2   1   3     2.894186041369   114.73022394    74.23861576
 H      2   1   3     2.062444164225   109.24141896   310.97037312
 H      2   1   3     2.062526246672   108.51687140   194.72210284
 C      6   2   1     2.885671120824   114.25540111   296.11550258
 H      6   2   1     2.059644679667   107.47275517   176.05854171
 H      6   2   1     2.061585143569   109.50930563    60.20323974
 N      9   6   2     2.818620002668   111.33867195    86.74685941
 H      9   6   2     2.060391927608   109.79177846   325.99593225
 H      9   6   2     2.059773351478   109.95633240   206.51017640
 H     12   9   6     1.950198614418   109.65650651   303.22887548
 H     12   9   6     1.945796474145   110.78280086   182.59342387
 H     12   9   6     1.946966375022   109.97421068    62.29967278

---------------------
BASIS SET INFORMATION
---------------------
There are 3 groups of distinct atoms

 Group   1 Type C   : 7s4p1d contracted to 3s2p1d pattern {511/31/1}
 Group   2 Type H   : 4s1p contracted to 2s1p pattern {31/1}
 Group   3 Type N   : 7s4p1d contracted to 3s2p1d pattern {511/31/1}

Atom   0C    basis set group =>   1
Atom   1C    basis set group =>   1
Atom   2H    basis set group =>   2
Atom   3H    basis set group =>   2
Atom   4H    basis set group =>   2
Atom   5C    basis set group =>   1
Atom   6H    basis set group =>   2
Atom   7H    basis set group =>   2
Atom   8C    basis set group =>   1
Atom   9H    basis set group =>   2
Atom  10H    basis set group =>   2
Atom  11N    basis set group =>   3
Atom  12H    basis set group =>   2
Atom  13H    basis set group =>   2
Atom  14H    basis set group =>   2
Atom  15H    basis set group =>   2
Atom  16H    basis set group =>   2
---------------------------------
AUXILIARY/J BASIS SET INFORMATION
---------------------------------
There are 3 groups of distinct atoms

 Group   1 Type C   : 12s5p4d2f1g contracted to 6s4p3d1f1g pattern {711111/2111/211/2/1}
 Group   2 Type H   : 5s2p1d contracted to 3s1p1d pattern {311/2/1}
 Group   3 Type N   : 12s5p4d2f1g contracted to 6s4p3d1f1g pattern {711111/2111/211/2/1}

Atom   0C    basis set group =>   1
Atom   1C    basis set group =>   1
Atom   2H    basis set group =>   2
Atom   3H    basis set group =>   2
Atom   4H    basis set group =>   2
Atom   5C    basis set group =>   1
Atom   6H    basis set group =>   2
Atom   7H    basis set group =>   2
Atom   8C    basis set group =>   1
Atom   9H    basis set group =>   2
Atom  10H    basis set group =>   2
Atom  11N    basis set group =>   3
Atom  12H    basis set group =>   2
Atom  13H    basis set group =>   2
Atom  14H    basis set group =>   2
Atom  15H    basis set group =>   2
Atom  16H    basis set group =>   2


           ************************************************************
           *        Program running with 4 parallel MPI-processes     *
           *              working on a common directory               *
           ************************************************************
------------------------------------------------------------------------------
                           ORCA GTO INTEGRAL CALCULATION
                           -- RI-GTO INTEGRALS CHOSEN --
------------------------------------------------------------------------------
------------------------------------------------------------------------------
                   ___                                                        
                  /   \      - P O W E R E D   B Y -                         
                 /     \                                                     
                 |  |  |   _    _      __       _____    __    __             
                 |  |  |  | |  | |    /  \     |  _  \  |  |  /  |          
                  \  \/   | |  | |   /    \    | | | |  |  | /  /          
                 / \  \   | |__| |  /  /\  \   | |_| |  |  |/  /          
                |  |  |   |  __  | /  /__\  \  |    /   |      \           
                |  |  |   | |  | | |   __   |  |    \   |  |\   \          
                \     /   | |  | | |  |  |  |  | |\  \  |  | \   \       
                 \___/    |_|  |_| |__|  |__|  |_| \__\ |__|  \__/        
                                                                              
                      - O R C A' S   B I G   F R I E N D -                    
                                      &                                       
                       - I N T E G R A L  F E E D E R -                       
                                                                              
 v1 FN, 2020, v2 2021                                                         
------------------------------------------------------------------------------


Reading SHARK input file butylamine_prot_aq_4.SHARKINP.tmp ... ok
----------------------
SHARK INTEGRAL PACKAGE
----------------------

Number of atoms                             ...     17
Number of basis functions                   ...    130
Number of shells                            ...     66
Maximum angular momentum                    ...      2
Integral batch strategy                     ... SHARK/LIBINT Hybrid
RI-J (if used) integral strategy            ... SPLIT-RIJ (Revised 2003 algorithm where possible)
Printlevel                                  ...      1
Contraction scheme used                     ... SEGMENTED contraction
Coulomb Range Separation                    ... NOT USED
Exchange Range Separation                   ... Long Range
   Mu parameter                             ...  0.300000
   Scaling (regular/separated)              ...  0.157706  0.842294
Finite Nucleus Model                        ... NOT USED
Auxiliary Coulomb fitting basis             ... AVAILABLE
   # of basis functions in Aux-J            ...    377
   # of shells in Aux-J                     ...    135
   Maximum angular momentum in Aux-J        ...      4
Auxiliary J/K fitting basis                 ... NOT available
Auxiliary Correlation fitting basis         ... NOT available
Auxiliary 'external' fitting basis          ... NOT available
Integral threshold                          ...     2.500000e-11
Primitive cut-off                           ...     2.500000e-12
Primitive pair pre-selection threshold      ...     2.500000e-12

Calculating pre-screening integrals         ... done (  0.0 sec) Dimension = 66
Organizing shell pair data                  ... done (  0.0 sec)
Shell pair information
Total number of shell pairs                 ...      2211
Shell pairs after pre-screening             ...      2185
Total number of primitive shell pairs       ...      7361
Primitive shell pairs kept                  ...      5812
          la=0 lb=0:    772 shell pairs
          la=1 lb=0:    845 shell pairs
          la=1 lb=1:    249 shell pairs
          la=2 lb=0:    194 shell pairs
          la=2 lb=1:    110 shell pairs
          la=2 lb=2:     15 shell pairs

Calculating one electron integrals          ... done (  0.0 sec)
Calculating RI/J V-Matrix + Cholesky decomp.... done (  0.0 sec)
Calculating Nuclear repulsion               ... done (  0.0 sec) ENN=    202.583018687891 Eh

SHARK setup successfully completed in   0.2 seconds

Maximum memory used throughout the entire GTOINT-calculation: 10.9 MB


           ************************************************************
           *        Program running with 4 parallel MPI-processes     *
           *              working on a common directory               *
           ************************************************************
-------------------------------------------------------------------------------
                                 ORCA SCF
-------------------------------------------------------------------------------

------------
SCF SETTINGS
------------
Hamiltonian:
 Density Functional     Method          .... DFT(GTOs)
 Exchange Functional    Exchange        .... WB97X
 Correlation Functional Correlation     .... WB97X
 Gradients option       PostSCFGGA      .... off
 Hybrid DFT is turned on
   Fraction HF Exchange ScalHFX         ....  0.157706
   Scaling of DF-GGA-X  ScalDFX         ....  0.000000
   Scaling of DF-GGA-C  ScalDFC         ....  1.000000
   Scaling of DF-LDA-C  ScalLDAC        ....  1.000000
   Perturbative correction              ....  0.000000
   Density functional embedding theory  .... OFF
 Long-range corrected/Screened/Range-Separated Hybrid DFT is turned on
   Amount of maximum screened exact exchange              ....  0.842294
   Range separation parameter mu (erf(mu*r12)/r12)        ....  0.300000
 RI-approximation to the Coulomb term is turned on
   Number of AuxJ basis functions       .... 377
   RIJ-COSX (HFX calculated with COS-X)).... on


General Settings:
 Integral files         IntName         .... butylamine_prot_aq_4
 Hartree-Fock type      HFTyp           .... RHF
 Total Charge           Charge          ....    1
 Multiplicity           Mult            ....    1
 Number of Electrons    NEL             ....   42
 Basis Dimension        Dim             ....  130
 Nuclear Repulsion      ENuc            ....    202.5830186879 Eh

Convergence Acceleration:
 DIIS                   CNVDIIS         .... on
   Start iteration      DIISMaxIt       ....     0
   Startup error        DIISStart       ....  0.200000
   # of expansion vecs  DIISMaxEq       ....     5
   Bias factor          DIISBfac        ....   1.050
   Max. coefficient     DIISMaxC        ....  10.000
 Trust-Rad. Augm. Hess. CNVTRAH         .... auto
   Auto Start mean grad. ratio tolernc. ....  1.125000
   Auto Start start iteration           ....    20
   Auto Start num. interpolation iter.  ....    10
   Max. Number of Micro iterations      ....    16
   Max. Number of Macro iterations      .... Maxiter - #DIIS iter
   Number of Davidson start vectors     ....     2
   Converg. threshold I  (grad. norm)   ....   1.000e-05
   Converg. threshold II (energy diff.) ....   1.000e-08
   Grad. Scal. Fac. for Micro threshold ....   0.100
   Minimum threshold for Micro iter.    ....   0.010
   NR start threshold (gradient norm)   ....   0.001
   Initial trust radius                 ....   0.400
   Minimum AH scaling param. (alpha)    ....   1.000
   Maximum AH scaling param. (alpha)    .... 1000.000
   Orbital update algorithm             .... Taylor
   White noise on init. David. guess    .... on
   Maximum white noise                  ....   0.010
   Quad. conv. algorithm                .... NR
 SOSCF                  CNVSOSCF        .... on
   Start iteration      SOSCFMaxIt      ....   150
   Startup grad/error   SOSCFStart      ....  0.001000
 Level Shifting         CNVShift        .... on
   Level shift para.    LevelShift      ....    0.2500
   Turn off err/grad.   ShiftErr        ....    0.0000
 Zerner damping         CNVZerner       .... off
 Static damping         CNVDamp         .... on
   Fraction old density DampFac         ....    0.8500
   Max. Damping (<1)    DampMax         ....    0.9800
   Min. Damping (>=0)   DampMin         ....    0.0000
   Turn off err/grad.   DampErr         ....    0.0300
 Fernandez-Rico         CNVRico         .... off

SCF Procedure:
 Maximum # iterations   MaxIter         ....   125
 SCF integral mode      SCFMode         .... Direct
   Integral package                     .... SHARK and LIBINT hybrid scheme
 Reset frequency        DirectResetFreq ....    20
 Integral Threshold     Thresh          ....  2.500e-11 Eh
 Primitive CutOff       TCut            ....  2.500e-12 Eh

Convergence Tolerance:
 Convergence Check Mode ConvCheckMode   .... Total+1el-Energy
 Convergence forced     ConvForced      .... 0
 Energy Change          TolE            ....  1.000e-08 Eh
 1-El. energy change                    ....  1.000e-05 Eh
 Orbital Gradient       TolG            ....  1.000e-05
 Orbital Rotation angle TolX            ....  1.000e-05
 DIIS Error             TolErr          ....  5.000e-07


Diagonalization of the overlap matrix:
Smallest eigenvalue                        ... 2.215e-03
Time for diagonalization                   ...    0.004 sec
Threshold for overlap eigenvalues          ... 1.000e-08
Number of eigenvalues below threshold      ... 0
Time for construction of square roots      ...    0.003 sec
Total time needed                          ...    0.006 sec

Time for model grid setup =    0.150 sec

------------------------------
INITIAL GUESS: MODEL POTENTIAL
------------------------------
Loading Hartree-Fock densities                     ... done
Calculating cut-offs                               ... done
Initializing the effective Hamiltonian             ... done
Setting up the integral package (SHARK)            ... done
Starting the Coulomb interaction                   ... done (   0.0 sec)
Reading the grid                                   ... done
Mapping shells                                     ... done
Starting the XC term evaluation                    ... done (   0.1 sec)
  promolecular density results
     # of electrons  =     42.997224829
     EX              =    -30.586722749
     EC              =     -1.395607330
     EX+EC           =    -31.982330079
Transforming the Hamiltonian                       ... done (   0.0 sec)
Diagonalizing the Hamiltonian                      ... done (   0.0 sec)
Back transforming the eigenvectors                 ... done (   0.0 sec)
Now organizing SCF variables                       ... done
                      ------------------
                      INITIAL GUESS DONE (   0.3 sec)
                      ------------------
-------------------
DFT GRID GENERATION
-------------------

General Integration Accuracy     IntAcc      ... 4.388
Radial Grid Type                 RadialGrid  ... OptM3 with GC (2021)
Angular Grid (max. ang.)         AngularGrid ... 4 (Lebedev-302)
Angular grid pruning method      GridPruning ... 4 (adaptive)
Weight generation scheme         WeightScheme... Becke
Basis function cutoff            BFCut       ... 1.0000e-11
Integration weight cutoff        WCut        ... 1.0000e-14
Angular grids for H and He will be reduced by one unit
Partially contracted basis set               ... off
Rotationally invariant grid construction     ... off

Total number of grid points                  ...    68477
Total number of batches                      ...     1079
Average number of points per batch           ...       63
Average number of grid points per atom       ...     4028
Time for grid setup =    0.353 sec

--------------------
COSX GRID GENERATION
--------------------

GRIDX 1
-------
General Integration Accuracy     IntAcc      ... 3.816
Radial Grid Type                 RadialGrid  ... OptM3 with GC (2021)
Angular Grid (max. ang.)         AngularGrid ... 1 (Lebedev-50)
Angular grid pruning method      GridPruning ... 4 (adaptive)
Weight generation scheme         WeightScheme... Becke
Basis function cutoff            BFCut       ... 1.0000e-11
Integration weight cutoff        WCut        ... 1.0000e-14
Angular grids for H and He will be reduced by one unit
Partially contracted basis set               ... on
Rotationally invariant grid construction     ... off

Total number of grid points                  ...     8847
Total number of batches                      ...      150
Average number of points per batch           ...       58
Average number of grid points per atom       ...      520
UseSFitting                                  ... on

GRIDX 2
-------
General Integration Accuracy     IntAcc      ... 4.020
Radial Grid Type                 RadialGrid  ... OptM3 with GC (2021)
Angular Grid (max. ang.)         AngularGrid ... 2 (Lebedev-110)
Angular grid pruning method      GridPruning ... 4 (adaptive)
Weight generation scheme         WeightScheme... Becke
Basis function cutoff            BFCut       ... 1.0000e-11
Integration weight cutoff        WCut        ... 1.0000e-14
Angular grids for H and He will be reduced by one unit
Partially contracted basis set               ... on
Rotationally invariant grid construction     ... off

Total number of grid points                  ...    18083
Total number of batches                      ...      292
Average number of points per batch           ...       61
Average number of grid points per atom       ...     1064
UseSFitting                                  ... on

GRIDX 3
-------
General Integration Accuracy     IntAcc      ... 4.338
Radial Grid Type                 RadialGrid  ... OptM3 with GC (2021)
Angular Grid (max. ang.)         AngularGrid ... 3 (Lebedev-194)
Angular grid pruning method      GridPruning ... 4 (adaptive)
Weight generation scheme         WeightScheme... Becke
Basis function cutoff            BFCut       ... 1.0000e-11
Integration weight cutoff        WCut        ... 1.0000e-14
Angular grids for H and He will be reduced by one unit
Partially contracted basis set               ... on
Rotationally invariant grid construction     ... off

Total number of grid points                  ...    39288
Total number of batches                      ...      623
Average number of points per batch           ...       63
Average number of grid points per atom       ...     2311
UseSFitting                                  ... on

Time for X-Grid setup             =    0.449 sec

--------------
SCF ITERATIONS
--------------
ITER       Energy         Delta-E        Max-DP      RMS-DP      [F,P]     Damp
               ***  Starting incremental Fock matrix formation  ***
  0   -213.8200743326   0.000000000000 0.03298447  0.00095743  0.1613930 0.8500
  1   -213.8480789437  -0.028004611118 0.02967919  0.00091289  0.1300417 0.8500
                               ***Turning on DIIS***
  2   -213.8692657020  -0.021186758236 0.02319376  0.00074807  0.0997593 0.8500
  3   -213.8849351713  -0.015669469302 0.01441948  0.00053026  0.0755530 0.8500
  4   -213.8969998648  -0.012064693523 0.00960933  0.00040302  0.0601642 0.8500
  5   -213.9064886419  -0.009488777156 0.00726919  0.00032825  0.0498086 0.8500
  6   -213.9141990837  -0.007710441768 0.00588967  0.00027554  0.0419689 0.8500
  7   -213.9205812729  -0.006382189140 0.00504893  0.00023654  0.0356085 0.8500
  8   -213.9259224540  -0.005341181163 0.00432651  0.00020306  0.0301492 0.8500
  9   -213.9303997659  -0.004477311847 0.02442116  0.00115640  0.0254598 0.0000
 10   -213.9546349180  -0.024235152094 0.00121209  0.00003511  0.0012291 0.0000
                      *** Initiating the SOSCF procedure ***
                           *** Shutting down DIIS ***
                      *** Re-Reading the Fockian *** 
                      *** Removing any level shift *** 
ITER      Energy       Delta-E        Grad      Rot      Max-DP    RMS-DP
 11   -213.95464302  -0.0000080985  0.000075  0.000075  0.000328  0.000013
               *** Restarting incremental Fock matrix formation ***
 12   -213.95462328   0.0000197348  0.000036  0.000048  0.000229  0.000010
 13   -213.95462341  -0.0000001255  0.000018  0.000027  0.000110  0.000005
 14   -213.95462342  -0.0000000090  0.000012  0.000009  0.000033  0.000001
                  ***Gradient check signals convergence***
              ***Rediagonalizing the Fockian in SOSCF/NRSCF***

               *****************************************************
               *                     SUCCESS                       *
               *           SCF CONVERGED AFTER  15 CYCLES          *
               *****************************************************

Old exchange energy                            =    -10.466557690 Eh
New exchange energy                            =    -10.466534932 Eh
Exchange energy change after final integration =      0.000022758 Eh
Total energy after final integration           =   -213.954600661 Eh
Final COS-X integration done in                =     3.601 sec

----------------
TOTAL SCF ENERGY
----------------

Total Energy       :         -213.95460066 Eh           -5822.00067 eV

Components:
Nuclear Repulsion  :          202.58301869 Eh            5512.56419 eV
Electronic Energy  :         -416.53761935 Eh          -11334.56486 eV
One Electron Energy:         -679.11055740 Eh          -18479.53775 eV
Two Electron Energy:          262.57293805 Eh            7144.97289 eV
Max COSX asymmetry :            0.00000343 Eh               0.00009 eV

Virial components:
Potential Energy   :         -425.28279259 Eh          -11572.53312 eV
Kinetic Energy     :          211.32819193 Eh            5750.53245 eV
Virial Ratio       :            2.01242810


DFT components:
N(Alpha)           :       20.999941254061 electrons
N(Beta)            :       20.999941254061 electrons
N(Total)           :       41.999882508122 electrons
E(XC)              :      -22.316072633222 Eh       
DFET-embed. en.    :        0.000000000000 Eh       

---------------
SCF CONVERGENCE
---------------

  Last Energy change         ...   -3.1030e-09  Tolerance :   1.0000e-08
  Last MAX-Density change    ...    7.1054e-15  Tolerance :   1.0000e-07
  Last RMS-Density change    ...    6.5243e-17  Tolerance :   5.0000e-09
  Last Orbital Gradient      ...    1.6612e-06  Tolerance :   1.0000e-05
  Last Orbital Rotation      ...    1.0155e-06  Tolerance :   1.0000e-05

             **** THE GBW FILE WAS UPDATED (butylamine_prot_aq_4.gbw) ****
             **** DENSITY butylamine_prot_aq_4.scfp WAS UPDATED ****
             **** ENERGY FILE WAS UPDATED (butylamine_prot_aq_4.en.tmp) ****
             **** THE GBW FILE WAS UPDATED (butylamine_prot_aq_4.gbw) ****
             **** DENSITY butylamine_prot_aq_4.scfp WAS UPDATED ****
----------------
ORBITAL ENERGIES
----------------

  NO   OCC          E(Eh)            E(eV) 
   0   2.0000     -14.739449      -401.0808 
   1   2.0000     -10.513831      -286.0959 
   2   2.0000     -10.441797      -284.1357 
   3   2.0000     -10.416121      -283.4371 
   4   2.0000     -10.412319      -283.3336 
   5   2.0000      -1.329294       -36.1719 
   6   2.0000      -1.099639       -29.9227 
   7   2.0000      -1.028301       -27.9815 
   8   2.0000      -0.949843       -25.8465 
   9   2.0000      -0.907666       -24.6989 
  10   2.0000      -0.904775       -24.6202 
  11   2.0000      -0.850644       -23.1472 
  12   2.0000      -0.804071       -21.8799 
  13   2.0000      -0.741652       -20.1814 
  14   2.0000      -0.712856       -19.3978 
  15   2.0000      -0.693607       -18.8740 
  16   2.0000      -0.672711       -18.3054 
  17   2.0000      -0.655694       -17.8423 
  18   2.0000      -0.598909       -16.2971 
  19   2.0000      -0.592571       -16.1247 
  20   2.0000      -0.587026       -15.9738 
  21   0.0000      -0.078654        -2.1403 
  22   0.0000      -0.021339        -0.5807 
  23   0.0000      -0.013973        -0.3802 
  24   0.0000       0.001477         0.0402 
  25   0.0000       0.024089         0.6555 
  26   0.0000       0.034055         0.9267 
  27   0.0000       0.059315         1.6140 
  28   0.0000       0.074563         2.0290 
  29   0.0000       0.080128         2.1804 
  30   0.0000       0.089720         2.4414 
  31   0.0000       0.096231         2.6186 
  32   0.0000       0.114318         3.1107 
  33   0.0000       0.131253         3.5716 
  34   0.0000       0.137646         3.7455 
  35   0.0000       0.172653         4.6981 
  36   0.0000       0.212983         5.7956 
  37   0.0000       0.305703         8.3186 
  38   0.0000       0.323139         8.7931 
  39   0.0000       0.329086         8.9549 
  40   0.0000       0.362135         9.8542 
  41   0.0000       0.387390        10.5414 
  42   0.0000       0.397564        10.8183 
  43   0.0000       0.420755        11.4493 
  44   0.0000       0.487198        13.2573 
  45   0.0000       0.511522        13.9192 
  46   0.0000       0.526136        14.3169 
  47   0.0000       0.544560        14.8182 
  48   0.0000       0.571759        15.5584 
  49   0.0000       0.575682        15.6651 
  50   0.0000       0.587449        15.9853 
  51   0.0000       0.610776        16.6201 
  52   0.0000       0.614579        16.7236 
  53   0.0000       0.616509        16.7761 
  54   0.0000       0.638790        17.3824 
  55   0.0000       0.643512        17.5109 
  56   0.0000       0.651590        17.7307 
  57   0.0000       0.655343        17.8328 
  58   0.0000       0.666227        18.1290 
  59   0.0000       0.677953        18.4480 
  60   0.0000       0.686242        18.6736 
  61   0.0000       0.706105        19.2141 
  62   0.0000       0.738861        20.1054 
  63   0.0000       0.770045        20.9540 
  64   0.0000       0.835308        22.7299 
  65   0.0000       0.898505        24.4496 
  66   0.0000       0.923387        25.1267 
  67   0.0000       0.995043        27.0765 
  68   0.0000       1.035976        28.1903 
  69   0.0000       1.100492        29.9459 
  70   0.0000       1.169835        31.8328 
  71   0.0000       1.199711        32.6458 
  72   0.0000       1.240310        33.7505 
  73   0.0000       1.258101        34.2347 
  74   0.0000       1.298823        35.3428 
  75   0.0000       1.329779        36.1851 
  76   0.0000       1.416504        38.5450 
  77   0.0000       1.454452        39.5776 
  78   0.0000       1.502306        40.8798 
  79   0.0000       1.522217        41.4216 
  80   0.0000       1.601490        43.5787 
  81   0.0000       1.651594        44.9422 
  82   0.0000       1.668619        45.4054 
  83   0.0000       1.694357        46.1058 
  84   0.0000       1.700168        46.2639 
  85   0.0000       1.721588        46.8468 
  86   0.0000       1.751820        47.6694 
  87   0.0000       1.754700        47.7478 
  88   0.0000       1.771875        48.2152 
  89   0.0000       1.785612        48.5890 
  90   0.0000       1.793440        48.8020 
  91   0.0000       1.814096        49.3641 
  92   0.0000       1.831323        49.8328 
  93   0.0000       1.835422        49.9444 
  94   0.0000       1.853730        50.4426 
  95   0.0000       1.857950        50.5574 
  96   0.0000       1.872367        50.9497 
  97   0.0000       1.906483        51.8780 
  98   0.0000       1.911724        52.0207 
  99   0.0000       1.952665        53.1347 
 100   0.0000       1.985583        54.0305 
 101   0.0000       2.002243        54.4838 
 102   0.0000       2.109592        57.4049 
 103   0.0000       2.114671        57.5431 
 104   0.0000       2.175531        59.1992 
 105   0.0000       2.230199        60.6868 
 106   0.0000       2.255010        61.3619 
 107   0.0000       2.285703        62.1971 
 108   0.0000       2.342908        63.7538 
 109   0.0000       2.377604        64.6979 
 110   0.0000       2.399924        65.3053 
 111   0.0000       2.428257        66.0762 
 112   0.0000       2.479678        67.4755 
 113   0.0000       2.552906        69.4681 
 114   0.0000       2.558586        69.6227 
 115   0.0000       2.581630        70.2497 
 116   0.0000       2.625870        71.4536 
 117   0.0000       2.652144        72.1685 
 118   0.0000       2.697865        73.4126 
 119   0.0000       2.801987        76.2459 
 120   0.0000       2.854129        77.6648 
 121   0.0000       2.874582        78.2214 
 122   0.0000       2.929761        79.7228 
 123   0.0000       2.936551        79.9076 
 124   0.0000       2.973296        80.9075 
 125   0.0000       2.993510        81.4576 
 126   0.0000       3.015844        82.0653 
 127   0.0000       3.064554        83.3907 
 128   0.0000       3.166934        86.1766 
 129   0.0000       3.181580        86.5752 

                    ********************************
                    * MULLIKEN POPULATION ANALYSIS *
                    ********************************

-----------------------
MULLIKEN ATOMIC CHARGES
-----------------------
   0 C :   -0.104256
   1 C :   -0.059886
   2 H :    0.026339
   3 H :    0.039759
   4 H :    0.091041
   5 C :   -0.103682
   6 H :    0.056994
   7 H :    0.075408
   8 C :   -0.002934
   9 H :    0.091847
  10 H :    0.045564
  11 N :   -0.004561
  12 H :    0.102137
  13 H :    0.108033
  14 H :    0.195522
  15 H :    0.223751
  16 H :    0.218924
Sum of atomic charges:    1.0000000

--------------------------------
MULLIKEN REDUCED ORBITAL CHARGES
--------------------------------
  0 C s       :     3.042565  s :     3.042565
      pz      :     0.977036  p :     3.033651
      px      :     1.089945
      py      :     0.966670
      dz2     :     0.004270  d :     0.028039
      dxz     :     0.004424
      dyz     :     0.008066
      dx2y2   :     0.007262
      dxy     :     0.004018
  1 C s       :     3.046604  s :     3.046604
      pz      :     1.038620  p :     2.977330
      px      :     0.955773
      py      :     0.982937
      dz2     :     0.005101  d :     0.035953
      dxz     :     0.007247
      dyz     :     0.008065
      dx2y2   :     0.009095
      dxy     :     0.006446
  2 H s       :     0.949185  s :     0.949185
      pz      :     0.012020  p :     0.024476
      px      :     0.006997
      py      :     0.005459
  3 H s       :     0.936047  s :     0.936047
      pz      :     0.011622  p :     0.024194
      px      :     0.005108
      py      :     0.007465
  4 H s       :     0.884613  s :     0.884613
      pz      :     0.005096  p :     0.024346
      px      :     0.015189
      py      :     0.004060
  5 C s       :     3.065537  s :     3.065537
      pz      :     0.968314  p :     3.003520
      px      :     0.952534
      py      :     1.082672
      dz2     :     0.006508  d :     0.034625
      dxz     :     0.009121
      dyz     :     0.004727
      dx2y2   :     0.009825
      dxy     :     0.004445
  6 H s       :     0.919979  s :     0.919979
      pz      :     0.012170  p :     0.023027
      px      :     0.004111
      py      :     0.006746
  7 H s       :     0.901467  s :     0.901467
      pz      :     0.008839  p :     0.023125
      px      :     0.009289
      py      :     0.004996
  8 C s       :     3.057796  s :     3.057796
      pz      :     1.102483  p :     2.899662
      px      :     1.072933
      py      :     0.724246
      dz2     :     0.012036  d :     0.045477
      dxz     :     0.005662
      dyz     :     0.004806
      dx2y2   :     0.012015
      dxy     :     0.010958
  9 H s       :     0.884644  s :     0.884644
      pz      :     0.004645  p :     0.023509
      px      :     0.003519
      py      :     0.015346
 10 H s       :     0.931022  s :     0.931022
      pz      :     0.013128  p :     0.023414
      px      :     0.003730
      py      :     0.006557
 11 N s       :     3.299647  s :     3.299647
      pz      :     1.205347  p :     3.686948
      px      :     1.214726
      py      :     1.266875
      dz2     :     0.003595  d :     0.017967
      dxz     :     0.003466
      dyz     :     0.002988
      dx2y2   :     0.002680
      dxy     :     0.005237
 12 H s       :     0.875073  s :     0.875073
      pz      :     0.014974  p :     0.022790
      px      :     0.004895
      py      :     0.002920
 13 H s       :     0.869196  s :     0.869196
      pz      :     0.004742  p :     0.022772
      px      :     0.010497
      py      :     0.007533
 14 H s       :     0.758848  s :     0.758848
      pz      :     0.008698  p :     0.045630
      px      :     0.022958
      py      :     0.013974
 15 H s       :     0.732787  s :     0.732787
      pz      :     0.016552  p :     0.043461
      px      :     0.019162
      py      :     0.007746
 16 H s       :     0.737336  s :     0.737336
      pz      :     0.026367  p :     0.043740
      px      :     0.010123
      py      :     0.007250


                     *******************************
                     * LOEWDIN POPULATION ANALYSIS *
                     *******************************

----------------------
LOEWDIN ATOMIC CHARGES
----------------------
   0 C :   -0.069515
   1 C :   -0.036010
   2 H :    0.014222
   3 H :    0.024505
   4 H :    0.057243
   5 C :   -0.045314
   6 H :    0.035703
   7 H :    0.046796
   8 C :    0.054773
   9 H :    0.058626
  10 H :    0.030638
  11 N :    0.294883
  12 H :    0.052523
  13 H :    0.054688
  14 H :    0.133475
  15 H :    0.147839
  16 H :    0.144925

-------------------------------
LOEWDIN REDUCED ORBITAL CHARGES
-------------------------------
  0 C s       :     2.829684  s :     2.829684
      pz      :     1.050003  p :     3.167787
      px      :     1.091340
      py      :     1.026444
      dz2     :     0.011903  d :     0.072044
      dxz     :     0.011525
      dyz     :     0.019809
      dx2y2   :     0.019705
      dxy     :     0.009103
  1 C s       :     2.828547  s :     2.828547
      pz      :     1.069361  p :     3.118892
      px      :     1.016593
      py      :     1.032938
      dz2     :     0.012732  d :     0.088571
      dxz     :     0.018589
      dyz     :     0.018811
      dx2y2   :     0.024350
      dxy     :     0.014089
  2 H s       :     0.918002  s :     0.918002
      pz      :     0.031374  p :     0.067776
      px      :     0.019811
      py      :     0.016592
  3 H s       :     0.907672  s :     0.907672
      pz      :     0.030877  p :     0.067823
      px      :     0.014848
      py      :     0.022097
  4 H s       :     0.874708  s :     0.874708
      pz      :     0.013148  p :     0.068048
      px      :     0.041523
      py      :     0.013377
  5 C s       :     2.833139  s :     2.833139
      pz      :     1.030067  p :     3.125027
      px      :     1.012422
      py      :     1.082538
      dz2     :     0.015444  d :     0.087147
      dxz     :     0.023591
      dyz     :     0.012667
      dx2y2   :     0.025812
      dxy     :     0.009633
  6 H s       :     0.896880  s :     0.896880
      pz      :     0.033363  p :     0.067417
      px      :     0.013281
      py      :     0.020773
  7 H s       :     0.885547  s :     0.885547
      pz      :     0.024535  p :     0.067657
      px      :     0.026998
      py      :     0.016124
  8 C s       :     2.839801  s :     2.839801
      pz      :     1.100954  p :     3.001470
      px      :     1.079254
      py      :     0.821262
      dz2     :     0.028086  d :     0.103955
      dxz     :     0.014393
      dyz     :     0.009295
      dx2y2   :     0.026906
      dxy     :     0.025275
  9 H s       :     0.872541  s :     0.872541
      pz      :     0.013775  p :     0.068833
      px      :     0.012871
      py      :     0.042187
 10 H s       :     0.900785  s :     0.900785
      pz      :     0.036311  p :     0.068577
      px      :     0.013355
      py      :     0.018911
 11 N s       :     2.996053  s :     2.996053
      pz      :     1.210492  p :     3.663466
      px      :     1.213187
      py      :     1.239786
      dz2     :     0.010222  d :     0.045597
      dxz     :     0.009817
      dyz     :     0.005843
      dx2y2   :     0.006977
      dxy     :     0.012739
 12 H s       :     0.878430  s :     0.878430
      pz      :     0.043268  p :     0.069047
      px      :     0.016131
      py      :     0.009648
 13 H s       :     0.876018  s :     0.876018
      pz      :     0.015298  p :     0.069295
      px      :     0.031914
      py      :     0.022082
 14 H s       :     0.752353  s :     0.752353
      pz      :     0.019111  p :     0.114171
      px      :     0.055289
      py      :     0.039772
 15 H s       :     0.741903  s :     0.741903
      pz      :     0.039841  p :     0.110259
      px      :     0.047526
      py      :     0.022892
 16 H s       :     0.745178  s :     0.745178
      pz      :     0.065733  p :     0.109897
      px      :     0.023103
      py      :     0.021061


                      *****************************
                      * MAYER POPULATION ANALYSIS *
                      *****************************

  NA   - Mulliken gross atomic population
  ZA   - Total nuclear charge
  QA   - Mulliken gross atomic charge
  VA   - Mayer's total valence
  BVA  - Mayer's bonded valence
  FA   - Mayer's free valence

  ATOM       NA         ZA         QA         VA         BVA        FA
  0 C      6.1043     6.0000    -0.1043     3.9885     3.9885    -0.0000
  1 C      6.0599     6.0000    -0.0599     4.0663     4.0663    -0.0000
  2 H      0.9737     1.0000     0.0263     0.9838     0.9838    -0.0000
  3 H      0.9602     1.0000     0.0398     0.9881     0.9881    -0.0000
  4 H      0.9090     1.0000     0.0910     0.9922     0.9922    -0.0000
  5 C      6.1037     6.0000    -0.1037     4.0322     4.0322     0.0000
  6 H      0.9430     1.0000     0.0570     0.9796     0.9796    -0.0000
  7 H      0.9246     1.0000     0.0754     0.9794     0.9794    -0.0000
  8 C      6.0029     6.0000    -0.0029     3.8988     3.8988     0.0000
  9 H      0.9082     1.0000     0.0918     0.9813     0.9813    -0.0000
 10 H      0.9544     1.0000     0.0456     0.9890     0.9890    -0.0000
 11 N      7.0046     7.0000    -0.0046     3.7115     3.7115     0.0000
 12 H      0.8979     1.0000     0.1021     0.9870     0.9870    -0.0000
 13 H      0.8920     1.0000     0.1080     0.9784     0.9784     0.0000
 14 H      0.8045     1.0000     0.1955     1.0103     1.0103     0.0000
 15 H      0.7762     1.0000     0.2238     0.9549     0.9549     0.0000
 16 H      0.7811     1.0000     0.2189     0.9625     0.9625     0.0000

  Mayer bond orders larger than 0.100000
B(  0-C ,  1-C ) :   1.0690 B(  0-C ,  2-H ) :   0.9579 B(  0-C ,  3-H ) :   0.9711 
B(  0-C ,  4-H ) :   0.9613 B(  1-C ,  5-C ) :   1.0676 B(  1-C ,  6-H ) :   0.9558 
B(  1-C ,  7-H ) :   0.9544 B(  5-C ,  8-C ) :   1.0395 B(  5-C ,  9-H ) :   0.9435 
B(  5-C , 10-H ) :   0.9575 B(  8-C , 11-N ) :   0.9212 B(  8-C , 12-H ) :   0.9546 
B(  8-C , 13-H ) :   0.9573 B( 11-N , 14-H ) :   0.9241 B( 11-N , 15-H ) :   0.9290 
B( 11-N , 16-H ) :   0.9315 

-------
TIMINGS
-------

Total SCF time: 0 days 0 hours 0 min 27 sec 

Total time                  ....      27.641 sec
Sum of individual times     ....      26.986 sec  ( 97.6%)

Fock matrix formation       ....      25.686 sec  ( 92.9%)
  Split-RI-J                ....       1.217 sec  (  4.7% of F)
  Chain of spheres X        ....      19.714 sec  ( 76.8% of F)
  XC integration            ....       4.119 sec  ( 16.0% of F)
    Basis function eval.    ....       1.359 sec  ( 33.0% of XC)
    Density eval.           ....       0.718 sec  ( 17.4% of XC)
    XC-Functional eval.     ....       0.592 sec  ( 14.4% of XC)
    XC-Potential eval.      ....       0.817 sec  ( 19.8% of XC)
Diagonalization             ....       0.055 sec  (  0.2%)
Density matrix formation    ....       0.003 sec  (  0.0%)
Population analysis         ....       0.045 sec  (  0.2%)
Initial guess               ....       0.115 sec  (  0.4%)
Orbital Transformation      ....       0.000 sec  (  0.0%)
Orbital Orthonormalization  ....       0.000 sec  (  0.0%)
DIIS solution               ....       0.114 sec  (  0.4%)
SOSCF solution              ....       0.015 sec  (  0.1%)
Grid generation             ....       0.952 sec  (  3.4%)

Maximum memory used throughout the entire SCF-calculation: 50.4 MB


-------------------------------------------------------------------------------
                          DFT DISPERSION CORRECTION                            
                                                                               
                                 DFTD4 V2.5                                    
-------------------------------------------------------------------------------
The WB97X functional is recognized
Active option DFTDOPT                   ...         5   

Starting D4
-------------------------   ----------------
Dispersion correction           -0.001364994
-------------------------   ----------------


-------------------------   --------------------
FINAL SINGLE POINT ENERGY      -213.955965654229
-------------------------   --------------------



           ************************************************************
           *        Program running with 4 parallel MPI-processes     *
           *              working on a common directory               *
           ************************************************************
------------------------------------------------------------------------------
                         ORCA SCF GRADIENT CALCULATION
------------------------------------------------------------------------------

 ... reading COSX grid (gridx3)
Gradient of the Kohn-Sham DFT energy:
Kohn-Sham wavefunction type      ... RKS
Hartree-Fock exchange scaling    ...    0.158
Number of operators              ...    1
Number of atoms                  ...   17
Basis set dimensions             ...  130
Integral neglect threshold       ... 2.5e-11
Integral primitive cutoff        ... 2.5e-12
SHARK Integral package           ... ON

Nuc. rep. gradient       (SHARK) ... done (  0.0 sec)
HCore & Overlap gradient (SHARK) ... done (  0.0 sec)
RI-J gradient            (SHARK) ... done (  0.2 sec)
COSX-gradient                    ... done (  3.9 sec)
Exchange-correlation gradient    ... done
Dispersion correction            ... Starting D4
Starting D4
Starting D4
Starting D4


------------------- 
Dispersion Gradient 
------------------- 
   1  :   -0.000014879   -0.000010555    0.000002475
   2  :   -0.000013263    0.000006851    0.000000048
   3  :   -0.000005681   -0.000001054    0.000000502
   4  :   -0.000006104   -0.000001083    0.000000203
   5  :   -0.000007342   -0.000001790    0.000000590
   6  :    0.000000682    0.000007987   -0.000006518
   7  :   -0.000004061    0.000000559   -0.000001014
   8  :   -0.000004621    0.000000560   -0.000000536
   9  :    0.000008880    0.000009590    0.000003132
  10  :    0.000000071    0.000003612   -0.000000731
  11  :    0.000000479    0.000001655    0.000001153
  12  :    0.000016326   -0.000003306    0.000002801
  13  :    0.000003972   -0.000000290   -0.000001751
  14  :    0.000004480   -0.000000080   -0.000000301
  15  :   -0.000001853   -0.000004621    0.000000874
  16  :    0.000014677   -0.000005039    0.000007960
  17  :    0.000008237   -0.000002998   -0.000008887

  |G| =    0.000041158

done

------------------
CARTESIAN GRADIENT
------------------

   1   C   :    0.001588978   -0.015123964    0.002964669
   2   C   :   -0.005342249    0.009441165    0.004333079
   3   H   :   -0.005727771    0.006209097   -0.009100094
   4   H   :   -0.001974044    0.007693982    0.007568775
   5   H   :    0.006386444    0.004012893   -0.002746442
   6   C   :    0.007599700    0.002684158   -0.013202990
   7   H   :    0.001631549   -0.005501475   -0.005341362
   8   H   :    0.004138294   -0.003447954    0.003253969
   9   C   :    0.010442107   -0.010988114    0.011023037
  10   H   :   -0.003913714   -0.006360827    0.002648224
  11   H   :   -0.002659019    0.002162553    0.009633850
  12   N   :   -0.001709732   -0.000925551   -0.002899110
  13   H   :   -0.001704316    0.002187856   -0.007769267
  14   H   :   -0.007998405    0.000209751   -0.000563114
  15   H   :   -0.002435622    0.001354584    0.000689087
  16   H   :    0.001349052    0.003424369    0.002551060
  17   H   :    0.000298074    0.002741428   -0.002826977

Difference to translation invariance:
           :   -0.0000306752   -0.0002260504    0.0002163950

Difference to rotation invariance:
           :    0.0000283776   -0.0000596364    0.0003020409

Norm of the cartesian gradient     ...    0.0419871609
RMS gradient                       ...    0.0058793785
MAX gradient                       ...    0.0151239638

-------
TIMINGS
-------

Total SCF gradient time            ...        5.664 sec

One electron gradient       ....       0.045 sec  (  0.8%)
RI-J Coulomb gradient       ....       0.242 sec  (  4.3%)
COSX gradient               ....       3.925 sec  ( 69.3%)
XC gradient                 ....       1.122 sec  ( 19.8%)

Maximum memory used throughout the entire SCFGRAD-calculation: 38.8 MB
------------------------------------------------------------------------------
                         ORCA GEOMETRY RELAXATION STEP
------------------------------------------------------------------------------

Reading the OPT-File                    .... done
Getting information on internals        .... done
Copying old internal coords+grads       .... done
Making the new internal coordinates     .... (new redundants).... done
Validating the new internal coordinates .... (new redundants).... done
Calculating the B-matrix                .... done
Calculating the G,G- and P matrices     .... done
Transforming gradient to internals      .... done
Projecting the internal gradient        .... done
Number of atoms                         ....  17
Number of internal coordinates          ....  82
Current Energy                          ....  -213.955965654 Eh
Current gradient norm                   ....     0.041987161 Eh/bohr
Maximum allowed component of the step   ....  0.300
Current trust radius                    ....  0.300
Evaluating the initial hessian          ....  (Almloef) done
Projecting the Hessian                  .... done
Forming the augmented Hessian           .... done
Diagonalizing the augmented Hessian     .... done
Last element of RFO vector              ....  0.979250814
Lowest eigenvalues of augmented Hessian:
 -0.003481846  0.011049577  0.011323834  0.011798716  0.013589150
Length of the computed step             ....  0.206945987
The final length of the internal step   ....  0.206945987
Converting the step to cartesian space:
 Initial RMS(Int)=    0.0228533612
Transforming coordinates:
 Iter   0:  RMS(Cart)=    0.0525079776 RMS(Int)=    0.0227991936
 Iter   1:  RMS(Cart)=    0.0009791908 RMS(Int)=    0.0005955191
 Iter   2:  RMS(Cart)=    0.0000475352 RMS(Int)=    0.0000172956
 Iter   3:  RMS(Cart)=    0.0000018603 RMS(Int)=    0.0000011234
 Iter   4:  RMS(Cart)=    0.0000000766 RMS(Int)=    0.0000000352
done
Storing new coordinates                 .... done

                                .--------------------.
          ----------------------|Geometry convergence|-------------------------
          Item                value                   Tolerance       Converged
          ---------------------------------------------------------------------
          RMS gradient        0.0033810753            0.0001000000      NO
          MAX gradient        0.0122070125            0.0003000000      NO
          RMS step            0.0228533612            0.0020000000      NO
          MAX step            0.0674959965            0.0040000000      NO
          ........................................................
          Max(Bonds)      0.0176      Max(Angles)    1.34
          Max(Dihed)        3.87      Max(Improp)    0.00
          ---------------------------------------------------------------------

The optimization has not yet converged - more geometry cycles are needed


    ---------------------------------------------------------------------------
                         Redundant Internal Coordinates
                            (Angstroem and degrees)

        Definition                    Value    dE/dq     Step     New-Value
    ----------------------------------------------------------------------------
     1. B(C   1,C   0)                1.5278 -0.003059  0.0043    1.5320   
     2. B(H   2,C   0)                1.0882 -0.012207  0.0176    1.1058   
     3. B(H   3,C   0)                1.0881 -0.010781  0.0156    1.1037   
     4. B(H   4,C   0)                1.0882 -0.007284  0.0105    1.0988   
     5. B(C   5,C   1)                1.5315 -0.000995  0.0014    1.5329   
     6. B(H   6,C   1)                1.0914 -0.007568  0.0111    1.1025   
     7. B(H   7,C   1)                1.0914 -0.006083  0.0089    1.1003   
     8. B(C   8,C   5)                1.5270 -0.000839  0.0012    1.5282   
     9. B(H   9,C   5)                1.0899 -0.006858  0.0100    1.0999   
    10. B(H  10,C   5)                1.0909 -0.009721  0.0142    1.1051   
    11. B(N  11,C   8)                1.4915 -0.006752  0.0092    1.5007   
    12. B(H  12,C   8)                1.0903 -0.006622  0.0096    1.1000   
    13. B(H  13,C   8)                1.0900 -0.006033  0.0088    1.0988   
    14. B(H  14,N  11)                1.0320  0.001198 -0.0016    1.0304   
    15. B(H  15,N  11)                1.0297  0.001827 -0.0024    1.0273   
    16. B(H  16,N  11)                1.0303  0.002312 -0.0030    1.0273   
    17. A(H   3,C   0,H   4)          107.08  0.002349   -0.30    106.79   
    18. A(C   1,C   0,H   4)          109.38 -0.004029    0.80    110.18   
    19. A(C   1,C   0,H   2)          111.89 -0.001811    0.28    112.17   
    20. A(H   2,C   0,H   4)          106.37  0.002892   -0.51    105.86   
    21. A(H   2,C   0,H   3)          110.77  0.002503   -0.60    110.16   
    22. A(C   1,C   0,H   3)          111.11 -0.001635    0.29    111.41   
    23. A(C   0,C   1,C   5)          114.73  0.001574   -0.16    114.57   
    24. A(H   6,C   1,H   7)          106.93  0.001077   -0.43    106.51   
    25. A(C   5,C   1,H   7)          107.70 -0.000483    0.20    107.90   
    26. A(C   0,C   1,H   7)          108.52 -0.001358    0.50    109.01   
    27. A(C   5,C   1,H   6)          109.42  0.000240   -0.25    109.17   
    28. A(C   0,C   1,H   6)          109.24 -0.001058    0.14    109.38   
    29. A(C   1,C   5,H   9)          107.47 -0.003738    1.24    108.72   
    30. A(C   1,C   5,C   8)          114.26  0.001158   -0.03    114.23   
    31. A(C   8,C   5,H   9)          108.19  0.001628   -0.27    107.92   
    32. A(H   9,C   5,H  10)          106.97  0.001376   -0.65    106.32   
    33. A(C   8,C   5,H  10)          110.15  0.000118   -0.37    109.78   
    34. A(C   1,C   5,H  10)          109.51 -0.000566    0.07    109.58   
    35. A(H  12,C   8,H  13)          108.65  0.000414   -0.08    108.57   
    36. A(N  11,C   8,H  13)          108.09  0.001926   -0.58    107.51   
    37. A(C   5,C   8,H  13)          109.96 -0.003257    1.26    111.21   
    38. A(N  11,C   8,H  12)          108.96  0.003506   -1.34    107.62   
    39. A(C   5,C   8,H  12)          109.79 -0.003093    0.82    110.61   
    40. A(C   5,C   8,N  11)          111.34  0.000637   -0.12    111.22   
    41. A(H  15,N  11,H  16)          108.79  0.003534   -0.56    108.22   
    42. A(H  14,N  11,H  16)          108.37  0.002809   -0.59    107.78   
    43. A(C   8,N  11,H  16)          109.97 -0.003019    0.55    110.53   
    44. A(H  14,N  11,H  15)          109.23  0.003305   -0.60    108.62   
    45. A(C   8,N  11,H  15)          110.78 -0.004431    0.83    111.62   
    46. A(C   8,N  11,H  14)          109.66 -0.001958    0.33    109.99   
    47. D(H   6,C   1,C   0,H   4)     68.57  0.000257   -1.21     67.36   
    48. D(H   7,C   1,C   0,H   4)    -47.68  0.000304   -1.05    -48.73   
    49. D(H   7,C   1,C   0,H   3)     70.33 -0.000309   -0.73     69.60   
    50. D(H   6,C   1,C   0,H   2)    -49.03  0.000346   -1.26    -50.29   
    51. D(C   5,C   1,C   0,H   4)   -168.16  0.000879   -1.55   -169.71   
    52. D(H   6,C   1,C   0,H   3)   -173.42 -0.000357   -0.90   -174.32   
    53. D(C   5,C   1,C   0,H   3)    -50.15  0.000266   -1.24    -51.39   
    54. D(C   5,C   1,C   0,H   2)     74.24  0.000969   -1.60     72.64   
    55. D(H   7,C   1,C   0,H   2)   -165.28  0.000394   -1.10   -166.38   
    56. D(H   9,C   5,C   1,H   6)    -60.77 -0.000986    1.12    -59.65   
    57. D(C   8,C   5,C   1,H   7)    175.18  0.000301    1.09    176.28   
    58. D(C   8,C   5,C   1,H   6)     59.29 -0.000836    1.63     60.91   
    59. D(C   8,C   5,C   1,C   0)    -63.88 -0.000766    1.76    -62.12   
    60. D(H   9,C   5,C   1,H   7)     55.13  0.000150    0.58     55.71   
    61. D(H  10,C   5,C   1,H   7)    -60.73  0.000861    0.64    -60.09   
    62. D(H  10,C   5,C   1,H   6)   -176.63 -0.000275    1.17   -175.45   
    63. D(H  10,C   5,C   1,C   0)     60.20 -0.000206    1.31     61.51   
    64. D(H   9,C   5,C   1,C   0)    176.06 -0.000916    1.25    177.31   
    65. D(H  13,C   8,C   5,H   9)    -33.84  0.000291   -2.48    -36.31   
    66. D(H  13,C   8,C   5,C   1)   -153.49  0.003145   -3.84   -157.33   
    67. D(H  12,C   8,C   5,H  10)   -157.75 -0.000483   -2.44   -160.19   
    68. D(H  12,C   8,C   5,H   9)     85.65 -0.003134   -1.29     84.36   
    69. D(H  12,C   8,C   5,C   1)    -34.00 -0.000280   -2.66    -36.66   
    70. D(N  11,C   8,C   5,H  10)    -37.00  0.002266   -3.65    -40.65   
    71. D(N  11,C   8,C   5,H   9)   -153.60 -0.000385   -2.50   -156.10   
    72. D(H  13,C   8,C   5,H  10)     82.77  0.002942   -3.62     79.14   
    73. D(N  11,C   8,C   5,C   1)     86.75  0.002469   -3.87     82.88   
    74. D(H  15,N  11,C   8,C   5)   -177.41 -0.000554    0.40   -177.00   
    75. D(H  14,N  11,C   8,H  13)   -177.64  0.001836   -0.71   -178.34   
    76. D(H  14,N  11,C   8,H  12)     64.47 -0.001672    0.45     64.92   
    77. D(H  14,N  11,C   8,C   5)    -56.77 -0.000548    0.40    -56.37   
    78. D(H  16,N  11,C   8,H  13)    -58.57  0.002236   -0.89    -59.46   
    79. D(H  16,N  11,C   8,H  12)   -176.46 -0.001273    0.27   -176.19   
    80. D(H  16,N  11,C   8,C   5)     62.30 -0.000149    0.21     62.51   
    81. D(H  15,N  11,C   8,H  13)     61.73  0.001831   -0.70     61.03   
    82. D(H  15,N  11,C   8,H  12)    -56.17 -0.001678    0.46    -55.71   
    ----------------------------------------------------------------------------

         *************************************************************
         *                GEOMETRY OPTIMIZATION CYCLE   2            *
         *************************************************************
---------------------------------
CARTESIAN COORDINATES (ANGSTROEM)
---------------------------------
  C     -1.597150   -0.909386    0.216845
  C     -1.369310    0.581755   -0.050990
  H     -1.021614   -1.269199    1.089835
  H     -1.360707   -1.519096   -0.672283
  H     -2.653355   -1.094381    0.456648
  C      0.006849    0.921395   -0.634720
  H     -1.515903    1.147842    0.883619
  H     -2.133731    0.940079   -0.756693
  C      1.180173    0.564822    0.277173
  H      0.048983    2.002411   -0.833211
  H      0.127948    0.421288   -1.612761
  N      1.552446   -0.882760    0.142503
  H      0.920385    0.745201    1.330686
  H      2.070542    1.159401    0.030184
  H      0.733788   -1.476701    0.339502
  H      2.308046   -1.140831    0.788873
  H      1.864911   -1.086737   -0.814599

----------------------------
CARTESIAN COORDINATES (A.U.)
----------------------------
  NO LB      ZA    FRAG     MASS         X           Y           Z
   0 C     6.0000    0    12.011   -3.018176   -1.718491    0.409778
   1 C     6.0000    0    12.011   -2.587621    1.099357   -0.096357
   2 H     1.0000    0     1.008   -1.930571   -2.398438    2.059489
   3 H     1.0000    0     1.008   -2.571364   -2.870676   -1.270430
   4 H     1.0000    0     1.008   -5.014114   -2.068081    0.862940
   5 C     6.0000    0    12.011    0.012943    1.741184   -1.199448
   6 H     1.0000    0     1.008   -2.864642    2.169106    1.669798
   7 H     1.0000    0     1.008   -4.032166    1.776492   -1.429942
   8 C     6.0000    0    12.011    2.230203    1.067358    0.523781
   9 H     1.0000    0     1.008    0.092564    3.784009   -1.574540
  10 H     1.0000    0     1.008    0.241787    0.796118   -3.047677
  11 N     7.0000    0    14.007    2.933698   -1.668175    0.269291
  12 H     1.0000    0     1.008    1.739276    1.408226    2.514632
  13 H     1.0000    0     1.008    3.912757    2.190950    0.057039
  14 H     1.0000    0     1.008    1.386658   -2.790561    0.641566
  15 H     1.0000    0     1.008    4.361574   -2.155859    1.490753
  16 H     1.0000    0     1.008    3.524171   -2.053636   -1.539369

--------------------------------
INTERNAL COORDINATES (ANGSTROEM)
--------------------------------
 C      0   0   0     0.000000000000     0.00000000     0.00000000
 C      1   0   0     1.532040554543     0.00000000     0.00000000
 H      1   2   0     1.105810778188   112.16713404     0.00000000
 H      1   2   3     1.103720663898   111.40604665   235.97642818
 H      1   2   3     1.098770465443   110.18060649   117.65016453
 C      2   1   3     1.532942086477   114.56489952    72.63507750
 H      2   1   3     1.102468982477   109.37719937   309.70978079
 H      2   1   3     1.100341710550   109.01172278   193.62299338
 C      6   2   1     1.528195899984   114.22609059   297.87855324
 H      6   2   1     1.099895489920   108.71528427   177.30978955
 H      6   2   1     1.105140576552   109.57893954    61.51013166
 N      9   6   2     1.500738653427   111.22151829    82.87876988
 H      9   6   2     1.099961701556   110.60463431   323.34637788
 H      9   6   2     1.098765108032   111.20871288   202.66650046
 H     12   9   6     1.030425328715   109.98361440   303.62515498
 H     12   9   6     1.027290474840   111.61144285   182.99621420
 H     12   9   6     1.027270586956   110.52328214    62.50935565

---------------------------
INTERNAL COORDINATES (A.U.)
---------------------------
 C      0   0   0     0.000000000000     0.00000000     0.00000000
 C      1   0   0     2.895137074147     0.00000000     0.00000000
[...]
     29       0.014151  -0.027787   0.022341  -0.000153   0.031574   0.011454
     30       0.009603  -0.016709  -0.003144   0.000322  -0.116811  -0.006137
     31      -0.011779   0.025036  -0.016094  -0.007371   0.364670   0.017686
     32       0.000519  -0.005912  -0.000627  -0.014731   0.844673   0.037080
     33       0.018834  -0.031411   0.030397  -0.001292   0.000407  -0.000151
     34      -0.063110  -0.002203   0.004153  -0.001182  -0.000235  -0.000209
     35      -0.002092   0.030368   0.035204   0.000353  -0.000110   0.000076
     36      -0.048388  -0.006131  -0.005321   0.000341   0.009666   0.000812
     37      -0.068203   0.045008   0.041343  -0.000091  -0.010324   0.000765
     38       0.013621   0.005181   0.003395  -0.002141  -0.047133   0.009916
     39       0.015609   0.015287  -0.009655  -0.004444   0.008835   0.006458
     40      -0.056152  -0.064869   0.038509  -0.001004   0.009016   0.003499
     41      -0.071132   0.003095   0.003651   0.001288  -0.006416  -0.001603
     42      -0.196837  -0.289167  -0.080037   0.018767  -0.000919   0.001930
     43       0.279165   0.260778  -0.144846   0.020270  -0.000852   0.002926
     44       0.029626  -0.228974  -0.664545  -0.005338  -0.000777  -0.000326
     45       0.027212   0.458925   0.086294   0.000639  -0.001286   0.000134
     46       0.313164   0.076019   0.344129   0.001327   0.001407  -0.000099
     47       0.135972  -0.534654   0.096145  -0.000983   0.000760  -0.000146
     48      -0.085473   0.413880  -0.527116   0.001601  -0.005202  -0.000120
     49       0.278000  -0.247689  -0.315539   0.000010   0.004904   0.000734
     50      -0.114203   0.213373  -0.047383  -0.000942   0.003348   0.000187
                 42         43         44         45         46         47    
      0      -0.024461   0.000682   0.000079   0.002874  -0.085402   0.000901
      1      -0.023908   0.000254  -0.001214   0.003741   0.002136   0.000058
      2      -0.082744   0.002161  -0.003715   0.017355   0.029054   0.000342
      3       0.013162  -0.001133  -0.012046   0.038533  -0.003292   0.000799
      4      -0.005374   0.001517   0.003865   0.002157   0.003219  -0.000226
      5       0.012378   0.000429  -0.013755   0.081237  -0.000741   0.000531
      6       0.285445  -0.009206   0.012715  -0.062939   0.043552  -0.002420
      7      -0.179015   0.005236  -0.008327   0.043087  -0.033051   0.002452
      8       0.444175  -0.014215   0.019770  -0.100432   0.089091  -0.004773
      9      -0.184770   0.004090  -0.007820   0.033686   0.061737   0.000263
     10       0.430058  -0.009111   0.017251  -0.084228  -0.171076  -0.000888
     11       0.606352  -0.012524   0.025020  -0.113985  -0.242501  -0.001113
     12       0.191114  -0.003998  -0.007719  -0.007891   0.906085  -0.008108
     13       0.031801  -0.000648  -0.001298  -0.001860   0.168202  -0.001413
     14      -0.061344   0.001437   0.000701   0.004042  -0.190900   0.001546
     15      -0.000304   0.001440  -0.001381  -0.000876   0.000387  -0.000059
     16       0.001411   0.010181   0.086502   0.017533   0.000681   0.000373
     17       0.001616   0.000521   0.014646   0.007629  -0.000153   0.003649
     18       0.004066   0.001108  -0.004963   0.092360   0.004198   0.002250
     19      -0.001828  -0.010360   0.020322  -0.276425  -0.015310  -0.000899
     20      -0.003004  -0.016144   0.030481  -0.441453  -0.022223  -0.001891
     21      -0.155346   0.013304   0.142991  -0.546142   0.034199  -0.006080
     22       0.068334  -0.005791  -0.064865   0.248048  -0.016097   0.002356
     23      -0.149147   0.013471   0.135150  -0.521498   0.031849  -0.006392
     24      -0.001217  -0.033474   0.003940   0.001008  -0.000475  -0.063988
     25      -0.000955  -0.038728   0.005165   0.001236  -0.000036  -0.022185
     26      -0.001257  -0.048251   0.005943   0.000046   0.000657   0.069646
     27       0.000482  -0.006046  -0.025704  -0.004736  -0.000260   0.000554
     28      -0.007008  -0.113004  -0.901481  -0.163984  -0.004623   0.012819
     29       0.001470   0.011684   0.116355   0.020187   0.000268  -0.002906
     30       0.000845   0.003995   0.040780   0.018029   0.000848   0.002325
     31      -0.008045  -0.003340  -0.120307  -0.044024  -0.000175  -0.015374
     32      -0.016137  -0.009134  -0.299982  -0.110537  -0.001999  -0.038818
     33       0.001038   0.000876   0.000303  -0.000175   0.000284   0.001697
     34       0.001049   0.001484  -0.000772  -0.000351   0.000097   0.000633
     35       0.000087   0.001182   0.000098   0.000026  -0.000127  -0.001754
     36      -0.003185  -0.141360   0.014558  -0.000950   0.000920   0.107614
     37       0.003483   0.138446  -0.014805  -0.000805  -0.001162  -0.115027
     38       0.018455   0.737117  -0.084835  -0.008248  -0.006040  -0.609092
     39       0.016475   0.519166  -0.059779  -0.018936   0.004807   0.637502
     40       0.009411   0.308511  -0.036659  -0.011856   0.002581   0.375757
     41      -0.005546  -0.181878   0.018897   0.005459  -0.001649  -0.211306
     42      -0.015652  -0.008308   0.000622   0.003080  -0.001351  -0.014012
     43      -0.016576  -0.004231  -0.000998   0.003763  -0.002235  -0.001364
     44      -0.002801   0.002901   0.000593   0.001040   0.001989   0.004438
     45       0.001676  -0.000659   0.000377   0.000123  -0.000855   0.000898
     46      -0.000112  -0.007362  -0.000213  -0.000182  -0.000153  -0.000696
     47       0.001046  -0.002195  -0.000422  -0.000118  -0.000399   0.000002
     48      -0.002811   0.002832   0.001831   0.001793   0.000080  -0.001469
     49      -0.001606   0.000084  -0.001750  -0.000582   0.000251  -0.004611
     50      -0.000546  -0.009063  -0.000248  -0.001061   0.000895   0.010915
                 48         49         50    
      0       0.000964   0.000648   0.000006
      1      -0.000622  -0.000557  -0.000043
      2       0.002206   0.001600   0.000096
      3      -0.000366  -0.000217   0.000028
      4      -0.000187  -0.000167  -0.000033
      5      -0.000053  -0.000033   0.000005
      6      -0.009230  -0.007361  -0.000065
      7       0.007252   0.005866   0.000424
      8      -0.024782  -0.019352  -0.001344
      9       0.002148   0.001668   0.000113
     10      -0.001478  -0.000031   0.000229
     11       0.000315   0.001813   0.000424
     12       0.000299  -0.000943  -0.000264
     13       0.003058   0.002430   0.000294
     14      -0.002415  -0.001845  -0.000191
     15      -0.000165  -0.000224  -0.000209
     16      -0.000434   0.000364   0.000013
     17      -0.000254   0.000463  -0.000371
     18       0.000216   0.000389  -0.000070
     19       0.001195   0.000641   0.000279
     20       0.000673   0.000018   0.000507
     21       0.001455   0.000172   0.000148
     22       0.001456   0.001286   0.000040
     23      -0.000324  -0.000644  -0.000186
     24       0.000418   0.000435  -0.000307
     25       0.001387   0.000473   0.000329
     26       0.000172  -0.000891   0.000413
     27       0.002295   0.000206   0.000332
     28       0.000069   0.000835   0.001001
     29       0.000633  -0.000163  -0.000556
     30      -0.000592   0.001136  -0.000796
     31       0.001549  -0.002174   0.001447
     32       0.001286  -0.003515   0.001932
     33       0.014531   0.071071   0.034883
     34       0.045925   0.003742  -0.000770
     35      -0.003004  -0.034081   0.074044
     36       0.001660  -0.003335   0.001762
     37      -0.004325   0.003867  -0.004276
     38      -0.004279   0.008343  -0.009009
     39      -0.008149  -0.008477  -0.000237
     40      -0.011719  -0.008468  -0.000561
     41       0.002470   0.003404  -0.001143
     42      -0.633738  -0.466664  -0.059137
     43      -0.433385  -0.328781  -0.042917
     44       0.190788   0.138665   0.026062
     45       0.316028  -0.341072  -0.588579
     46      -0.104478   0.114091   0.197233
     47       0.262483  -0.285636  -0.477365
     48       0.115537  -0.170967   0.167800
     49      -0.099065   0.157092  -0.145658
     50      -0.409788   0.618930  -0.569727


-----------
IR SPECTRUM
-----------

 Mode   freq       eps      Int      T**2         TX        TY        TZ
       cm**-1   L/(mol*cm) km/mol    a.u.
----------------------------------------------------------------------------
  6:     97.73   0.000474    2.40  0.001514  ( 0.011209 -0.007668 -0.036457)
  7:    170.82   0.004093   20.69  0.007477  ( 0.086172  0.005965 -0.004035)
  8:    224.55   0.000882    4.46  0.001225  (-0.034446  0.001121  0.006134)
  9:    312.85   0.000286    1.44  0.000285  (-0.009291  0.012134 -0.007180)
 10:    330.64   0.002030   10.26  0.001916  (-0.042490  0.009679 -0.004056)
 11:    363.16   0.000568    2.87  0.000488  ( 0.011823 -0.011794  0.014477)
 12:    483.41   0.000644    3.26  0.000416  (-0.017176  0.002443 -0.010725)
 13:    765.80   0.000321    1.62  0.000131  (-0.004895 -0.006161 -0.008308)
 14:    798.75   0.001194    6.03  0.000466  ( 0.018879  0.007477 -0.007360)
 15:    839.66   0.001777    8.98  0.000660  ( 0.024692 -0.000401 -0.007112)
 16:    894.90   0.002399   12.12  0.000837  ( 0.014090  0.009605 -0.023363)
 17:    915.90   0.002909   14.70  0.000991  ( 0.026475 -0.015065  0.007953)
 18:    995.81   0.001428    7.21  0.000447  ( 0.014467  0.013701  0.007096)
 19:   1022.48   0.001245    6.29  0.000380  (-0.012144 -0.010678  0.010879)
 20:   1049.01   0.003099   15.66  0.000922  (-0.028515  0.005950 -0.008564)
 21:   1113.95   0.000834    4.21  0.000234  (-0.002454 -0.012711 -0.008125)
 22:   1150.61   0.001595    8.06  0.000433  (-0.015879 -0.009002 -0.009975)
 23:   1191.41   0.000351    1.77  0.000092  ( 0.001209  0.004084  0.008586)
 24:   1281.74   0.001201    6.07  0.000292  (-0.014199  0.000047 -0.009524)
 25:   1309.43   0.000771    3.90  0.000184  ( 0.013540 -0.000535  0.000311)
 26:   1349.47   0.003533   17.85  0.000817  (-0.020211 -0.011555  0.016581)
 27:   1369.27   0.000168    0.85  0.000038  (-0.005182 -0.000786  0.003280)
 28:   1399.85   0.000274    1.38  0.000061  (-0.006848 -0.002946  0.002326)
 29:   1419.90   0.000892    4.51  0.000196  (-0.007655 -0.011579  0.001836)
 30:   1433.05   0.000122    0.61  0.000026  ( 0.004701 -0.001116  0.001773)
 31:   1456.71   0.002276   11.50  0.000488  (-0.003822 -0.013351  0.017170)
 32:   1470.54   0.001645    8.31  0.000349  ( 0.011981 -0.013089  0.005857)
 33:   1481.29   0.002750   13.90  0.000579  (-0.013327 -0.010944 -0.016793)
 34:   1483.97   0.008348   42.19  0.001755  (-0.001932 -0.034839 -0.023194)
 35:   1493.52   0.016680   84.30  0.003485  ( 0.035816 -0.046195 -0.008276)
 36:   1512.12   0.012208   61.69  0.002519  (-0.020932  0.041859 -0.018140)
 37:   1619.52   0.006691   33.81  0.001289  ( 0.020379  0.004910 -0.029151)
 38:   1634.42   0.004192   21.19  0.000800  (-0.023786  0.000457 -0.015313)
 39:   3027.79   0.007548   38.14  0.000778  ( 0.020515 -0.017079  0.008086)
 40:   3067.11   0.002048   10.35  0.000208  ( 0.006770 -0.003453 -0.012271)
 41:   3092.66   0.001731    8.75  0.000175  ( 0.007982 -0.009587 -0.004367)
 42:   3113.85   0.003551   17.95  0.000356  (-0.008064 -0.004624 -0.016416)
 43:   3118.76   0.000227    1.15  0.000023  (-0.003733 -0.001159 -0.002736)
 44:   3149.00   0.000117    0.59  0.000012  (-0.000206  0.003028  0.001541)
 45:   3157.28   0.001655    8.36  0.000164  ( 0.004392  0.001817  0.011875)
 46:   3177.49   0.000313    1.58  0.000031  (-0.004465  0.002539  0.002089)
 47:   3194.02   0.000034    0.17  0.000003  (-0.001692  0.000303  0.000635)
 48:   3420.03   0.013481   68.13  0.001230  (-0.020555 -0.028273  0.002864)
 49:   3511.65   0.039547  199.85  0.003514  (-0.056823  0.001564  0.016823)
 50:   3546.63   0.025071  126.70  0.002206  (-0.022722  0.001824 -0.041066)

* The epsilon (eps) is given for a Dirac delta lineshape.
** The dipole moment derivative (T) already includes vibrational overlap.

The first frequency considered to be a vibration is 6
The total number of vibrations considered is 45


--------------------------
THERMOCHEMISTRY AT 298.15K
--------------------------

Temperature         ... 298.15 K
Pressure            ... 1.00 atm
Total Mass          ... 74.15 AMU

Throughout the following assumptions are being made:
  (1) The electronic state is orbitally nondegenerate
  (2) There are no thermally accessible electronically excited states
  (3) Hindered rotations indicated by low frequency modes are not
      treated as such but are treated as vibrations and this may
      cause some error
  (4) All equations used are the standard statistical mechanics
      equations for an ideal gas
  (5) All vibrations are strictly harmonic

freq.      97.73  E(vib)   ...       0.46 
freq.     170.82  E(vib)   ...       0.38 
freq.     224.55  E(vib)   ...       0.33 
freq.     312.85  E(vib)   ...       0.25 
freq.     330.64  E(vib)   ...       0.24 
freq.     363.16  E(vib)   ...       0.22 
freq.     483.41  E(vib)   ...       0.15 
freq.     765.80  E(vib)   ...       0.06 
freq.     798.75  E(vib)   ...       0.05 
freq.     839.66  E(vib)   ...       0.04 
freq.     894.90  E(vib)   ...       0.03 
freq.     915.90  E(vib)   ...       0.03 
freq.     995.81  E(vib)   ...       0.02 
freq.    1022.48  E(vib)   ...       0.02 
freq.    1049.01  E(vib)   ...       0.02 
freq.    1113.95  E(vib)   ...       0.01 
freq.    1150.61  E(vib)   ...       0.01 
freq.    1191.41  E(vib)   ...       0.01 
freq.    1281.74  E(vib)   ...       0.01 
freq.    1309.43  E(vib)   ...       0.01 
freq.    1349.47  E(vib)   ...       0.01 
freq.    1369.27  E(vib)   ...       0.01 
freq.    1399.85  E(vib)   ...       0.00 
freq.    1419.90  E(vib)   ...       0.00 
freq.    1433.05  E(vib)   ...       0.00 
freq.    1456.71  E(vib)   ...       0.00 
freq.    1470.54  E(vib)   ...       0.00 
freq.    1481.29  E(vib)   ...       0.00 
freq.    1483.97  E(vib)   ...       0.00 
freq.    1493.52  E(vib)   ...       0.00 
freq.    1512.12  E(vib)   ...       0.00 
freq.    1619.52  E(vib)   ...       0.00 
freq.    1634.42  E(vib)   ...       0.00 
freq.    3027.79  E(vib)   ...       0.00 
freq.    3067.11  E(vib)   ...       0.00 
freq.    3092.66  E(vib)   ...       0.00 
freq.    3113.85  E(vib)   ...       0.00 
freq.    3118.76  E(vib)   ...       0.00 
freq.    3149.00  E(vib)   ...       0.00 
freq.    3157.28  E(vib)   ...       0.00 
freq.    3177.49  E(vib)   ...       0.00 
freq.    3194.02  E(vib)   ...       0.00 
freq.    3420.03  E(vib)   ...       0.00 
freq.    3511.65  E(vib)   ...       0.00 
freq.    3546.63  E(vib)   ...       0.00 

------------
INNER ENERGY
------------

The inner energy is: U= E(el) + E(ZPE) + E(vib) + E(rot) + E(trans)
    E(el)   - is the total energy from the electronic structure calculation
              = E(kin-el) + E(nuc-el) + E(el-el) + E(nuc-nuc)
    E(ZPE)  - the the zero temperature vibrational energy from the frequency calculation
    E(vib)  - the the finite temperature correction to E(ZPE) due to population
              of excited vibrational states
    E(rot)  - is the rotational thermal energy
    E(trans)- is the translational thermal energy

Summary of contributions to the inner energy U:
Electronic energy                ...   -213.95884029 Eh
Zero point energy                ...      0.16633471 Eh     104.38 kcal/mol
Thermal vibrational correction   ...      0.00384447 Eh       2.41 kcal/mol
Thermal rotational correction    ...      0.00141627 Eh       0.89 kcal/mol
Thermal translational correction ...      0.00141627 Eh       0.89 kcal/mol
-----------------------------------------------------------------------
Total thermal energy                   -213.78582857 Eh


Summary of corrections to the electronic energy:
(perhaps to be used in another calculation)
Total thermal correction                  0.00667701 Eh       4.19 kcal/mol
Non-thermal (ZPE) correction              0.16633471 Eh     104.38 kcal/mol
-----------------------------------------------------------------------
Total correction                          0.17301172 Eh     108.57 kcal/mol


--------
ENTHALPY
--------

The enthalpy is H = U + kB*T
                kB is Boltzmann's constant
Total free energy                 ...   -213.78582857 Eh 
Thermal Enthalpy correction       ...      0.00094421 Eh       0.59 kcal/mol
-----------------------------------------------------------------------
Total Enthalpy                    ...   -213.78488437 Eh


Note: Only C1 symmetry has been detected, increase convergence thresholds 
      if your molecule has a higher symmetry. Symmetry factor of 1.0 is   
      used for the rotational entropy correction. 
 

Note: Rotational entropy computed according to Herzberg 
Infrared and Raman Spectra, Chapter V,1, Van Nostrand Reinhold, 1945 
Point Group:  C1, Symmetry Number:   1  
Rotational constants in cm-1:     0.227006     0.114663     0.085809 

Vibrational entropy computed according to the QRRHO of S. Grimme
Chem.Eur.J. 2012 18 9955


-------
ENTROPY
-------

The entropy contributions are T*S = T*(S(el)+S(vib)+S(rot)+S(trans))
     S(el)   - electronic entropy
     S(vib)  - vibrational entropy
     S(rot)  - rotational entropy
     S(trans)- translational entropy
The entropies will be listed as multiplied by the temperature to get
units of energy

Electronic entropy                ...      0.00000000 Eh      0.00 kcal/mol
Vibrational entropy               ...      0.00640809 Eh      4.02 kcal/mol
Rotational entropy                ...      0.01239253 Eh      7.78 kcal/mol
Translational entropy             ...      0.01844761 Eh     11.58 kcal/mol
-----------------------------------------------------------------------
Final entropy term                ...      0.03724823 Eh     23.37 kcal/mol

In case the symmetry of your molecule has not been determined correctly
or in case you have a reason to use a different symmetry number we print 
out the resulting rotational entropy values for sn=1,12 :
 --------------------------------------------------------
|  sn= 1 | S(rot)=       0.01239253 Eh      7.78 kcal/mol|
|  sn= 2 | S(rot)=       0.01173808 Eh      7.37 kcal/mol|
|  sn= 3 | S(rot)=       0.01135524 Eh      7.13 kcal/mol|
|  sn= 4 | S(rot)=       0.01108362 Eh      6.96 kcal/mol|
|  sn= 5 | S(rot)=       0.01087293 Eh      6.82 kcal/mol|
|  sn= 6 | S(rot)=       0.01070079 Eh      6.71 kcal/mol|
|  sn= 7 | S(rot)=       0.01055524 Eh      6.62 kcal/mol|
|  sn= 8 | S(rot)=       0.01042916 Eh      6.54 kcal/mol|
|  sn= 9 | S(rot)=       0.01031796 Eh      6.47 kcal/mol|
|  sn=10 | S(rot)=       0.01021848 Eh      6.41 kcal/mol|
|  sn=11 | S(rot)=       0.01012849 Eh      6.36 kcal/mol|
|  sn=12 | S(rot)=       0.01004633 Eh      6.30 kcal/mol|
 --------------------------------------------------------


-------------------
GIBBS FREE ENERGY
-------------------

The Gibbs free energy is G = H - T*S

Total enthalpy                    ...   -213.78488437 Eh 
Total entropy correction          ...     -0.03724823 Eh    -23.37 kcal/mol
-----------------------------------------------------------------------
Final Gibbs free energy         ...   -213.82213260 Eh

For completeness - the Gibbs free energy minus the electronic energy
G-E(el)                           ...      0.13670770 Eh     85.79 kcal/mol


Timings for individual modules:

Sum of individual times         ...      285.420 sec (=   4.757 min)
GTO integral calculation        ...        4.126 sec (=   0.069 min)   1.4 %
SCF iterations                  ...      153.691 sec (=   2.562 min)  53.8 %
SCF Gradient evaluation         ...       42.188 sec (=   0.703 min)  14.8 %
Geometry relaxation             ...        0.303 sec (=   0.005 min)   0.1 %
Analytical frequency calculation...       85.112 sec (=   1.419 min)  29.8 %
                             ****ORCA TERMINATED NORMALLY****
TOTAL RUN TIME: 0 days 0 hours 4 minutes 48 seconds 855 msec
