
                                 *****************
                                 * O   R   C   A *
                                 *****************

                                            #,                                       
                                            ###                                      
                                            ####                                     
                                            #####                                    
                                            ######                                   
                                           ########,                                 
                                     ,,################,,,,,                         
                               ,,#################################,,                 
                          ,,##########################################,,             
                       ,#########################################, ''#####,          
                    ,#############################################,,   '####,        
                  ,##################################################,,,,####,       
                ,###########''''           ''''###############################       
              ,#####''   ,,,,##########,,,,          '''####'''          '####       
            ,##' ,,,,###########################,,,                        '##       
           ' ,,###''''                  '''############,,,                           
         ,,##''                                '''############,,,,        ,,,,,,###''
      ,#''                                            '''#######################'''  
     '                                                          ''''####''''         
             ,#######,   #######,   ,#######,      ##                                
            ,#'     '#,  ##    ##  ,#'     '#,    #''#        ######   ,####,        
            ##       ##  ##   ,#'  ##            #'  '#       #        #'  '#        
            ##       ##  #######   ##           ,######,      #####,   #    #        
            '#,     ,#'  ##    ##  '#,     ,#' ,#      #,         ##   #,  ,#        
             '#######'   ##     ##  '#######'  #'      '#     #####' # '####'        



                  #######################################################
                  #                        -***-                        #
                  #          Department of theory and spectroscopy      #
                  #    Directorship and core code : Frank Neese         #
                  #        Max Planck Institute fuer Kohlenforschung    #
                  #                Kaiser Wilhelm Platz 1               #
                  #                 D-45470 Muelheim/Ruhr               #
                  #                      Germany                        #
                  #                                                     #
                  #                  All rights reserved                #
                  #                        -***-                        #
                  #######################################################


                         Program Version 5.0.4 -  RELEASE  -


 With contributions from (in alphabetic order):
   Daniel Aravena         : Magnetic Suceptibility
   Michael Atanasov       : Ab Initio Ligand Field Theory (pilot matlab implementation)
   Alexander A. Auer      : GIAO ZORA, VPT2 properties, NMR spectrum
   Ute Becker             : Parallelization
   Giovanni Bistoni       : ED, misc. LED, open-shell LED, HFLD
   Martin Brehm           : Molecular dynamics
   Dmytro Bykov           : SCF Hessian
   Vijay G. Chilkuri      : MRCI spin determinant printing, contributions to CSF-ICE
   Dipayan Datta          : RHF DLPNO-CCSD density
   Achintya Kumar Dutta   : EOM-CC, STEOM-CC
   Dmitry Ganyushin       : Spin-Orbit,Spin-Spin,Magnetic field MRCI
   Miquel Garcia          : C-PCM and meta-GGA Hessian, CC/C-PCM, Gaussian charge scheme
   Yang Guo               : DLPNO-NEVPT2, F12-NEVPT2, CIM, IAO-localization
   Andreas Hansen         : Spin unrestricted coupled pair/coupled cluster methods
   Benjamin Helmich-Paris : MC-RPA, TRAH-SCF, COSX integrals
   Lee Huntington         : MR-EOM, pCC
   Robert Izsak           : Overlap fitted RIJCOSX, COSX-SCS-MP3, EOM
   Marcus Kettner         : VPT2
   Christian Kollmar      : KDIIS, OOCD, Brueckner-CCSD(T), CCSD density, CASPT2, CASPT2-K
   Simone Kossmann        : Meta GGA functionals, TD-DFT gradient, OOMP2, MP2 Hessian
   Martin Krupicka        : Initial AUTO-CI
   Lucas Lang             : DCDCAS
   Marvin Lechner         : AUTO-CI (C++ implementation), FIC-MRCC
   Dagmar Lenk            : GEPOL surface, SMD
   Dimitrios Liakos       : Extrapolation schemes; Compound Job, initial MDCI parallelization
   Dimitrios Manganas     : Further ROCIS development; embedding schemes
   Dimitrios Pantazis     : SARC Basis sets
   Anastasios Papadopoulos: AUTO-CI, single reference methods and gradients
   Taras Petrenko         : DFT Hessian,TD-DFT gradient, ASA, ECA, R-Raman, ABS, FL, XAS/XES, NRVS
   Peter Pinski           : DLPNO-MP2, DLPNO-MP2 Gradient
   Christoph Reimann      : Effective Core Potentials
   Marius Retegan         : Local ZFS, SOC
   Christoph Riplinger    : Optimizer, TS searches, QM/MM, DLPNO-CCSD(T), (RO)-DLPNO pert. Triples
   Tobias Risthaus        : Range-separated hybrids, TD-DFT gradient, RPA, STAB
   Michael Roemelt        : Original ROCIS implementation
   Masaaki Saitow         : Open-shell DLPNO-CCSD energy and density
   Barbara Sandhoefer     : DKH picture change effects
   Avijit Sen             : IP-ROCIS
   Kantharuban Sivalingam : CASSCF convergence, NEVPT2, FIC-MRCI
   Bernardo de Souza      : ESD, SOC TD-DFT
   Georgi Stoychev        : AutoAux, RI-MP2 NMR, DLPNO-MP2 response
   Willem Van den Heuvel  : Paramagnetic NMR
   Boris Wezisla          : Elementary symmetry handling
   Frank Wennmohs         : Technical directorship


 We gratefully acknowledge several colleagues who have allowed us to
 interface, adapt or use parts of their codes:
   Stefan Grimme, W. Hujo, H. Kruse, P. Pracht,  : VdW corrections, initial TS optimization,
                  C. Bannwarth, S. Ehlert          DFT functionals, gCP, sTDA/sTD-DF
   Ed Valeev, F. Pavosevic, A. Kumar             : LibInt (2-el integral package), F12 methods
   Garnet Chan, S. Sharma, J. Yang, R. Olivares  : DMRG
   Ulf Ekstrom                                   : XCFun DFT Library
   Mihaly Kallay                                 : mrcc  (arbitrary order and MRCC methods)
   Jiri Pittner, Ondrej Demel                    : Mk-CCSD
   Frank Weinhold                                : gennbo (NPA and NBO analysis)
   Christopher J. Cramer and Donald G. Truhlar   : smd solvation model
   Lars Goerigk                                  : TD-DFT with DH, B97 family of functionals
   V. Asgeirsson, H. Jonsson                     : NEB implementation
   FAccTs GmbH                                   : IRC, NEB, NEB-TS, DLPNO-Multilevel, CI-OPT
                                                   MM, QMMM, 2- and 3-layer-ONIOM, Crystal-QMMM,
                                                   LR-CPCM, SF, NACMEs, symmetry and pop. for TD-DFT,
                                                   nearIR, NL-DFT gradient (VV10), updates on ESD,
                                                   ML-optimized integration grids
   S Lehtola, MJT Oliveira, MAL Marques          : LibXC Library
   Liviu Ungur et al                             : ANISO software


 Your calculation uses the libint2 library for the computation of 2-el integrals
 For citations please refer to: http://libint.valeyev.net

 Your ORCA version has been built with support for libXC version: 5.1.0
 For citations please refer to: https://tddft.org/programs/libxc/

 This ORCA versions uses:
   CBLAS   interface :  Fast vector & matrix operations
   LAPACKE interface :  Fast linear algebra routines
   SCALAPACK package :  Parallel linear algebra routines
   Shared memory     :  Shared parallel matrices
   BLAS/LAPACK       :  OpenBLAS 0.3.15  USE64BITINT DYNAMIC_ARCH NO_AFFINITY SkylakeX SINGLE_THREADED
        Core in use  :  SkylakeX
   Copyright (c) 2011-2014, The OpenBLAS Project




***************************************
The coordinates will be read from file: 1_deprot_aq_1.xyz
***************************************


Your calculation utilizes the atom-pairwise dispersion correction
based on tight binding partial charges (D4)
Cite in your paper:
E.Caldeweyher, C.Bannwarth, S.Grimme, J.Chem.Phys., (2017), 147, 034112.
E.Caldeweyher, S.Ehlert, A.Hansen, H.Neugebauer, S.Grimme, J.Chem.Phys., (2018), in progress.
   

XCFun DFT library Copyright 2009-2010 Ulf Ekstrom and contributors.
See http://admol.org/xcfun for more information.
This is free software; see the source code for copying conditions.
There is ABSOLUTELY NO WARRANTY; not even for MERCHANTABILITY or FITNESS FOR A PARTICULAR PURPOSE.
For details see the documentation.
Scientific users of this library should cite U. Ekstrom, L. Visscher, R. Bast, A. J. Thorvaldsen and K. Ruud;
J.Chem.Theor.Comp. 2010, DOI: 10.1021/ct100117s
XCFun Version 0.99 

================================================================================

----- Orbital basis set information -----
Your calculation utilizes the basis: def2-SVP
   F. Weigend and R. Ahlrichs, Phys. Chem. Chem. Phys. 7, 3297 (2005).

----- AuxJ basis set information -----
Your calculation utilizes the auxiliary basis: def2/J
   F. Weigend, Phys. Chem. Chem. Phys. 8, 1057 (2006).

================================================================================
                                        WARNINGS
                       Please study these warnings very carefully!
================================================================================


WARNING: Geometry Optimization
  ===> : Switching off AutoStart
         For restart on a previous wavefunction, please use MOREAD

INFO   : the flag for use of the SHARK integral package has been found!

================================================================================
                                       INPUT FILE
================================================================================
NAME = 1_deprot_aq_1.inp
|  1> # ORCA 5.0.4 - /users/bwb16179/postgrad/2024_03/DFT_Crest_Conformers/Opt/deprot/1_deprot_aq_1.inp # write input file
|  2> # Basic Mode
|  3> #
|  4> ! Opt Freq wB97X Def2-SVP D4 SlowConv TightSCF Defgrid2 Def2/J RIJCOSX CPCM(Water)
|  5> 
|  6> 
|  7> 
|  8> %maxcore 4500
|  9> 
| 10> %geom
| 11> Maxiter 150
| 12> END
| 13> 
| 14> * xyzfile 0 1 1_deprot_aq_1.xyz
| 15> 
| 16>                          ****END OF INPUT****
================================================================================

                       *****************************
                       * Geometry Optimization Run *
                       *****************************

Geometry optimization settings:
Update method            Update   .... BFGS
Choice of coordinates    CoordSys .... Z-matrix Internals
Initial Hessian          InHess   .... Almoef's Model

Convergence Tolerances:
Energy Change            TolE     ....  5.0000e-06 Eh
Max. Gradient            TolMAXG  ....  3.0000e-04 Eh/bohr
RMS Gradient             TolRMSG  ....  1.0000e-04 Eh/bohr
Max. Displacement        TolMAXD  ....  4.0000e-03 bohr
RMS Displacement         TolRMSD  ....  2.0000e-03 bohr
Strict Convergence                ....  False
------------------------------------------------------------------------------
                        ORCA OPTIMIZATION COORDINATE SETUP
------------------------------------------------------------------------------

The optimization will be done in new redundant internal coordinates
Making redundant internal coordinates   ...  (new redundants) done
Evaluating the initial hessian          ...  (Almloef) done
Evaluating the coordinates              ...  done
Calculating the B-matrix                .... done
Calculating the G-matrix                .... done
Diagonalizing the G-matrix              .... done
The first mode is                       ....   29
The number of degrees of freedom        ....   39

    -----------------------------------------------------------------
                    Redundant Internal Coordinates


    -----------------------------------------------------------------
         Definition                    Initial Value    Approx d2E/dq
    -----------------------------------------------------------------
      1. B(C   1,N   0)                  1.3567         0.632305   
      2. B(N   2,C   1)                  1.3568         0.632227   
      3. B(C   3,N   2)                  1.3731         0.595452   
      4. B(C   4,C   3)                  1.3524         0.717464   
      5. B(C   4,N   0)                  1.3732         0.595307   
      6. B(C   5,N   0)                  1.4335         0.477037   
      7. B(C   6,N   2)                  1.4334         0.477090   
      8. B(H   7,C   5)                  1.0933         0.355812   
      9. B(H   8,C   5)                  1.0933         0.355790   
     10. B(H   9,C   5)                  1.0883         0.362418   
     11. B(H  10,C   6)                  1.0933         0.355816   
     12. B(H  11,C   6)                  1.0883         0.362376   
     13. B(H  12,C   6)                  1.0933         0.355794   
     14. B(H  13,C   3)                  1.0714         0.385533   
     15. B(H  14,C   4)                  1.0714         0.385552   
     16. A(C   1,N   0,C   5)          123.8842         0.410285   
     17. A(C   4,N   0,C   5)          124.1416         0.405931   
     18. A(C   1,N   0,C   4)          111.9742         0.426802   
     19. A(N   0,C   1,N   2)          103.2629         0.431434   
     20. A(C   1,N   2,C   3)          111.9731         0.426811   
     21. A(C   1,N   2,C   6)          123.8789         0.410284   
     22. A(C   3,N   2,C   6)          124.1480         0.405956   
     23. A(C   4,C   3,H  13)          130.9249         0.366022   
     24. A(N   2,C   3,C   4)          106.3975         0.439505   
     25. A(N   2,C   3,H  13)          122.6776         0.352392   
     26. A(N   0,C   4,H  14)          122.6822         0.352381   
     27. A(N   0,C   4,C   3)          106.3923         0.439486   
     28. A(C   3,C   4,H  14)          130.9256         0.366025   
     29. A(H   8,C   5,H   9)          109.2200         0.290583   
     30. A(H   7,C   5,H   9)          109.2254         0.290586   
     31. A(N   0,C   5,H   9)          108.1298         0.336019   
     32. A(H   7,C   5,H   8)          108.5920         0.289745   
     33. A(N   0,C   5,H   8)          110.8241         0.334989   
     34. A(N   0,C   5,H   7)          110.8223         0.334993   
     35. A(H  11,C   6,H  12)          109.2173         0.290578   
     36. A(H  10,C   6,H  12)          108.5921         0.289746   
     37. A(N   2,C   6,H  12)          110.8270         0.334996   
     38. A(H  10,C   6,H  11)          109.2226         0.290581   
     39. A(N   2,C   6,H  11)          108.1291         0.336019   
     40. A(N   2,C   6,H  10)          110.8253         0.334999   
     41. D(N   2,C   1,N   0,C   5)   -179.9915         0.029419   
     42. D(N   2,C   1,N   0,C   4)     -0.0019         0.029419   
     43. D(C   3,N   2,C   1,N   0)      0.0023         0.029411   
     44. D(C   6,N   2,C   1,N   0)    179.9916         0.029411   
     45. D(H  13,C   3,N   2,C   1)   -179.9986         0.028539   
     46. D(C   4,C   3,N   2,C   6)   -179.9912         0.028539   
     47. D(H  13,C   3,N   2,C   6)      0.0121         0.028539   
     48. D(C   4,C   3,N   2,C   1)     -0.0019         0.028539   
     49. D(N   0,C   4,C   3,H  13)    179.9970         0.036409   
     50. D(N   0,C   4,C   3,N   2)      0.0007         0.036409   
     51. D(H  14,C   4,N   0,C   5)     -0.0120         0.028524   
     52. D(C   3,C   4,N   0,C   5)    179.9903         0.028524   
     53. D(H  14,C   4,N   0,C   1)    179.9984         0.028524   
     54. D(H  14,C   4,C   3,N   2)   -179.9967         0.036409   
     55. D(H  14,C   4,C   3,H  13)     -0.0003         0.036409   
     56. D(C   3,C   4,N   0,C   1)      0.0008         0.028524   
     57. D(H   9,C   5,N   0,C   4)    179.9092         0.019458   
     58. D(H   9,C   5,N   0,C   1)     -0.1025         0.019458   
     59. D(H   8,C   5,N   0,C   4)    -60.4120         0.019458   
     60. D(H   8,C   5,N   0,C   1)    119.5764         0.019458   
     61. D(H   7,C   5,N   0,C   4)     60.2249         0.019458   
     62. D(H   7,C   5,N   0,C   1)   -119.7868         0.019458   
     63. D(H  12,C   6,N   2,C   3)     60.4123         0.019462   
     64. D(H  12,C   6,N   2,C   1)   -119.5757         0.019462   
     65. D(H  11,C   6,N   2,C   3)   -179.9109         0.019462   
     66. D(H  11,C   6,N   2,C   1)      0.1011         0.019462   
     67. D(H  10,C   6,N   2,C   3)    -60.2286         0.019462   
     68. D(H  10,C   6,N   2,C   1)    119.7834         0.019462   
    -----------------------------------------------------------------

Number of atoms                         .... 15
Number of degrees of freedom            .... 68

         *************************************************************
         *                GEOMETRY OPTIMIZATION CYCLE   1            *
         *************************************************************
---------------------------------
CARTESIAN COORDINATES (ANGSTROEM)
---------------------------------
  N     -1.063736   -0.124312   -0.000074
  C      0.000020   -0.966446   -0.000098
  N      1.063765   -0.124245   -0.000074
  C      0.676161    1.193007    0.000016
  C     -0.676193    1.193027    0.000006
  C     -2.428960   -0.561284    0.000090
  C      2.428939   -0.561276    0.000088
  H     -2.953912   -0.196358   -0.886743
  H     -2.952792   -0.199318    0.888818
  H     -2.436202   -1.649511   -0.001664
  H      2.953941   -0.196452   -0.886755
  H      2.436114   -1.649537   -0.001644
  H      2.952833   -0.199374    0.888801
  H      1.378030    2.002530    0.000026
  H     -1.378038    2.002553    0.000011

----------------------------
CARTESIAN COORDINATES (A.U.)
----------------------------
  NO LB      ZA    FRAG     MASS         X           Y           Z
   0 N     7.0000    0    14.007   -2.010169   -0.234915   -0.000140
   1 C     6.0000    0    12.011    0.000038   -1.826318   -0.000186
   2 N     7.0000    0    14.007    2.010225   -0.234789   -0.000140
   3 C     6.0000    0    12.011    1.277759    2.254456    0.000030
   4 C     6.0000    0    12.011   -1.277820    2.254495    0.000011
   5 C     6.0000    0    12.011   -4.590068   -1.060672    0.000171
   6 C     6.0000    0    12.011    4.590030   -1.060659    0.000165
   7 H     1.0000    0     1.008   -5.582085   -0.371063   -1.675701
   8 H     1.0000    0     1.008   -5.579969   -0.376656    1.679622
   9 H     1.0000    0     1.008   -4.603755   -3.117125   -0.003144
  10 H     1.0000    0     1.008    5.582139   -0.371241   -1.675725
  11 H     1.0000    0     1.008    4.603588   -3.117172   -0.003107
  12 H     1.0000    0     1.008    5.580045   -0.376763    1.679591
  13 H     1.0000    0     1.008    2.604099    3.784233    0.000049
  14 H     1.0000    0     1.008   -2.604114    3.784277    0.000020

--------------------------------
INTERNAL COORDINATES (ANGSTROEM)
--------------------------------
 N      0   0   0     0.000000000000     0.00000000     0.00000000
 C      1   0   0     1.356748304667     0.00000000     0.00000000
 N      2   1   0     1.356781748892   103.26292988     0.00000000
 C      3   2   1     1.373094659068   111.97311697     0.00000000
 C      4   3   2     1.352354030192   106.39752796     0.00000000
 C      1   2   3     1.433450844148   123.88420670   180.00852980
 C      3   2   1     1.433421011729   123.87885863   179.99163285
 H      6   1   2     1.093260861530   110.82226524   240.21320733
 H      6   1   2     1.093277781550   110.82411394   119.57635463
 H      6   1   2     1.088253082788   108.12976752   359.89749857
 H      7   3   2     1.093258199371   110.82531967   119.78341734
 H      7   3   2     1.088285048637   108.12907663     0.10112135
 H      7   3   2     1.093274704138   110.82699043   240.42429614
 H      4   3   2     1.071423199055   122.67755040   180.00136745
 H      5   4   3     1.071409252189   130.92558080   180.00332405

---------------------------
INTERNAL COORDINATES (A.U.)
---------------------------
 N      0   0   0     0.000000000000     0.00000000     0.00000000
 C      1   0   0     2.563882728482     0.00000000     0.00000000
 N      2   1   0     2.563945928909   103.26292988     0.00000000
 C      3   2   1     2.594772861588   111.97311697     0.00000000
 C      4   3   2     2.555578753168   106.39752796     0.00000000
 C      1   2   3     2.708829521879   123.88420670   180.00852980
 C      3   2   1     2.708773146776   123.87885863   179.99163285
 H      6   1   2     2.065963621226   110.82226524   240.21320733
 H      6   1   2     2.065995595431   110.82411394   119.57635463
 H      6   1   2     2.056500290864   108.12976752   359.89749857
 H      7   3   2     2.065958590475   110.82531967   119.78341734
 H      7   3   2     2.056560697565   108.12907663     0.10112135
 H      7   3   2     2.065989779964   110.82699043   240.42429614
 H      4   3   2     2.024696419744   122.67755040   180.00136745
 H      5   4   3     2.024670063987   130.92558080   180.00332405

---------------------
BASIS SET INFORMATION
---------------------
There are 3 groups of distinct atoms

 Group   1 Type N   : 7s4p1d contracted to 3s2p1d pattern {511/31/1}
 Group   2 Type C   : 7s4p1d contracted to 3s2p1d pattern {511/31/1}
 Group   3 Type H   : 4s1p contracted to 2s1p pattern {31/1}

Atom   0N    basis set group =>   1
Atom   1C    basis set group =>   2
Atom   2N    basis set group =>   1
Atom   3C    basis set group =>   2
Atom   4C    basis set group =>   2
Atom   5C    basis set group =>   2
Atom   6C    basis set group =>   2
Atom   7H    basis set group =>   3
Atom   8H    basis set group =>   3
Atom   9H    basis set group =>   3
Atom  10H    basis set group =>   3
Atom  11H    basis set group =>   3
Atom  12H    basis set group =>   3
Atom  13H    basis set group =>   3
Atom  14H    basis set group =>   3
---------------------------------
AUXILIARY/J BASIS SET INFORMATION
---------------------------------
There are 3 groups of distinct atoms

 Group   1 Type N   : 12s5p4d2f1g contracted to 6s4p3d1f1g pattern {711111/2111/211/2/1}
 Group   2 Type C   : 12s5p4d2f1g contracted to 6s4p3d1f1g pattern {711111/2111/211/2/1}
 Group   3 Type H   : 5s2p1d contracted to 3s1p1d pattern {311/2/1}

Atom   0N    basis set group =>   1
Atom   1C    basis set group =>   2
Atom   2N    basis set group =>   1
Atom   3C    basis set group =>   2
Atom   4C    basis set group =>   2
Atom   5C    basis set group =>   2
Atom   6C    basis set group =>   2
Atom   7H    basis set group =>   3
Atom   8H    basis set group =>   3
Atom   9H    basis set group =>   3
Atom  10H    basis set group =>   3
Atom  11H    basis set group =>   3
Atom  12H    basis set group =>   3
Atom  13H    basis set group =>   3
Atom  14H    basis set group =>   3
------------------------------------------------------------------------------
                           ORCA GTO INTEGRAL CALCULATION
                           -- RI-GTO INTEGRALS CHOSEN --
------------------------------------------------------------------------------
------------------------------------------------------------------------------
                   ___                                                        
                  /   \      - P O W E R E D   B Y -                         
                 /     \                                                     
                 |  |  |   _    _      __       _____    __    __             
                 |  |  |  | |  | |    /  \     |  _  \  |  |  /  |          
                  \  \/   | |  | |   /    \    | | | |  |  | /  /          
                 / \  \   | |__| |  /  /\  \   | |_| |  |  |/  /          
                |  |  |   |  __  | /  /__\  \  |    /   |      \           
                |  |  |   | |  | | |   __   |  |    \   |  |\   \          
                \     /   | |  | | |  |  |  |  | |\  \  |  | \   \       
                 \___/    |_|  |_| |__|  |__|  |_| \__\ |__|  \__/        
                                                                              
                      - O R C A' S   B I G   F R I E N D -                    
                                      &                                       
                       - I N T E G R A L  F E E D E R -                       
                                                                              
 v1 FN, 2020, v2 2021                                                         
------------------------------------------------------------------------------


Reading SHARK input file 1_deprot_aq_1.SHARKINP.tmp ... ok
----------------------
SHARK INTEGRAL PACKAGE
----------------------

Number of atoms                             ...     15
Number of basis functions                   ...    138
Number of shells                            ...     66
Maximum angular momentum                    ...      2
Integral batch strategy                     ... SHARK/LIBINT Hybrid
RI-J (if used) integral strategy            ... SPLIT-RIJ (Revised 2003 algorithm where possible)
Printlevel                                  ...      1
Contraction scheme used                     ... SEGMENTED contraction
Coulomb Range Separation                    ... NOT USED
Exchange Range Separation                   ... Long Range
   Mu parameter                             ...  0.300000
   Scaling (regular/separated)              ...  0.157706  0.842294
Finite Nucleus Model                        ... NOT USED
Auxiliary Coulomb fitting basis             ... AVAILABLE
   # of basis functions in Aux-J            ...    431
   # of shells in Aux-J                     ...    145
   Maximum angular momentum in Aux-J        ...      4
Auxiliary J/K fitting basis                 ... NOT available
Auxiliary Correlation fitting basis         ... NOT available
Auxiliary 'external' fitting basis          ... NOT available
Integral threshold                          ...     2.500000e-11
Primitive cut-off                           ...     2.500000e-12
Primitive pair pre-selection threshold      ...     2.500000e-12

Calculating pre-screening integrals         ... done (  0.0 sec) Dimension = 66
Organizing shell pair data                  ... done (  0.4 sec)
Shell pair information
Total number of shell pairs                 ...      2211
Shell pairs after pre-screening             ...      2095
Total number of primitive shell pairs       ...      7865
Primitive shell pairs kept                  ...      5660
          la=0 lb=0:    675 shell pairs
          la=1 lb=0:    766 shell pairs
          la=1 lb=1:    234 shell pairs
          la=2 lb=0:    245 shell pairs
          la=2 lb=1:    148 shell pairs
          la=2 lb=2:     27 shell pairs

Calculating one electron integrals          ... done (  0.0 sec)
Calculating RI/J V-Matrix + Cholesky decomp.... done (  0.0 sec)
Calculating Nuclear repulsion               ... done (  0.0 sec) ENN=    297.215852088534 Eh

SHARK setup successfully completed in   0.6 seconds

Maximum memory used throughout the entire GTOINT-calculation: 17.2 MB
-------------------------------------------------------------------------------
                                 ORCA SCF
-------------------------------------------------------------------------------

------------
SCF SETTINGS
------------
Hamiltonian:
 Density Functional     Method          .... DFT(GTOs)
 Exchange Functional    Exchange        .... WB97X
 Correlation Functional Correlation     .... WB97X
 Gradients option       PostSCFGGA      .... off
 Hybrid DFT is turned on
   Fraction HF Exchange ScalHFX         ....  0.157706
   Scaling of DF-GGA-X  ScalDFX         ....  0.000000
   Scaling of DF-GGA-C  ScalDFC         ....  1.000000
   Scaling of DF-LDA-C  ScalLDAC        ....  1.000000
   Perturbative correction              ....  0.000000
   Density functional embedding theory  .... OFF
 Long-range corrected/Screened/Range-Separated Hybrid DFT is turned on
   Amount of maximum screened exact exchange              ....  0.842294
   Range separation parameter mu (erf(mu*r12)/r12)        ....  0.300000
 RI-approximation to the Coulomb term is turned on
   Number of AuxJ basis functions       .... 431
   RIJ-COSX (HFX calculated with COS-X)).... on


General Settings:
 Integral files         IntName         .... 1_deprot_aq_1
 Hartree-Fock type      HFTyp           .... RHF
 Total Charge           Charge          ....    0
 Multiplicity           Mult            ....    1
 Number of Electrons    NEL             ....   52
 Basis Dimension        Dim             ....  138
 Nuclear Repulsion      ENuc            ....    297.2158520885 Eh

Convergence Acceleration:
 DIIS                   CNVDIIS         .... on
   Start iteration      DIISMaxIt       ....     0
   Startup error        DIISStart       ....  0.200000
   # of expansion vecs  DIISMaxEq       ....     5
   Bias factor          DIISBfac        ....   1.050
   Max. coefficient     DIISMaxC        ....  10.000
 Trust-Rad. Augm. Hess. CNVTRAH         .... auto
   Auto Start mean grad. ratio tolernc. ....  1.125000
   Auto Start start iteration           ....    20
   Auto Start num. interpolation iter.  ....    10
   Max. Number of Micro iterations      ....    16
   Max. Number of Macro iterations      .... Maxiter - #DIIS iter
   Number of Davidson start vectors     ....     2
   Converg. threshold I  (grad. norm)   ....   1.000e-05
   Converg. threshold II (energy diff.) ....   1.000e-08
   Grad. Scal. Fac. for Micro threshold ....   0.100
   Minimum threshold for Micro iter.    ....   0.010
   NR start threshold (gradient norm)   ....   0.001
   Initial trust radius                 ....   0.400
   Minimum AH scaling param. (alpha)    ....   1.000
   Maximum AH scaling param. (alpha)    .... 1000.000
   Orbital update algorithm             .... Taylor
   White noise on init. David. guess    .... on
   Maximum white noise                  ....   0.010
   Quad. conv. algorithm                .... NR
 SOSCF                  CNVSOSCF        .... on
   Start iteration      SOSCFMaxIt      ....   150
   Startup grad/error   SOSCFStart      ....  0.001000
 Level Shifting         CNVShift        .... on
   Level shift para.    LevelShift      ....    0.2500
   Turn off err/grad.   ShiftErr        ....    0.0000
 Zerner damping         CNVZerner       .... off
 Static damping         CNVDamp         .... on
   Fraction old density DampFac         ....    0.8500
   Max. Damping (<1)    DampMax         ....    0.9800
   Min. Damping (>=0)   DampMin         ....    0.0000
   Turn off err/grad.   DampErr         ....    0.0300
 Fernandez-Rico         CNVRico         .... off

SCF Procedure:
 Maximum # iterations   MaxIter         ....   125
 SCF integral mode      SCFMode         .... Direct
   Integral package                     .... SHARK and LIBINT hybrid scheme
 Reset frequency        DirectResetFreq ....    20
 Integral Threshold     Thresh          ....  2.500e-11 Eh
 Primitive CutOff       TCut            ....  2.500e-12 Eh

Convergence Tolerance:
 Convergence Check Mode ConvCheckMode   .... Total+1el-Energy
 Convergence forced     ConvForced      .... 0
 Energy Change          TolE            ....  1.000e-08 Eh
 1-El. energy change                    ....  1.000e-05 Eh
 Orbital Gradient       TolG            ....  1.000e-05
 Orbital Rotation angle TolX            ....  1.000e-05
 DIIS Error             TolErr          ....  5.000e-07


Diagonalization of the overlap matrix:
Smallest eigenvalue                        ... 1.506e-03
Time for diagonalization                   ...    0.004 sec
Threshold for overlap eigenvalues          ... 1.000e-08
Number of eigenvalues below threshold      ... 0
Time for construction of square roots      ...    0.002 sec
Total time needed                          ...    0.006 sec

Time for model grid setup =    0.160 sec

------------------------------
INITIAL GUESS: MODEL POTENTIAL
------------------------------
Loading Hartree-Fock densities                     ... done
Calculating cut-offs                               ... done
Initializing the effective Hamiltonian             ... done
Setting up the integral package (SHARK)            ... done
Starting the Coulomb interaction                   ... done (   0.1 sec)
Reading the grid                                   ... done
Mapping shells                                     ... done
Starting the XC term evaluation                    ... done (   0.2 sec)
  promolecular density results
     # of electrons  =     51.996744088
     EX              =    -41.050594667
     EC              =     -1.724035801
     EX+EC           =    -42.774630468
Transforming the Hamiltonian                       ... done (   0.0 sec)
Diagonalizing the Hamiltonian                      ... done (   0.0 sec)
Back transforming the eigenvectors                 ... done (   0.0 sec)
Now organizing SCF variables                       ... done
                      ------------------
                      INITIAL GUESS DONE (   0.5 sec)
                      ------------------
-------------------
DFT GRID GENERATION
-------------------

General Integration Accuracy     IntAcc      ... 4.388
Radial Grid Type                 RadialGrid  ... OptM3 with GC (2021)
Angular Grid (max. ang.)         AngularGrid ... 4 (Lebedev-302)
Angular grid pruning method      GridPruning ... 4 (adaptive)
Weight generation scheme         WeightScheme... Becke
Basis function cutoff            BFCut       ... 1.0000e-11
Integration weight cutoff        WCut        ... 1.0000e-14
Angular grids for H and He will be reduced by one unit
Partially contracted basis set               ... off
Rotationally invariant grid construction     ... off

Total number of grid points                  ...    68039
Total number of batches                      ...     1071
Average number of points per batch           ...       63
Average number of grid points per atom       ...     4536
Time for grid setup =    0.658 sec

--------------------
COSX GRID GENERATION
--------------------

GRIDX 1
-------
General Integration Accuracy     IntAcc      ... 3.816
Radial Grid Type                 RadialGrid  ... OptM3 with GC (2021)
Angular Grid (max. ang.)         AngularGrid ... 1 (Lebedev-50)
Angular grid pruning method      GridPruning ... 4 (adaptive)
Weight generation scheme         WeightScheme... Becke
Basis function cutoff            BFCut       ... 1.0000e-11
Integration weight cutoff        WCut        ... 1.0000e-14
Angular grids for H and He will be reduced by one unit
Partially contracted basis set               ... on
Rotationally invariant grid construction     ... off

Total number of grid points                  ...     8705
Total number of batches                      ...      144
Average number of points per batch           ...       60
Average number of grid points per atom       ...      580
UseSFitting                                  ... on

GRIDX 2
-------
General Integration Accuracy     IntAcc      ... 4.020
Radial Grid Type                 RadialGrid  ... OptM3 with GC (2021)
Angular Grid (max. ang.)         AngularGrid ... 2 (Lebedev-110)
Angular grid pruning method      GridPruning ... 4 (adaptive)
Weight generation scheme         WeightScheme... Becke
Basis function cutoff            BFCut       ... 1.0000e-11
Integration weight cutoff        WCut        ... 1.0000e-14
Angular grids for H and He will be reduced by one unit
Partially contracted basis set               ... on
Rotationally invariant grid construction     ... off

Total number of grid points                  ...    18785
Total number of batches                      ...      300
Average number of points per batch           ...       62
Average number of grid points per atom       ...     1252
UseSFitting                                  ... on

GRIDX 3
-------
General Integration Accuracy     IntAcc      ... 4.338
Radial Grid Type                 RadialGrid  ... OptM3 with GC (2021)
Angular Grid (max. ang.)         AngularGrid ... 3 (Lebedev-194)
Angular grid pruning method      GridPruning ... 4 (adaptive)
Weight generation scheme         WeightScheme... Becke
Basis function cutoff            BFCut       ... 1.0000e-11
Integration weight cutoff        WCut        ... 1.0000e-14
Angular grids for H and He will be reduced by one unit
Partially contracted basis set               ... on
Rotationally invariant grid construction     ... off

Total number of grid points                  ...    41199
Total number of batches                      ...      653
Average number of points per batch           ...       63
Average number of grid points per atom       ...     2747
UseSFitting                                  ... on

Time for X-Grid setup             =    0.801 sec


--------------------
CPCM SOLVATION MODEL
--------------------
CPCM parameters:
  Epsilon                                         ...      80.4000
  Refrac                                          ...       1.3300
  Rsolv                                           ...       1.3000
  Surface type                                    ... GAUSSIAN VDW
  Epsilon function type                           ...         CPCM
Radii:
 Radius for N  used is    3.5149 Bohr (=   1.8600 Ang.)
 Radius for C  used is    3.8550 Bohr (=   2.0400 Ang.)
 Radius for H  used is    2.4944 Bohr (=   1.3200 Ang.)
Calculating surface                               ...        done! (  0.0s)
GEPOL surface points                              ...          857
GEPOL Volume                                      ...     882.8748
GEPOL Surface-area                                ...     518.9584
Calculating surface distance matrix               ...        done! (  0.0s)
Performing Cholesky decomposition & store         ...        done! (  0.0s)
Overall time for CPCM initialization              ...                 0.0s
--------------
SCF ITERATIONS
--------------
ITER       Energy         Delta-E        Max-DP      RMS-DP      [F,P]     Damp
               ***  Starting incremental Fock matrix formation  ***
  0   -304.3929899068   0.000000000000 0.03782320  0.00086612  0.1197141 0.8500
  1   -304.4156279138  -0.022638006984 0.04040932  0.00083881  0.0980590 0.8500
                               ***Turning on DIIS***
  2   -304.4333759446  -0.017748030765 0.03558671  0.00069807  0.0769233 0.8500
  3   -304.4469306261  -0.013554681576 0.02894005  0.00051433  0.0597076 0.8500
  4   -304.4575729145  -0.010642288391 0.02383726  0.00039783  0.0481041 0.8500
  5   -304.4660570003  -0.008484085753 0.02008190  0.00032648  0.0399858 0.8500
  6   -304.4729886363  -0.006931636052 0.01711536  0.00027509  0.0337210 0.8500
  7   -304.4787366362  -0.005747999844 0.09832826  0.00157563  0.0286031 0.0000
                      *** Initiating the SOSCF procedure ***
                           *** Shutting down DIIS ***
                      *** Re-Reading the Fockian *** 
                      *** Removing any level shift *** 
ITER      Energy       Delta-E        Grad      Rot      Max-DP    RMS-DP
  8   -304.50951079  -0.0307741545  0.000630  0.000630  0.001873  0.000055
               *** Restarting incremental Fock matrix formation ***
  9   -304.50961075  -0.0000999546  0.000331  0.000724  0.001240  0.000036
 10   -304.50961400  -0.0000032547  0.000225  0.000855  0.001005  0.000027
 11   -304.50961458  -0.0000005826  0.000079  0.000101  0.000588  0.000009
 12   -304.50961477  -0.0000001924  0.000013  0.000024  0.000192  0.000002
 13   -304.50961478  -0.0000000082  0.000006  0.000023  0.000075  0.000001
                  ***Gradient check signals convergence***
              ***Rediagonalizing the Fockian in SOSCF/NRSCF***

               *****************************************************
               *                     SUCCESS                       *
               *           SCF CONVERGED AFTER  14 CYCLES          *
               *****************************************************

Old exchange energy                            =    -13.467945365 Eh
New exchange energy                            =    -13.467998974 Eh
Exchange energy change after final integration =     -0.000053609 Eh
Total energy after final integration           =   -304.509668393 Eh
Final COS-X integration done in                =    15.656 sec

----------------
TOTAL SCF ENERGY
----------------

Total Energy       :         -304.50966839 Eh           -8286.12934 eV

Components:
Nuclear Repulsion  :          297.21585209 Eh            8087.65450 eV
Electronic Energy  :         -601.72552048 Eh          -16373.78384 eV
One Electron Energy:         -998.80956721 Eh          -27178.99008 eV
Two Electron Energy:          397.08404673 Eh           10805.20624 eV
Max COSX asymmetry :            0.00000269 Eh               0.00007 eV
CPCM Dielectric    :           -0.01559393 Eh              -0.42433 eV

Virial components:
Potential Energy   :         -605.80408531 Eh          -16484.76723 eV
Kinetic Energy     :          301.29441692 Eh            8198.63789 eV
Virial Ratio       :            2.01067146


DFT components:
N(Alpha)           :       26.000019051741 electrons
N(Beta)            :       26.000019051741 electrons
N(Total)           :       52.000038103481 electrons
E(XC)              :      -30.384214137967 Eh       
DFET-embed. en.    :        0.000000000000 Eh       
CPCM Solvation Model Properties:
Surface-charge          :           -0.01841262
Charge-correction       :           -0.00035618 Eh              -0.00969 eV
Free-energy (cav+disp)  :  This term is not implemented in the current solvation scheme

---------------
SCF CONVERGENCE
---------------

  Last Energy change         ...   -2.3243e-10  Tolerance :   1.0000e-08
  Last MAX-Density change    ...    2.2204e-15  Tolerance :   1.0000e-07
  Last RMS-Density change    ...    3.9400e-17  Tolerance :   5.0000e-09
  Last Orbital Gradient      ...    1.0218e-06  Tolerance :   1.0000e-05
  Last Orbital Rotation      ...    1.1502e-06  Tolerance :   1.0000e-05

             **** THE GBW FILE WAS UPDATED (1_deprot_aq_1.gbw) ****
             **** DENSITY 1_deprot_aq_1.scfp WAS UPDATED ****
             **** ENERGY FILE WAS UPDATED (1_deprot_aq_1.en.tmp) ****
             **** THE GBW FILE WAS UPDATED (1_deprot_aq_1.gbw) ****
             **** DENSITY 1_deprot_aq_1.scfp WAS UPDATED ****
----------------
ORBITAL ENERGIES
----------------

  NO   OCC          E(Eh)            E(eV) 
   0   2.0000     -14.449857      -393.2006 
   1   2.0000     -14.449853      -393.2005 
   2   2.0000     -10.296871      -280.1921 
   3   2.0000     -10.296839      -280.1912 
   4   2.0000     -10.291259      -280.0394 
   5   2.0000     -10.290662      -280.0232 
   6   2.0000     -10.274661      -279.5877 
   7   2.0000      -1.153521       -31.3889 
   8   2.0000      -1.041846       -28.3501 
   9   2.0000      -0.898583       -24.4517 
  10   2.0000      -0.847300       -23.0562 
  11   2.0000      -0.801577       -21.8120 
  12   2.0000      -0.713905       -19.4263 
  13   2.0000      -0.682535       -18.5727 
  14   2.0000      -0.635813       -17.3013 
  15   2.0000      -0.593652       -16.1541 
  16   2.0000      -0.562178       -15.2976 
  17   2.0000      -0.551935       -15.0189 
  18   2.0000      -0.543604       -14.7922 
  19   2.0000      -0.540612       -14.7108 
  20   2.0000      -0.493429       -13.4269 
  21   2.0000      -0.483464       -13.1557 
  22   2.0000      -0.482914       -13.1408 
  23   2.0000      -0.372420       -10.1341 
  24   2.0000      -0.324902        -8.8410 
  25   2.0000      -0.323793        -8.8109 
  26   0.0000       0.121313         3.3011 
  27   0.0000       0.132551         3.6069 
  28   0.0000       0.172558         4.6956 
  29   0.0000       0.174299         4.7429 
  30   0.0000       0.206537         5.6202 
  31   0.0000       0.223761         6.0888 
  32   0.0000       0.224347         6.1048 
  33   0.0000       0.238262         6.4834 
  34   0.0000       0.245175         6.6716 
  35   0.0000       0.256739         6.9862 
  36   0.0000       0.258710         7.0399 
  37   0.0000       0.283770         7.7218 
  38   0.0000       0.333252         9.0683 
  39   0.0000       0.352314         9.5870 
  40   0.0000       0.360186         9.8012 
  41   0.0000       0.439970        11.9722 
  42   0.0000       0.475466        12.9381 
  43   0.0000       0.476852        12.9758 
  44   0.0000       0.491674        13.3791 
  45   0.0000       0.495620        13.4865 
  46   0.0000       0.553734        15.0679 
  47   0.0000       0.557693        15.1756 
  48   0.0000       0.579190        15.7606 
  49   0.0000       0.607425        16.5289 
  50   0.0000       0.623093        16.9552 
  51   0.0000       0.623642        16.9702 
  52   0.0000       0.687851        18.7174 
  53   0.0000       0.691653        18.8208 
  54   0.0000       0.703308        19.1380 
  55   0.0000       0.717715        19.5300 
  56   0.0000       0.733642        19.9634 
  57   0.0000       0.759445        20.6655 
  58   0.0000       0.764054        20.7910 
  59   0.0000       0.767169        20.8757 
  60   0.0000       0.774796        21.0833 
  61   0.0000       0.781056        21.2536 
  62   0.0000       0.794115        21.6090 
  63   0.0000       0.794436        21.6177 
  64   0.0000       0.798248        21.7214 
  65   0.0000       0.828269        22.5383 
  66   0.0000       0.836384        22.7592 
  67   0.0000       0.906267        24.6608 
  68   0.0000       0.960021        26.1235 
  69   0.0000       1.004400        27.3311 
  70   0.0000       1.018223        27.7073 
  71   0.0000       1.046763        28.4839 
  72   0.0000       1.059941        28.8425 
  73   0.0000       1.087849        29.6019 
  74   0.0000       1.236588        33.6493 
  75   0.0000       1.250572        34.0298 
  76   0.0000       1.255560        34.1655 
  77   0.0000       1.304642        35.5011 
  78   0.0000       1.340638        36.4806 
  79   0.0000       1.346410        36.6377 
  80   0.0000       1.361288        37.0425 
  81   0.0000       1.477194        40.1965 
  82   0.0000       1.575806        42.8799 
  83   0.0000       1.577655        42.9302 
  84   0.0000       1.599358        43.5207 
  85   0.0000       1.640869        44.6503 
  86   0.0000       1.641978        44.6805 
  87   0.0000       1.664561        45.2950 
  88   0.0000       1.733973        47.1838 
  89   0.0000       1.736555        47.2541 
  90   0.0000       1.747979        47.5649 
  91   0.0000       1.873430        50.9786 
  92   0.0000       1.875384        51.0318 
  93   0.0000       1.889919        51.4273 
  94   0.0000       1.895707        51.5848 
  95   0.0000       1.903439        51.7952 
  96   0.0000       1.927017        52.4368 
  97   0.0000       1.931292        52.5531 
  98   0.0000       1.936979        52.7079 
  99   0.0000       1.996342        54.3232 
 100   0.0000       2.024083        55.0781 
 101   0.0000       2.040465        55.5239 
 102   0.0000       2.048255        55.7359 
 103   0.0000       2.122584        57.7585 
 104   0.0000       2.130928        57.9855 
 105   0.0000       2.162985        58.8578 
 106   0.0000       2.185461        59.4694 
 107   0.0000       2.200963        59.8912 
 108   0.0000       2.234608        60.8068 
 109   0.0000       2.290656        62.3319 
 110   0.0000       2.346936        63.8634 
 111   0.0000       2.358851        64.1876 
 112   0.0000       2.405022        65.4440 
 113   0.0000       2.434220        66.2385 
 114   0.0000       2.442858        66.4735 
 115   0.0000       2.460548        66.9549 
 116   0.0000       2.520709        68.5920 
 117   0.0000       2.567381        69.8620 
 118   0.0000       2.604373        70.8686 
 119   0.0000       2.611173        71.0536 
 120   0.0000       2.726993        74.2053 
 121   0.0000       2.751237        74.8650 
 122   0.0000       2.806424        76.3667 
 123   0.0000       2.859966        77.8236 
 124   0.0000       2.872582        78.1669 
 125   0.0000       2.887142        78.5631 
 126   0.0000       2.921430        79.4962 
 127   0.0000       2.964074        80.6566 
 128   0.0000       2.964648        80.6722 
 129   0.0000       3.030936        82.4760 
 130   0.0000       3.053455        83.0887 
 131   0.0000       3.065709        83.4222 
 132   0.0000       3.078870        83.7803 
 133   0.0000       3.130269        85.1789 
 134   0.0000       3.287341        89.4531 
 135   0.0000       3.436412        93.5095 
 136   0.0000       3.447847        93.8207 
 137   0.0000       3.686090       100.3036 

                    ********************************
                    * MULLIKEN POPULATION ANALYSIS *
                    ********************************

-----------------------
MULLIKEN ATOMIC CHARGES
-----------------------
   0 N :   -0.225658
   1 C :   -0.228668
   2 N :   -0.225641
   3 C :    0.026390
   4 C :    0.026380
   5 C :    0.102438
   6 C :    0.102421
   7 H :    0.056435
   8 H :    0.056439
   9 H :    0.046474
  10 H :    0.056431
  11 H :    0.046477
  12 H :    0.056435
  13 H :    0.051825
  14 H :    0.051824
Sum of atomic charges:   -0.0000000

--------------------------------
MULLIKEN REDUCED ORBITAL CHARGES
--------------------------------
  0 N s       :     3.390332  s :     3.390332
      pz      :     1.514834  p :     3.801740
      px      :     1.166316
      py      :     1.120590
      dz2     :     0.002238  d :     0.033586
      dxz     :     0.004640
      dyz     :     0.005725
      dx2y2   :     0.011655
      dxy     :     0.009330
  1 C s       :     3.621309  s :     3.621309
      pz      :     0.718141  p :     2.541711
      px      :     0.661566
      py      :     1.162003
      dz2     :     0.007701  d :     0.065648
      dxz     :     0.011904
      dyz     :     0.009624
      dx2y2   :     0.007996
      dxy     :     0.028423
  2 N s       :     3.390310  s :     3.390310
      pz      :     1.514846  p :     3.801744
      px      :     1.166317
      py      :     1.120581
      dz2     :     0.002238  d :     0.033587
      dxz     :     0.004639
      dyz     :     0.005725
      dx2y2   :     0.011655
      dxy     :     0.009331
  3 C s       :     3.142909  s :     3.142909
      pz      :     1.076594  p :     2.782238
      px      :     0.903328
      py      :     0.802316
      dz2     :     0.003948  d :     0.048463
      dxz     :     0.007926
      dyz     :     0.008013
      dx2y2   :     0.015463
      dxy     :     0.013113
  4 C s       :     3.142922  s :     3.142922
      pz      :     1.076652  p :     2.782241
      px      :     0.903320
      py      :     0.802269
      dz2     :     0.003948  d :     0.048457
      dxz     :     0.007925
      dyz     :     0.008011
      dx2y2   :     0.015462
      dxy     :     0.013110
  5 C s       :     2.984213  s :     2.984213
      pz      :     1.045229  p :     2.873857
      px      :     0.799581
      py      :     1.029047
      dz2     :     0.006999  d :     0.039492
      dxz     :     0.011524
      dyz     :     0.002913
      dx2y2   :     0.011511
      dxy     :     0.006545
  6 C s       :     2.984213  s :     2.984213
      pz      :     1.045226  p :     2.873872
      px      :     0.799602
      py      :     1.029044
      dz2     :     0.006999  d :     0.039494
      dxz     :     0.011527
      dyz     :     0.002912
      dx2y2   :     0.011510
      dxy     :     0.006546
  7 H s       :     0.920107  s :     0.920107
      pz      :     0.012214  p :     0.023459
      px      :     0.005430
      py      :     0.005815
  8 H s       :     0.920103  s :     0.920103
      pz      :     0.012243  p :     0.023458
      px      :     0.005417
      py      :     0.005798
  9 H s       :     0.929938  s :     0.929938
      pz      :     0.004907  p :     0.023588
      px      :     0.002625
      py      :     0.016056
 10 H s       :     0.920110  s :     0.920110
      pz      :     0.012214  p :     0.023459
      px      :     0.005430
      py      :     0.005814
 11 H s       :     0.929936  s :     0.929936
      pz      :     0.004907  p :     0.023587
      px      :     0.002625
      py      :     0.016055
 12 H s       :     0.920107  s :     0.920107
      pz      :     0.012242  p :     0.023458
      px      :     0.005418
      py      :     0.005797
 13 H s       :     0.923369  s :     0.923369
      pz      :     0.005353  p :     0.024806
      px      :     0.008655
      py      :     0.010799
 14 H s       :     0.923369  s :     0.923369
      pz      :     0.005353  p :     0.024807
      px      :     0.008655
      py      :     0.010799


                     *******************************
                     * LOEWDIN POPULATION ANALYSIS *
                     *******************************

----------------------
LOEWDIN ATOMIC CHARGES
----------------------
   0 N :    0.028767
   1 C :   -0.327389
   2 N :    0.028769
   3 C :   -0.031743
   4 C :   -0.031757
   5 C :    0.030760
   6 C :    0.030746
   7 H :    0.033298
   8 H :    0.033284
   9 H :    0.033140
  10 H :    0.033294
  11 H :    0.033147
  12 H :    0.033280
  13 H :    0.036203
  14 H :    0.036201

-------------------------------
LOEWDIN REDUCED ORBITAL CHARGES
-------------------------------
  0 N s       :     3.057212  s :     3.057212
      pz      :     1.440187  p :     3.836213
      px      :     1.194393
      py      :     1.201633
      dz2     :     0.004166  d :     0.077808
      dxz     :     0.007633
      dyz     :     0.011228
      dx2y2   :     0.029090
      dxy     :     0.025690
  1 C s       :     3.206018  s :     3.206018
      pz      :     0.768713  p :     2.979604
      px      :     0.822246
      py      :     1.388644
      dz2     :     0.017499  d :     0.141767
      dxz     :     0.026260
      dyz     :     0.013302
      dx2y2   :     0.018520
      dxy     :     0.066187
  2 N s       :     3.057192  s :     3.057192
      pz      :     1.440196  p :     3.836227
      px      :     1.194391
      py      :     1.201641
      dz2     :     0.004166  d :     0.077812
      dxz     :     0.007633
      dyz     :     0.011230
      dx2y2   :     0.029089
      dxy     :     0.025694
  3 C s       :     2.853202  s :     2.853202
      pz      :     1.062442  p :     3.057413
      px      :     1.053714
      py      :     0.941257
      dz2     :     0.008614  d :     0.121128
      dxz     :     0.015969
      dyz     :     0.015987
      dx2y2   :     0.044365
      dxy     :     0.036192
  4 C s       :     2.853215  s :     2.853215
      pz      :     1.062495  p :     3.057432
      px      :     1.053708
      py      :     0.941229
      dz2     :     0.008614  d :     0.121111
      dxz     :     0.015966
      dyz     :     0.015982
      dx2y2   :     0.044363
      dxy     :     0.036186
  5 C s       :     2.823257  s :     2.823257
      pz      :     1.085627  p :     3.047168
      px      :     0.894372
      py      :     1.067169
      dz2     :     0.017621  d :     0.098816
      dxz     :     0.029888
      dyz     :     0.006613
      dx2y2   :     0.029537
      dxy     :     0.015158
  6 C s       :     2.823254  s :     2.823254
      pz      :     1.085627  p :     3.047179
      px      :     0.894394
      py      :     1.067159
      dz2     :     0.017621  d :     0.098821
      dxz     :     0.029894
      dyz     :     0.006610
      dx2y2   :     0.029536
      dxy     :     0.015161
  7 H s       :     0.901184  s :     0.901184
      pz      :     0.032826  p :     0.065518
      px      :     0.016924
      py      :     0.015769
  8 H s       :     0.901201  s :     0.901201
      pz      :     0.032906  p :     0.065515
      px      :     0.016891
      py      :     0.015718
  9 H s       :     0.900105  s :     0.900105
      pz      :     0.013161  p :     0.066755
      px      :     0.009001
      py      :     0.044593
 10 H s       :     0.901187  s :     0.901187
      pz      :     0.032826  p :     0.065519
      px      :     0.016925
      py      :     0.015768
 11 H s       :     0.900103  s :     0.900103
      pz      :     0.013160  p :     0.066750
      px      :     0.009000
      py      :     0.044591
 12 H s       :     0.901204  s :     0.901204
      pz      :     0.032905  p :     0.065516
      px      :     0.016894
      py      :     0.015717
 13 H s       :     0.889564  s :     0.889564
      pz      :     0.017602  p :     0.074233
      px      :     0.024855
      py      :     0.031775
 14 H s       :     0.889562  s :     0.889562
      pz      :     0.017605  p :     0.074237
      px      :     0.024855
      py      :     0.031777


                      *****************************
                      * MAYER POPULATION ANALYSIS *
                      *****************************

  NA   - Mulliken gross atomic population
  ZA   - Total nuclear charge
  QA   - Mulliken gross atomic charge
  VA   - Mayer's total valence
  BVA  - Mayer's bonded valence
  FA   - Mayer's free valence

  ATOM       NA         ZA         QA         VA         BVA        FA
  0 N      7.2257     7.0000    -0.2257     3.4014     3.4014    -0.0000
  1 C      6.2287     6.0000    -0.2287     2.7055     2.7055     0.0000
  2 N      7.2256     7.0000    -0.2256     3.4014     3.4014    -0.0000
  3 C      5.9736     6.0000     0.0264     3.8459     3.8459    -0.0000
  4 C      5.9736     6.0000     0.0264     3.8458     3.8458     0.0000
  5 C      5.8976     6.0000     0.1024     3.8890     3.8890    -0.0000
  6 C      5.8976     6.0000     0.1024     3.8890     3.8890     0.0000
  7 H      0.9436     1.0000     0.0564     0.9926     0.9926    -0.0000
  8 H      0.9436     1.0000     0.0564     0.9926     0.9926    -0.0000
  9 H      0.9535     1.0000     0.0465     1.0207     1.0207    -0.0000
 10 H      0.9436     1.0000     0.0564     0.9926     0.9926    -0.0000
 11 H      0.9535     1.0000     0.0465     1.0207     1.0207    -0.0000
 12 H      0.9436     1.0000     0.0564     0.9926     0.9926     0.0000
 13 H      0.9482     1.0000     0.0518     1.0002     1.0002     0.0000
 14 H      0.9482     1.0000     0.0518     1.0002     1.0002    -0.0000

  Mayer bond orders larger than 0.100000
B(  0-N ,  1-C ) :   1.2466 B(  0-N ,  4-C ) :   1.1420 B(  0-N ,  5-C ) :   0.9507 
B(  1-C ,  2-N ) :   1.2465 B(  2-N ,  3-C ) :   1.1421 B(  2-N ,  6-C ) :   0.9508 
B(  3-C ,  4-C ) :   1.6192 B(  3-C , 13-H ) :   0.9962 B(  4-C , 14-H ) :   0.9962 
B(  5-C ,  7-H ) :   0.9784 B(  5-C ,  8-H ) :   0.9784 B(  5-C ,  9-H ) :   0.9719 
B(  6-C , 10-H ) :   0.9784 B(  6-C , 11-H ) :   0.9719 B(  6-C , 12-H ) :   0.9784 


-------
TIMINGS
-------

Total SCF time: 0 days 0 hours 1 min 49 sec 

Total time                  ....     109.998 sec
Sum of individual times     ....     109.690 sec  ( 99.7%)

Fock matrix formation       ....     107.667 sec  ( 97.9%)
  Split-RI-J                ....       3.791 sec  (  3.5% of F)
  Chain of spheres X        ....      84.453 sec  ( 78.4% of F)
  XC integration            ....      13.154 sec  ( 12.2% of F)
    Basis function eval.    ....       4.662 sec  ( 35.4% of XC)
    Density eval.           ....       2.604 sec  ( 19.8% of XC)
    XC-Functional eval.     ....       2.377 sec  ( 18.1% of XC)
    XC-Potential eval.      ....       3.086 sec  ( 23.5% of XC)
Diagonalization             ....       0.032 sec  (  0.0%)
Density matrix formation    ....       0.004 sec  (  0.0%)
Population analysis         ....       0.006 sec  (  0.0%)
Initial guess               ....       0.337 sec  (  0.3%)
Orbital Transformation      ....       0.000 sec  (  0.0%)
Orbital Orthonormalization  ....       0.000 sec  (  0.0%)
DIIS solution               ....       0.010 sec  (  0.0%)
SOSCF solution              ....       0.015 sec  (  0.0%)
Grid generation             ....       1.620 sec  (  1.5%)

Maximum memory used throughout the entire SCF-calculation: 63.6 MB


-------------------------------------------------------------------------------
                          DFT DISPERSION CORRECTION                            
                                                                               
                                 DFTD4 V2.5                                    
-------------------------------------------------------------------------------
The WB97X functional is recognized
Active option DFTDOPT                   ...         5   

Starting D4
-------------------------   ----------------
Dispersion correction           -0.001732883
-------------------------   ----------------


-------------------------   --------------------
FINAL SINGLE POINT ENERGY      -304.511401275686
-------------------------   --------------------

------------------------------------------------------------------------------
                         ORCA SCF GRADIENT CALCULATION
------------------------------------------------------------------------------

 ... reading COSX grid (gridx3)
Gradient of the Kohn-Sham DFT energy:
Kohn-Sham wavefunction type      ... RKS
Hartree-Fock exchange scaling    ...    0.158
Number of operators              ...    1
Number of atoms                  ...   15
Basis set dimensions             ...  138
Integral neglect threshold       ... 2.5e-11
Integral primitive cutoff        ... 2.5e-12
SHARK Integral package           ... ON

Nuc. rep. gradient       (SHARK) ... done (  0.0 sec)
HCore & Overlap gradient (SHARK) ... done (  0.1 sec)
RI-J gradient            (SHARK) ... done (  0.9 sec)
COSX-gradient                    ... done ( 16.9 sec)
Exchange-correlation gradient    ... done
Dispersion correction            ... Starting D4


------------------- 
Dispersion Gradient 
------------------- 
   1  :   -0.000011593    0.000000919   -0.000000002
   2  :    0.000000001   -0.000004611   -0.000000001
   3  :    0.000011594    0.000000919   -0.000000002
   4  :    0.000009762    0.000014414   -0.000000000
   5  :   -0.000009764    0.000014416   -0.000000000
   6  :   -0.000040271   -0.000009520    0.000000003
   7  :    0.000040270   -0.000009522    0.000000003
   8  :   -0.000005966   -0.000002338    0.000000751
   9  :   -0.000005968   -0.000002336   -0.000000753
  10  :   -0.000007060   -0.000001129    0.000000001
  11  :    0.000005966   -0.000002338    0.000000751
  12  :    0.000007060   -0.000001128    0.000000001
  13  :    0.000005968   -0.000002335   -0.000000753
  14  :    0.000002629    0.000002294    0.000000000
  15  :   -0.000002629    0.000002294   -0.000000000

  |G| =    0.000067923

done

------------------
CARTESIAN GRADIENT
------------------

   1   N   :   -0.010605453    0.003156347    0.000003963
   2   C   :   -0.000005113    0.009603308    0.000004520
   3   N   :    0.010635699    0.003218403    0.000002357
   4   C   :    0.004710398   -0.000822852   -0.000000957
   5   C   :   -0.004725445   -0.000756966   -0.000003737
   6   C   :    0.006084300    0.000156898   -0.000017413
   7   C   :   -0.006108207    0.000185451   -0.000017382
   8   H   :    0.002492961   -0.001373952    0.004002628
   9   H   :    0.002492521   -0.001361582   -0.004002614
  10   H   :    0.000768253    0.005748629    0.000011791
  11   H   :   -0.002492190   -0.001378321    0.004004812
  12   H   :   -0.000765651    0.005726018    0.000011614
  13   H   :   -0.002492023   -0.001366072   -0.004004847
  14   H   :   -0.008483157   -0.010436129    0.000000317
  15   H   :    0.008493129   -0.010439335    0.000000237

Difference to translation invariance:
           :    0.0000000211   -0.0001401530   -0.0000047111

Difference to rotation invariance:
           :   -0.0000011725    0.0000000271    0.0000010309

Norm of the cartesian gradient     ...    0.0313651119
RMS gradient                       ...    0.0046756348
MAX gradient                       ...    0.0106356991

-------
TIMINGS
-------

Total SCF gradient time            ...       23.048 sec

One electron gradient       ....       0.148 sec  (  0.6%)
RI-J Coulomb gradient       ....       0.917 sec  (  4.0%)
COSX gradient               ....      16.894 sec  ( 73.3%)
XC gradient                 ....       3.979 sec  ( 17.3%)
CPCM gradient               ....       0.366 sec  (  1.6%)
   A-Matrix (El+Nuc)        ....       0.038 sec  (  0.2%)
   Potential                ....       0.328 sec  (  1.4%)

Maximum memory used throughout the entire SCFGRAD-calculation: 50.9 MB
------------------------------------------------------------------------------
                         ORCA GEOMETRY RELAXATION STEP
------------------------------------------------------------------------------

Reading the OPT-File                    .... done
Getting information on internals        .... done
Copying old internal coords+grads       .... done
Making the new internal coordinates     .... (new redundants).... done
Validating the new internal coordinates .... (new redundants).... done
Calculating the B-matrix                .... done
Calculating the G,G- and P matrices     .... done
Transforming gradient to internals      .... done
Projecting the internal gradient        .... done
Number of atoms                         ....  15
Number of internal coordinates          ....  68
Current Energy                          ....  -304.511401276 Eh
Current gradient norm                   ....     0.031365112 Eh/bohr
Maximum allowed component of the step   ....  0.300
Current trust radius                    ....  0.300
Evaluating the initial hessian          ....  (Almloef) done
Projecting the Hessian                  .... done
Forming the augmented Hessian           .... done
Diagonalizing the augmented Hessian     .... done
Last element of RFO vector              ....  0.996987130
Lowest eigenvalues of augmented Hessian:
 -0.002606964  0.019457734  0.019462115  0.023714321  0.024722553
Length of the computed step             ....  0.077801549
The final length of the internal step   ....  0.077801549
Converting the step to cartesian space:
 Initial RMS(Int)=    0.0094348237
Transforming coordinates:
 Iter   0:  RMS(Cart)=    0.0179740672 RMS(Int)=    0.0094361949
 Iter   1:  RMS(Cart)=    0.0000421805 RMS(Int)=    0.0000155555
 Iter   2:  RMS(Cart)=    0.0000004186 RMS(Int)=    0.0000001559
 Iter   3:  RMS(Cart)=    0.0000000034 RMS(Int)=    0.0000000013
done
Storing new coordinates                 .... done

                                .--------------------.
          ----------------------|Geometry convergence|-------------------------
          Item                value                   Tolerance       Converged
          ---------------------------------------------------------------------
          RMS gradient        0.0041303935            0.0001000000      NO
          MAX gradient        0.0134441665            0.0003000000      NO
          RMS step            0.0094348237            0.0020000000      NO
          MAX step            0.0346356826            0.0040000000      NO
          ........................................................
          Max(Bonds)      0.0183      Max(Angles)    0.47
          Max(Dihed)        0.01      Max(Improp)    0.00
          ---------------------------------------------------------------------

The optimization has not yet converged - more geometry cycles are needed


    ---------------------------------------------------------------------------
                         Redundant Internal Coordinates
                            (Angstroem and degrees)

        Definition                    Value    dE/dq     Step     New-Value
    ----------------------------------------------------------------------------
     1. B(C   1,N   0)                1.3567 -0.004208  0.0034    1.3602   
     2. B(N   2,C   1)                1.3568 -0.004195  0.0034    1.3602   
     3. B(C   3,N   2)                1.3731 -0.010682  0.0095    1.3826   
     4. B(C   4,C   3)                1.3524 -0.003444  0.0026    1.3550   
     5. B(C   4,N   0)                1.3732 -0.010641  0.0094    1.3826   
     6. B(C   5,N   0)                1.4335 -0.012252  0.0135    1.4470   
     7. B(C   6,N   2)                1.4334 -0.012270  0.0135    1.4470   
     8. B(H   7,C   5)                1.0933 -0.004900  0.0072    1.1005   
     9. B(H   8,C   5)                1.0933 -0.004895  0.0072    1.1005   
    10. B(H   9,C   5)                1.0883 -0.005763  0.0084    1.0966   
    11. B(H  10,C   6)                1.0933 -0.004903  0.0072    1.1005   
    12. B(H  11,C   6)                1.0883 -0.005740  0.0083    1.0966   
    13. B(H  12,C   6)                1.0933 -0.004899  0.0072    1.1005   
    14. B(H  13,C   3)                1.0714 -0.013435  0.0183    1.0897   
    15. B(H  14,C   4)                1.0714 -0.013444  0.0183    1.0897   
    16. A(C   1,N   0,C   5)          123.88  0.000527   -0.06    123.82   
    17. A(C   4,N   0,C   5)          124.14  0.002797   -0.38    123.76   
    18. A(C   1,N   0,C   4)          111.97 -0.003324    0.44    112.42   
    19. A(N   0,C   1,N   2)          103.26  0.003349   -0.47    102.79   
    20. A(C   1,N   2,C   3)          111.97 -0.003321    0.44    112.42   
    21. A(C   1,N   2,C   6)          123.88  0.000509   -0.06    123.82   
    22. A(C   3,N   2,C   6)          124.15  0.002811   -0.38    123.76   
    23. A(C   4,C   3,H  13)          130.92 -0.000403    0.04    130.96   
    24. A(N   2,C   3,C   4)          106.40  0.001658   -0.21    106.19   
    25. A(N   2,C   3,H  13)          122.68 -0.001255    0.17    122.85   
    26. A(N   0,C   4,H  14)          122.68 -0.001239    0.17    122.85   
    27. A(N   0,C   4,C   3)          106.39  0.001638   -0.21    106.19   
    28. A(C   3,C   4,H  14)          130.93 -0.000399    0.03    130.96   
    29. A(H   8,C   5,H   9)          109.22  0.000557   -0.10    109.12   
    30. A(H   7,C   5,H   9)          109.23  0.000559   -0.11    109.12   
    31. A(N   0,C   5,H   9)          108.13 -0.000932    0.16    108.29   
    32. A(H   7,C   5,H   8)          108.59  0.000130   -0.02    108.58   
    33. A(N   0,C   5,H   8)          110.82 -0.000151    0.03    110.86   
    34. A(N   0,C   5,H   7)          110.82 -0.000138    0.03    110.85   
    35. A(H  11,C   6,H  12)          109.22  0.000553   -0.10    109.11   
    36. A(H  10,C   6,H  12)          108.59  0.000128   -0.02    108.58   
    37. A(N   2,C   6,H  12)          110.83 -0.000147    0.03    110.86   
    38. A(H  10,C   6,H  11)          109.22  0.000555   -0.11    109.12   
    39. A(N   2,C   6,H  11)          108.13 -0.000932    0.16    108.29   
    40. A(N   2,C   6,H  10)          110.83 -0.000133    0.03    110.85   
    41. D(N   2,C   1,N   0,C   5)   -179.99  0.000001   -0.00   -179.99   
    42. D(N   2,C   1,N   0,C   4)     -0.00  0.000000   -0.00     -0.00   
    43. D(C   3,N   2,C   1,N   0)      0.00 -0.000000   -0.00      0.00   
    44. D(C   6,N   2,C   1,N   0)    179.99 -0.000001    0.00    179.99   
    45. D(H  13,C   3,N   2,C   1)   -180.00 -0.000001    0.00   -180.00   
    46. D(C   4,C   3,N   2,C   6)   -179.99  0.000001   -0.00   -179.99   
    47. D(H  13,C   3,N   2,C   6)      0.01  0.000000   -0.00      0.01   
    48. D(C   4,C   3,N   2,C   1)     -0.00 -0.000000    0.00     -0.00   
    49. D(N   0,C   4,C   3,H  13)    180.00  0.000001   -0.00    180.00   
    50. D(N   0,C   4,C   3,N   2)      0.00  0.000001   -0.00     -0.00   
    51. D(H  14,C   4,N   0,C   5)     -0.01 -0.000000    0.00     -0.01   
    52. D(C   3,C   4,N   0,C   5)    179.99 -0.000002    0.00    179.99   
    53. D(H  14,C   4,N   0,C   1)    180.00  0.000001   -0.00    180.00   
    54. D(H  14,C   4,C   3,N   2)   -180.00 -0.000001    0.00   -180.00   
    55. D(H  14,C   4,C   3,H  13)     -0.00 -0.000000    0.00      0.00   
    56. D(C   3,C   4,N   0,C   1)      0.00 -0.000001    0.00      0.00   
    57. D(H   9,C   5,N   0,C   4)    179.91  0.000003   -0.00    179.91   
    58. D(H   9,C   5,N   0,C   1)     -0.10  0.000002    0.00     -0.10   
    59. D(H   8,C   5,N   0,C   4)    -60.41  0.000013   -0.01    -60.42   
    60. D(H   8,C   5,N   0,C   1)    119.58  0.000011   -0.01    119.57   
    61. D(H   7,C   5,N   0,C   4)     60.22 -0.000017    0.01     60.24   
    62. D(H   7,C   5,N   0,C   1)   -119.79 -0.000018    0.01   -119.77   
    63. D(H  12,C   6,N   2,C   3)     60.41 -0.000011    0.01     60.42   
    64. D(H  12,C   6,N   2,C   1)   -119.58 -0.000009    0.00   -119.57   
    65. D(H  11,C   6,N   2,C   3)   -179.91 -0.000003    0.00   -179.91   
    66. D(H  11,C   6,N   2,C   1)      0.10 -0.000002   -0.00      0.10   
    67. D(H  10,C   6,N   2,C   3)    -60.23  0.000015   -0.01    -60.24   
    68. D(H  10,C   6,N   2,C   1)    119.78  0.000016   -0.01    119.77   
    ----------------------------------------------------------------------------

         *************************************************************
         *                GEOMETRY OPTIMIZATION CYCLE   2            *
         *************************************************************
---------------------------------
CARTESIAN COORDINATES (ANGSTROEM)
---------------------------------
  N     -1.062921   -0.128358   -0.000034
  C      0.000005   -0.977047   -0.000057
  N      1.062937   -0.128326   -0.000033
  C      0.677475    1.199430    0.000044
  C     -0.677497    1.199440    0.000049
  C     -2.442363   -0.565233    0.000084
  C      2.442351   -0.565249    0.000085
  H     -2.970038   -0.196715   -0.892576
  H     -2.969048   -0.199649    0.894547
  H     -2.456096   -1.661753   -0.001671
  H      2.970062   -0.196812   -0.892589
  H      2.456033   -1.661770   -0.001640
  H      2.969085   -0.199697    0.894535
  H      1.391837    2.022364    0.000024
  H     -1.391850    2.022378    0.000035

----------------------------
CARTESIAN COORDINATES (A.U.)
----------------------------
  NO LB      ZA    FRAG     MASS         X           Y           Z
   0 N     7.0000    0    14.007   -2.008630   -0.242562   -0.000064
   1 C     6.0000    0    12.011    0.000010   -1.846352   -0.000109
   2 N     7.0000    0    14.007    2.008660   -0.242501   -0.000062
   3 C     6.0000    0    12.011    1.280242    2.266594    0.000083
   4 C     6.0000    0    12.011   -1.280284    2.266613    0.000092
   5 C     6.0000    0    12.011   -4.615396   -1.068135    0.000159
   6 C     6.0000    0    12.011    4.615375   -1.068165    0.000161
   7 H     1.0000    0     1.008   -5.612559   -0.371737   -1.686723
   8 H     1.0000    0     1.008   -5.610688   -0.377282    1.690449
   9 H     1.0000    0     1.008   -4.641350   -3.140258   -0.003157
  10 H     1.0000    0     1.008    5.612603   -0.371920   -1.686750
  11 H     1.0000    0     1.008    4.641230   -3.140290   -0.003099
  12 H     1.0000    0     1.008    5.610757   -0.377372    1.690426
  13 H     1.0000    0     1.008    2.630190    3.821714    0.000046
  14 H     1.0000    0     1.008   -2.630216    3.821741    0.000065

--------------------------------
INTERNAL COORDINATES (ANGSTROEM)
--------------------------------
 N      0   0   0     0.000000000000     0.00000000     0.00000000
 C      1   0   0     1.360178251733     0.00000000     0.00000000
 N      2   1   0     1.360202579982   102.78816785     0.00000000
 C      3   2   1     1.382576264081   112.41778189     0.00000000
 C      4   3   2     1.354971541266   106.18902247     0.00000000
 C      1   2   3     1.446968462341   123.82135216   180.00625669
 C      3   2   1     1.446957196783   123.81828503   179.99381420
 H      6   1   2     1.100494791961   110.85122361   240.22760283
 H      6   1   2     1.100505972977   110.85590615   119.57062956
 H      6   1   2     1.096607682537   108.29075196   359.89992905
 H      7   3   2     1.100496352997   110.85332575   119.76940904
 H      7   3   2     1.096607703302   108.29019468     0.09837233
 H      7   3   2     1.100507393776   110.85788116   240.42898605
 H      4   3   2     1.089740324528   122.85124319   180.00307927
 H      5   4   3     1.089737666022   130.96012349   180.00443663

---------------------------
INTERNAL COORDINATES (A.U.)
---------------------------
 N      0   0   0     0.000000000000     0.00000000     0.00000000
 C      1   0   0     2.570364389091     0.00000000     0.00000000
 N      2   1   0     2.570410362819   102.78816785     0.00000000
 C      3   2   1     2.612690498373   112.41778189     0.00000000
 C      4   3   2     2.560525132249   106.18902247     0.00000000
 C      1   2   3     2.734374118246   123.82135216   180.00625669
 C      3   2   1     2.734352829427   123.81828503   179.99381420
 H      6   1   2     2.079633768613   110.85122361   240.22760283
 H      6   1   2     2.079654897672   110.85590615   119.57062956
 H      6   1   2     2.072288196350   108.29075196   359.89992905
 H      7   3   2     2.079636718544   110.85332575   119.76940904
 H      7   3   2     2.072288235589   108.29019468     0.09837233
 H      7   3   2     2.079657582593   110.85788116   240.42898605
 H      4   3   2     2.059310770449   122.85124319   180.00307927
 H      5   4   3     2.059305746600   130.96012349   180.00443663

------------------------------------------------------------------------------
                   ___                                                        
                  /   \      - P O W E R E D   B Y -                         
                 /     \                                                     
                 |  |  |   _    _      __       _____    __    __             
                 |  |  |  | |  | |    /  \     |  _  \  |  |  /  |          
                  \  \/   | |  | |   /    \    | | | |  |  | /  /          
                 / \  \   | |__| |  /  /\  \   | |_| |  |  |/  /          
                |  |  |   |  __  | /  /__\  \  |    /   |      \           
                |  |  |   | |  | | |   __   |  |    \   |  |\   \          
                \     /   | |  | | |  |  |  |  | |\  \  |  | \   \       
                 \___/    |_|  |_| |__|  |__|  |_| \__\ |__|  \__/        
                                                                              
                      - O R C A' S   B I G   F R I E N D -                    
                                      &                                       
                       - I N T E G R A L  F E E D E R -                       
                                                                              
 v1 FN, 2020, v2 2021                                                         
------------------------------------------------------------------------------


Reading SHARK input file 1_deprot_aq_1.SHARKINP.tmp ... ok
----------------------
SHARK INTEGRAL PACKAGE
----------------------

Number of atoms                             ...     15
Number of basis functions                   ...    138
Number of shells                            ...     66
[...]
      2      -0.000120  -0.012394  -0.012979   0.000037  -0.000033   0.000016
      3       0.000000  -0.000070  -0.000000  -0.010006   0.000000   0.226254
      4       0.128326  -0.000003   0.000111   0.000001  -0.076766  -0.000003
      5       0.000011  -0.000000   0.000608   0.000000  -0.000008   0.000000
      6      -0.308205  -0.000035   0.000271  -0.010878   0.026509  -0.242311
      7       0.015743   0.000229  -0.000223   0.062391   0.076404   0.042616
      8      -0.000114   0.012400  -0.012972  -0.000037  -0.000032  -0.000016
      9      -0.133348   0.000082   0.000049   0.017765   0.033711   0.100335
     10      -0.036572  -0.000179   0.000109  -0.045727  -0.027403  -0.128692
     11       0.000005  -0.001394   0.001036   0.000004  -0.000002  -0.000011
     12       0.133348   0.000073  -0.000047   0.017766  -0.033712   0.100332
     13      -0.036573   0.000183   0.000111   0.045727  -0.027406   0.128691
     14       0.000006   0.001394   0.001037  -0.000004  -0.000002   0.000011
     15      -0.218884   0.000259   0.000449   0.040175  -0.024968   0.044297
     16      -0.050213   0.000074   0.000143  -0.008168   0.006503   0.011731
     17      -0.000203  -0.032689  -0.032371   0.000088  -0.000068  -0.000024
     18       0.218882   0.000239  -0.000445   0.040178   0.024968   0.044297
     19      -0.050218  -0.000069   0.000142   0.008167   0.006503  -0.011732
     20      -0.000190   0.032705  -0.032354  -0.000087  -0.000067   0.000024
     21       0.220313   0.143855   0.144912  -0.316452   0.330694   0.278796
     22       0.099563   0.323489   0.323581   0.195369  -0.181125   0.049607
     23      -0.188078   0.029043   0.028947   0.282660  -0.275140  -0.118521
     24       0.218021  -0.146910  -0.148341  -0.315183   0.329450   0.278763
     25       0.093977  -0.322790  -0.323533   0.199204  -0.184655   0.048987
     26       0.188524   0.025877   0.025673  -0.281988   0.274451   0.118438
     27       0.333613   0.000480  -0.000119   0.222226  -0.228209   0.092435
     28      -0.067214  -0.000720  -0.000630  -0.007453   0.006384   0.008448
     29       0.003510   0.495878   0.495127  -0.002270   0.002038   0.000165
     30      -0.220227   0.143961  -0.144858  -0.316456  -0.330686   0.278794
     31       0.099438  -0.323659   0.323416  -0.195396  -0.181142  -0.049607
     32      -0.188071  -0.029022   0.028910  -0.282666  -0.275132   0.118520
     33      -0.333626   0.000504   0.000126   0.222224   0.228200   0.092438
     34      -0.067209   0.000716  -0.000620   0.007449   0.006381  -0.008449
     35       0.003301  -0.496126   0.494881   0.002235   0.002007  -0.000163
     36      -0.218060  -0.146938   0.148238  -0.315207  -0.329459   0.278761
     37       0.094139   0.322948  -0.323380  -0.199175  -0.184621  -0.048995
     38       0.188494  -0.025926   0.025684   0.282003   0.274454  -0.118439
     39      -0.140477  -0.000295   0.000168  -0.070243   0.000023  -0.354220
     40      -0.075482   0.000135   0.000045   0.026668   0.004078   0.250375
     41      -0.000012   0.001375   0.000341  -0.000012  -0.000011   0.000019
     42       0.140476  -0.000306  -0.000173  -0.070242  -0.000018  -0.354223
     43      -0.075485  -0.000130   0.000043  -0.026667   0.004080  -0.250368
     44      -0.000012  -0.001376   0.000341   0.000011  -0.000011  -0.000020
                 36         37         38         39         40         41    
      0       0.143079   0.000020   0.000485  -0.000002   0.000002   0.000261
      1      -0.020076   0.000200  -0.000268  -0.000001   0.000000   0.000038
      2      -0.000011  -0.000002  -0.000001  -0.000339   0.000310   0.000001
      3      -0.000001   0.001514   0.000000   0.000000   0.000000  -0.000000
      4       0.049687   0.000000  -0.000435  -0.000000   0.000000  -0.000017
      5       0.000002  -0.000000  -0.000001   0.000294  -0.000011   0.000001
      6      -0.143077   0.000020  -0.000485   0.000002   0.000002  -0.000262
      7      -0.020075  -0.000200  -0.000268  -0.000001  -0.000000   0.000037
      8      -0.000011   0.000002  -0.000001  -0.000361  -0.000283   0.000001
      9       0.410012   0.000214  -0.000774   0.000001   0.000001   0.000078
     10      -0.057291  -0.000226   0.000438   0.000001   0.000001   0.000343
     11      -0.000004   0.000000   0.000000  -0.000173  -0.000167  -0.000000
     12      -0.410014   0.000214   0.000774  -0.000001   0.000001  -0.000080
     13      -0.057290   0.000226   0.000438   0.000001  -0.000001   0.000342
     14      -0.000007  -0.000000   0.000000  -0.000160   0.000180  -0.000000
     15      -0.026179  -0.035530  -0.035667   0.000037  -0.000040   0.015163
     16       0.016825  -0.001214  -0.001325  -0.000051   0.000055  -0.064983
     17       0.000020   0.000048   0.000048   0.064854  -0.069994  -0.000056
     18       0.026179  -0.035534   0.035663  -0.000040  -0.000037  -0.015236
     19       0.016825   0.001214  -0.001326  -0.000054  -0.000051  -0.065289
     20       0.000020  -0.000047   0.000047   0.070029   0.064816  -0.000056
     21      -0.118375   0.205144   0.205749  -0.224230   0.242220  -0.099611
     22      -0.029532  -0.150982  -0.150829   0.168039  -0.181420   0.070760
     23       0.035806   0.365908   0.365838  -0.387632   0.418548  -0.181067
     24      -0.118286   0.205050   0.205657   0.223821  -0.241779  -0.099108
     25      -0.029353  -0.150047  -0.149894  -0.166800   0.180083   0.069948
     26      -0.035801  -0.366948  -0.366878  -0.388224   0.419186   0.180772
     27       0.047798   0.005352   0.005534  -0.000008   0.000008   0.010755
     28       0.017110   0.317241   0.316968  -0.000624   0.000671   0.630841
     29      -0.000064   0.000491   0.000491   0.007071  -0.007595   0.000959
     30       0.118373   0.205170  -0.205727   0.242139   0.224318   0.100079
     31      -0.029531   0.150991  -0.150802   0.181439   0.167993   0.071088
     32       0.035806  -0.365959   0.365804  -0.418582  -0.387605  -0.181920
     33      -0.047799   0.005347  -0.005528   0.000008   0.000008  -0.010795
     34       0.017111  -0.317279   0.316932  -0.000663  -0.000611   0.633818
     35      -0.000063  -0.000485   0.000484   0.007632   0.007030   0.000951
     36       0.118285   0.205077  -0.205636  -0.241706  -0.223917   0.099582
     37      -0.029355   0.150066  -0.149878  -0.180120  -0.166772   0.070283
     38      -0.035800   0.366982  -0.366827  -0.419214  -0.388190   0.181628
     39      -0.117121  -0.004036   0.000925  -0.000007  -0.000013  -0.002196
     40       0.506885  -0.003285   0.000638  -0.000007  -0.000013  -0.001736
     41       0.000026   0.000000  -0.000001   0.000968   0.000267   0.000001
     42       0.117130  -0.004036  -0.000925   0.000006  -0.000014   0.002194
     43       0.506887   0.003285   0.000638  -0.000006   0.000013  -0.001735
     44       0.000024  -0.000000  -0.000001   0.000944  -0.000340   0.000001
                 42         43         44    
      0       0.000148   0.000295  -0.000809
      1      -0.000305   0.000785  -0.002854
      2       0.000000   0.000000  -0.000000
      3       0.000207  -0.001866  -0.000000
      4      -0.000000   0.000000  -0.000994
      5       0.000000   0.000000  -0.000000
      6       0.000147   0.000295   0.000809
      7       0.000305  -0.000784  -0.002854
      8      -0.000000  -0.000000  -0.000000
      9       0.000295   0.039396   0.050422
     10      -0.000152   0.047753   0.047688
     11       0.000000   0.000000   0.000000
     12       0.000295   0.039397  -0.050420
     13       0.000153  -0.047755   0.047687
     14      -0.000000   0.000000   0.000000
     15       0.015235   0.000365  -0.000097
     16      -0.065251  -0.000227   0.000541
     17      -0.000056   0.000001  -0.000001
     18       0.015165   0.000365   0.000097
     19       0.064944   0.000227   0.000541
     20       0.000055  -0.000001  -0.000001
     21      -0.100198  -0.001927   0.001106
     22       0.071163   0.000673  -0.000089
     23      -0.182028  -0.002529   0.001340
     24      -0.099694  -0.001914   0.001096
     25       0.070349   0.000660  -0.000080
     26       0.181735   0.002514  -0.001329
     27       0.010799  -0.001041   0.001441
     28       0.633713  -0.001813  -0.001643
     29       0.000963  -0.000003  -0.000002
     30      -0.099725  -0.001927  -0.001106
     31      -0.070822  -0.000673  -0.000089
     32       0.181171   0.002528   0.001340
     33       0.010738  -0.001041  -0.001441
     34      -0.630736   0.001814  -0.001643
     35      -0.000946   0.000003  -0.000002
     36      -0.099231  -0.001913  -0.001096
     37      -0.070022  -0.000659  -0.000080
     38      -0.180884  -0.002513  -0.001329
     39       0.000725  -0.461876  -0.465987
     40       0.000346  -0.531787  -0.527288
     41      -0.000002  -0.000001  -0.000001
     42       0.000735  -0.461883   0.465970
     43      -0.000353   0.531805  -0.527278
     44       0.000002  -0.000002   0.000003


-----------
IR SPECTRUM
-----------

 Mode   freq       eps      Int      T**2         TX        TY        TZ
       cm**-1   L/(mol*cm) km/mol    a.u.
----------------------------------------------------------------------------
  6:     60.62   0.000000    0.00  0.000000  (-0.000134  0.000002  0.000032)
  7:     63.02   0.000015    0.07  0.000073  (-0.000001  0.000139  0.008571)
  8:    188.86   0.006315   31.91  0.010434  ( 0.000000 -0.000021  0.102148)
  9:    275.13   0.000000    0.00  0.000000  ( 0.000012  0.000001  0.000001)
 10:    289.95   0.001330    6.72  0.001432  (-0.000001 -0.037841 -0.000010)
 11:    442.44   0.003075   15.54  0.002169  ( 0.046570 -0.000000  0.000000)
 12:    630.68   0.000581    2.94  0.000288  ( 0.000000  0.016956 -0.000011)
 13:    638.12   0.000000    0.00  0.000000  (-0.000029  0.000000  0.000001)
 14:    641.77   0.000099    0.50  0.000048  (-0.000000  0.000032 -0.006948)
 15:    746.19   0.015700   79.34  0.006566  ( 0.000000  0.000006  0.081030)
 16:    763.55   0.005195   26.26  0.002123  ( 0.046080 -0.000000 -0.000000)
 17:    879.20   0.000000    0.00  0.000000  ( 0.000013  0.000000 -0.000001)
 18:   1023.37   0.000442    2.23  0.000135  (-0.011603  0.000001  0.000000)
 19:   1036.28   0.000033    0.16  0.000010  ( 0.000000  0.003133 -0.000012)
 20:   1077.71   0.001978   10.00  0.000573  (-0.000000 -0.023932  0.000007)
 21:   1089.77   0.000066    0.33  0.000019  ( 0.004356 -0.000002 -0.000000)
 22:   1097.90   0.002097   10.60  0.000596  ( 0.000000 -0.024416  0.000001)
 23:   1144.00   0.000013    0.06  0.000003  (-0.000001 -0.000003  0.001859)
 24:   1144.12   0.000000    0.00  0.000000  (-0.000114 -0.000000  0.000002)
 25:   1237.65   0.013733   69.40  0.003463  (-0.058844  0.000000 -0.000000)
 26:   1380.98   0.000642    3.25  0.000145  (-0.012048 -0.000000  0.000000)
 27:   1408.92   0.000008    0.04  0.000002  (-0.000001 -0.001294 -0.000039)
 28:   1420.99   0.005614   28.37  0.001233  ( 0.035112  0.000003 -0.000001)
 29:   1422.73   0.001479    7.47  0.000324  (-0.000005  0.018011  0.000088)
 30:   1449.12   0.000121    0.61  0.000026  ( 0.000000 -0.005103  0.000140)
 31:   1449.92   0.000000    0.00  0.000000  ( 0.000191  0.000001 -0.000009)
 32:   1450.59   0.006205   31.36  0.001335  ( 0.000002  0.000089  0.036535)
 33:   1475.83   0.002784   14.07  0.000589  ( 0.024262 -0.000001 -0.000001)
 34:   1481.62   0.008426   42.58  0.001775  (-0.000000 -0.042127  0.000086)
 35:   1512.20   0.016439   83.08  0.003392  ( 0.058244 -0.000001 -0.000000)
 36:   1660.68   0.000014    0.07  0.000003  (-0.000000 -0.001632  0.000008)
 37:   3076.44   0.021000  106.12  0.002130  (-0.046153  0.000000  0.000000)
 38:   3077.42   0.000109    0.55  0.000011  (-0.000003 -0.003323  0.000036)
 39:   3174.86   0.006518   32.94  0.000641  (-0.000000 -0.000021  0.025312)
 40:   3174.87   0.000010    0.05  0.000001  (-0.000013  0.000001 -0.000972)
 41:   3214.99   0.001402    7.08  0.000136  (-0.000010 -0.011665 -0.000014)
 42:   3215.14   0.000167    0.84  0.000016  ( 0.004024 -0.000028 -0.000000)
 43:   3281.34   0.001485    7.50  0.000141  (-0.011884  0.000000  0.000000)
 44:   3302.41   0.000150    0.76  0.000014  (-0.000000 -0.003760  0.000001)

* The epsilon (eps) is given for a Dirac delta lineshape.
** The dipole moment derivative (T) already includes vibrational overlap.

The first frequency considered to be a vibration is 6
The total number of vibrations considered is 39


--------------------------
THERMOCHEMISTRY AT 298.15K
--------------------------

Temperature         ... 298.15 K
Pressure            ... 1.00 atm
Total Mass          ... 96.13 AMU

Throughout the following assumptions are being made:
  (1) The electronic state is orbitally nondegenerate
  (2) There are no thermally accessible electronically excited states
  (3) Hindered rotations indicated by low frequency modes are not
      treated as such but are treated as vibrations and this may
      cause some error
  (4) All equations used are the standard statistical mechanics
      equations for an ideal gas
  (5) All vibrations are strictly harmonic

freq.      60.62  E(vib)   ...       0.51 
freq.      63.02  E(vib)   ...       0.51 
freq.     188.86  E(vib)   ...       0.36 
freq.     275.13  E(vib)   ...       0.28 
freq.     289.95  E(vib)   ...       0.27 
freq.     442.44  E(vib)   ...       0.17 
freq.     630.68  E(vib)   ...       0.09 
freq.     638.12  E(vib)   ...       0.09 
freq.     641.77  E(vib)   ...       0.09 
freq.     746.19  E(vib)   ...       0.06 
freq.     763.55  E(vib)   ...       0.06 
freq.     879.20  E(vib)   ...       0.04 
freq.    1023.37  E(vib)   ...       0.02 
freq.    1036.28  E(vib)   ...       0.02 
freq.    1077.71  E(vib)   ...       0.02 
freq.    1089.77  E(vib)   ...       0.02 
freq.    1097.90  E(vib)   ...       0.02 
freq.    1144.00  E(vib)   ...       0.01 
freq.    1144.12  E(vib)   ...       0.01 
freq.    1237.65  E(vib)   ...       0.01 
freq.    1380.98  E(vib)   ...       0.01 
freq.    1408.92  E(vib)   ...       0.00 
freq.    1420.99  E(vib)   ...       0.00 
freq.    1422.73  E(vib)   ...       0.00 
freq.    1449.12  E(vib)   ...       0.00 
freq.    1449.92  E(vib)   ...       0.00 
freq.    1450.59  E(vib)   ...       0.00 
freq.    1475.83  E(vib)   ...       0.00 
freq.    1481.62  E(vib)   ...       0.00 
freq.    1512.20  E(vib)   ...       0.00 
freq.    1660.68  E(vib)   ...       0.00 
freq.    3076.44  E(vib)   ...       0.00 
freq.    3077.42  E(vib)   ...       0.00 
freq.    3174.86  E(vib)   ...       0.00 
freq.    3174.87  E(vib)   ...       0.00 
freq.    3214.99  E(vib)   ...       0.00 
freq.    3215.14  E(vib)   ...       0.00 
freq.    3281.34  E(vib)   ...       0.00 
freq.    3302.41  E(vib)   ...       0.00 

------------
INNER ENERGY
------------

The inner energy is: U= E(el) + E(ZPE) + E(vib) + E(rot) + E(trans)
    E(el)   - is the total energy from the electronic structure calculation
              = E(kin-el) + E(nuc-el) + E(el-el) + E(nuc-nuc)
    E(ZPE)  - the the zero temperature vibrational energy from the frequency calculation
    E(vib)  - the the finite temperature correction to E(ZPE) due to population
              of excited vibrational states
    E(rot)  - is the rotational thermal energy
    E(trans)- is the translational thermal energy

Summary of contributions to the inner energy U:
Electronic energy                ...   -304.51281471 Eh
Zero point energy                ...      0.12780835 Eh      80.20 kcal/mol
Thermal vibrational correction   ...      0.00428562 Eh       2.69 kcal/mol
Thermal rotational correction    ...      0.00141627 Eh       0.89 kcal/mol
Thermal translational correction ...      0.00141627 Eh       0.89 kcal/mol
-----------------------------------------------------------------------
Total thermal energy                   -304.37788820 Eh


Summary of corrections to the electronic energy:
(perhaps to be used in another calculation)
Total thermal correction                  0.00711816 Eh       4.47 kcal/mol
Non-thermal (ZPE) correction              0.12780835 Eh      80.20 kcal/mol
-----------------------------------------------------------------------
Total correction                          0.13492651 Eh      84.67 kcal/mol


--------
ENTHALPY
--------

The enthalpy is H = U + kB*T
                kB is Boltzmann's constant
Total free energy                 ...   -304.37788820 Eh 
Thermal Enthalpy correction       ...      0.00094421 Eh       0.59 kcal/mol
-----------------------------------------------------------------------
Total Enthalpy                    ...   -304.37694399 Eh


Note: Rotational entropy computed according to Herzberg 
Infrared and Raman Spectra, Chapter V,1, Van Nostrand Reinhold, 1945 
Point Group:  Cs, Symmetry Number:   1  
Rotational constants in cm-1:     0.236401     0.069837     0.055047 

Vibrational entropy computed according to the QRRHO of S. Grimme
Chem.Eur.J. 2012 18 9955


-------
ENTROPY
-------

The entropy contributions are T*S = T*(S(el)+S(vib)+S(rot)+S(trans))
     S(el)   - electronic entropy
     S(vib)  - vibrational entropy
     S(rot)  - rotational entropy
     S(trans)- translational entropy
The entropies will be listed as multiplied by the temperature to get
units of energy

Electronic entropy                ...      0.00000000 Eh      0.00 kcal/mol
Vibrational entropy               ...      0.00737487 Eh      4.63 kcal/mol
Rotational entropy                ...      0.01281704 Eh      8.04 kcal/mol
Translational entropy             ...      0.01881539 Eh     11.81 kcal/mol
-----------------------------------------------------------------------
Final entropy term                ...      0.03900730 Eh     24.48 kcal/mol

In case the symmetry of your molecule has not been determined correctly
or in case you have a reason to use a different symmetry number we print 
out the resulting rotational entropy values for sn=1,12 :
 --------------------------------------------------------
|  sn= 1 | S(rot)=       0.01281704 Eh      8.04 kcal/mol|
|  sn= 2 | S(rot)=       0.01216259 Eh      7.63 kcal/mol|
|  sn= 3 | S(rot)=       0.01177975 Eh      7.39 kcal/mol|
|  sn= 4 | S(rot)=       0.01150813 Eh      7.22 kcal/mol|
|  sn= 5 | S(rot)=       0.01129744 Eh      7.09 kcal/mol|
|  sn= 6 | S(rot)=       0.01112530 Eh      6.98 kcal/mol|
|  sn= 7 | S(rot)=       0.01097975 Eh      6.89 kcal/mol|
|  sn= 8 | S(rot)=       0.01085367 Eh      6.81 kcal/mol|
|  sn= 9 | S(rot)=       0.01074247 Eh      6.74 kcal/mol|
|  sn=10 | S(rot)=       0.01064299 Eh      6.68 kcal/mol|
|  sn=11 | S(rot)=       0.01055300 Eh      6.62 kcal/mol|
|  sn=12 | S(rot)=       0.01047084 Eh      6.57 kcal/mol|
 --------------------------------------------------------


-------------------
GIBBS FREE ENERGY
-------------------

The Gibbs free energy is G = H - T*S

Total enthalpy                    ...   -304.37694399 Eh 
Total entropy correction          ...     -0.03900730 Eh    -24.48 kcal/mol
-----------------------------------------------------------------------
Final Gibbs free energy         ...   -304.41595129 Eh

For completeness - the Gibbs free energy minus the electronic energy
G-E(el)                           ...      0.09686342 Eh     60.78 kcal/mol


Timings for individual modules:

Sum of individual times         ...      831.026 sec (=  13.850 min)
GTO integral calculation        ...        1.404 sec (=   0.023 min)   0.2 %
SCF iterations                  ...      390.116 sec (=   6.502 min)  46.9 %
SCF Gradient evaluation         ...       92.086 sec (=   1.535 min)  11.1 %
Geometry relaxation             ...        0.167 sec (=   0.003 min)   0.0 %
Analytical frequency calculation...      347.253 sec (=   5.788 min)  41.8 %
                             ****ORCA TERMINATED NORMALLY****
TOTAL RUN TIME: 0 days 0 hours 13 minutes 51 seconds 761 msec
