
                                 *****************
                                 * O   R   C   A *
                                 *****************

                                            #,                                       
                                            ###                                      
                                            ####                                     
                                            #####                                    
                                            ######                                   
                                           ########,                                 
                                     ,,################,,,,,                         
                               ,,#################################,,                 
                          ,,##########################################,,             
                       ,#########################################, ''#####,          
                    ,#############################################,,   '####,        
                  ,##################################################,,,,####,       
                ,###########''''           ''''###############################       
              ,#####''   ,,,,##########,,,,          '''####'''          '####       
            ,##' ,,,,###########################,,,                        '##       
           ' ,,###''''                  '''############,,,                           
         ,,##''                                '''############,,,,        ,,,,,,###''
      ,#''                                            '''#######################'''  
     '                                                          ''''####''''         
             ,#######,   #######,   ,#######,      ##                                
            ,#'     '#,  ##    ##  ,#'     '#,    #''#        ######   ,####,        
            ##       ##  ##   ,#'  ##            #'  '#       #        #'  '#        
            ##       ##  #######   ##           ,######,      #####,   #    #        
            '#,     ,#'  ##    ##  '#,     ,#' ,#      #,         ##   #,  ,#        
             '#######'   ##     ##  '#######'  #'      '#     #####' # '####'        



                  #######################################################
                  #                        -***-                        #
                  #          Department of theory and spectroscopy      #
                  #    Directorship and core code : Frank Neese         #
                  #        Max Planck Institute fuer Kohlenforschung    #
                  #                Kaiser Wilhelm Platz 1               #
                  #                 D-45470 Muelheim/Ruhr               #
                  #                      Germany                        #
                  #                                                     #
                  #                  All rights reserved                #
                  #                        -***-                        #
                  #######################################################


                         Program Version 5.0.4 -  RELEASE  -


 With contributions from (in alphabetic order):
   Daniel Aravena         : Magnetic Suceptibility
   Michael Atanasov       : Ab Initio Ligand Field Theory (pilot matlab implementation)
   Alexander A. Auer      : GIAO ZORA, VPT2 properties, NMR spectrum
   Ute Becker             : Parallelization
   Giovanni Bistoni       : ED, misc. LED, open-shell LED, HFLD
   Martin Brehm           : Molecular dynamics
   Dmytro Bykov           : SCF Hessian
   Vijay G. Chilkuri      : MRCI spin determinant printing, contributions to CSF-ICE
   Dipayan Datta          : RHF DLPNO-CCSD density
   Achintya Kumar Dutta   : EOM-CC, STEOM-CC
   Dmitry Ganyushin       : Spin-Orbit,Spin-Spin,Magnetic field MRCI
   Miquel Garcia          : C-PCM and meta-GGA Hessian, CC/C-PCM, Gaussian charge scheme
   Yang Guo               : DLPNO-NEVPT2, F12-NEVPT2, CIM, IAO-localization
   Andreas Hansen         : Spin unrestricted coupled pair/coupled cluster methods
   Benjamin Helmich-Paris : MC-RPA, TRAH-SCF, COSX integrals
   Lee Huntington         : MR-EOM, pCC
   Robert Izsak           : Overlap fitted RIJCOSX, COSX-SCS-MP3, EOM
   Marcus Kettner         : VPT2
   Christian Kollmar      : KDIIS, OOCD, Brueckner-CCSD(T), CCSD density, CASPT2, CASPT2-K
   Simone Kossmann        : Meta GGA functionals, TD-DFT gradient, OOMP2, MP2 Hessian
   Martin Krupicka        : Initial AUTO-CI
   Lucas Lang             : DCDCAS
   Marvin Lechner         : AUTO-CI (C++ implementation), FIC-MRCC
   Dagmar Lenk            : GEPOL surface, SMD
   Dimitrios Liakos       : Extrapolation schemes; Compound Job, initial MDCI parallelization
   Dimitrios Manganas     : Further ROCIS development; embedding schemes
   Dimitrios Pantazis     : SARC Basis sets
   Anastasios Papadopoulos: AUTO-CI, single reference methods and gradients
   Taras Petrenko         : DFT Hessian,TD-DFT gradient, ASA, ECA, R-Raman, ABS, FL, XAS/XES, NRVS
   Peter Pinski           : DLPNO-MP2, DLPNO-MP2 Gradient
   Christoph Reimann      : Effective Core Potentials
   Marius Retegan         : Local ZFS, SOC
   Christoph Riplinger    : Optimizer, TS searches, QM/MM, DLPNO-CCSD(T), (RO)-DLPNO pert. Triples
   Tobias Risthaus        : Range-separated hybrids, TD-DFT gradient, RPA, STAB
   Michael Roemelt        : Original ROCIS implementation
   Masaaki Saitow         : Open-shell DLPNO-CCSD energy and density
   Barbara Sandhoefer     : DKH picture change effects
   Avijit Sen             : IP-ROCIS
   Kantharuban Sivalingam : CASSCF convergence, NEVPT2, FIC-MRCI
   Bernardo de Souza      : ESD, SOC TD-DFT
   Georgi Stoychev        : AutoAux, RI-MP2 NMR, DLPNO-MP2 response
   Willem Van den Heuvel  : Paramagnetic NMR
   Boris Wezisla          : Elementary symmetry handling
   Frank Wennmohs         : Technical directorship


 We gratefully acknowledge several colleagues who have allowed us to
 interface, adapt or use parts of their codes:
   Stefan Grimme, W. Hujo, H. Kruse, P. Pracht,  : VdW corrections, initial TS optimization,
                  C. Bannwarth, S. Ehlert          DFT functionals, gCP, sTDA/sTD-DF
   Ed Valeev, F. Pavosevic, A. Kumar             : LibInt (2-el integral package), F12 methods
   Garnet Chan, S. Sharma, J. Yang, R. Olivares  : DMRG
   Ulf Ekstrom                                   : XCFun DFT Library
   Mihaly Kallay                                 : mrcc  (arbitrary order and MRCC methods)
   Jiri Pittner, Ondrej Demel                    : Mk-CCSD
   Frank Weinhold                                : gennbo (NPA and NBO analysis)
   Christopher J. Cramer and Donald G. Truhlar   : smd solvation model
   Lars Goerigk                                  : TD-DFT with DH, B97 family of functionals
   V. Asgeirsson, H. Jonsson                     : NEB implementation
   FAccTs GmbH                                   : IRC, NEB, NEB-TS, DLPNO-Multilevel, CI-OPT
                                                   MM, QMMM, 2- and 3-layer-ONIOM, Crystal-QMMM,
                                                   LR-CPCM, SF, NACMEs, symmetry and pop. for TD-DFT,
                                                   nearIR, NL-DFT gradient (VV10), updates on ESD,
                                                   ML-optimized integration grids
   S Lehtola, MJT Oliveira, MAL Marques          : LibXC Library
   Liviu Ungur et al                             : ANISO software


 Your calculation uses the libint2 library for the computation of 2-el integrals
 For citations please refer to: http://libint.valeyev.net

 Your ORCA version has been built with support for libXC version: 5.1.0
 For citations please refer to: https://tddft.org/programs/libxc/

 This ORCA versions uses:
   CBLAS   interface :  Fast vector & matrix operations
   LAPACKE interface :  Fast linear algebra routines
   SCALAPACK package :  Parallel linear algebra routines
   Shared memory     :  Shared parallel matrices
   BLAS/LAPACK       :  OpenBLAS 0.3.15  USE64BITINT DYNAMIC_ARCH NO_AFFINITY SkylakeX SINGLE_THREADED
        Core in use  :  SkylakeX
   Copyright (c) 2011-2014, The OpenBLAS Project




***************************************
The coordinates will be read from file: 1_prot_aq_1.xyz
***************************************


Your calculation utilizes the atom-pairwise dispersion correction
based on tight binding partial charges (D4)
Cite in your paper:
E.Caldeweyher, C.Bannwarth, S.Grimme, J.Chem.Phys., (2017), 147, 034112.
E.Caldeweyher, S.Ehlert, A.Hansen, H.Neugebauer, S.Grimme, J.Chem.Phys., (2018), in progress.
   

XCFun DFT library Copyright 2009-2010 Ulf Ekstrom and contributors.
See http://admol.org/xcfun for more information.
This is free software; see the source code for copying conditions.
There is ABSOLUTELY NO WARRANTY; not even for MERCHANTABILITY or FITNESS FOR A PARTICULAR PURPOSE.
For details see the documentation.
Scientific users of this library should cite U. Ekstrom, L. Visscher, R. Bast, A. J. Thorvaldsen and K. Ruud;
J.Chem.Theor.Comp. 2010, DOI: 10.1021/ct100117s
XCFun Version 0.99 

================================================================================

----- Orbital basis set information -----
Your calculation utilizes the basis: def2-SVP
   F. Weigend and R. Ahlrichs, Phys. Chem. Chem. Phys. 7, 3297 (2005).

----- AuxJ basis set information -----
Your calculation utilizes the auxiliary basis: def2/J
   F. Weigend, Phys. Chem. Chem. Phys. 8, 1057 (2006).

================================================================================
                                        WARNINGS
                       Please study these warnings very carefully!
================================================================================


WARNING: Geometry Optimization
  ===> : Switching off AutoStart
         For restart on a previous wavefunction, please use MOREAD

INFO   : the flag for use of the SHARK integral package has been found!

================================================================================
                                       INPUT FILE
================================================================================
NAME = 1_prot_aq_1.inp
|  1> # ORCA 5.0.4 - /users/bwb16179/postgrad/2024_03/DFT_Crest_Conformers/Opt/prot/1_prot_aq_1.inp # write input file
|  2> # Basic Mode
|  3> #
|  4> ! Opt Freq wB97X Def2-SVP D4 SlowConv TightSCF Defgrid2 Def2/J RIJCOSX CPCM(Water)
|  5> 
|  6> 
|  7> 
|  8> %maxcore 4500
|  9> 
| 10> %geom
| 11> Maxiter 150
| 12> END
| 13> 
| 14> * xyzfile 1 1 1_prot_aq_1.xyz
| 15> 
| 16>                          ****END OF INPUT****
================================================================================

                       *****************************
                       * Geometry Optimization Run *
                       *****************************

Geometry optimization settings:
Update method            Update   .... BFGS
Choice of coordinates    CoordSys .... Z-matrix Internals
Initial Hessian          InHess   .... Almoef's Model

Convergence Tolerances:
Energy Change            TolE     ....  5.0000e-06 Eh
Max. Gradient            TolMAXG  ....  3.0000e-04 Eh/bohr
RMS Gradient             TolRMSG  ....  1.0000e-04 Eh/bohr
Max. Displacement        TolMAXD  ....  4.0000e-03 bohr
RMS Displacement         TolRMSD  ....  2.0000e-03 bohr
Strict Convergence                ....  False
------------------------------------------------------------------------------
                        ORCA OPTIMIZATION COORDINATE SETUP
------------------------------------------------------------------------------

The optimization will be done in new redundant internal coordinates
Making redundant internal coordinates   ...  (new redundants) done
Evaluating the initial hessian          ...  (Almloef) done
Evaluating the coordinates              ...  done
Calculating the B-matrix                .... done
Calculating the G-matrix                .... done
Diagonalizing the G-matrix              .... done
The first mode is                       ....   33
The number of degrees of freedom        ....   42

    -----------------------------------------------------------------
                    Redundant Internal Coordinates


    -----------------------------------------------------------------
         Definition                    Initial Value    Approx d2E/dq
    -----------------------------------------------------------------
      1. B(C   1,N   0)                  1.3301         0.697345   
      2. B(N   2,C   1)                  1.3301         0.697362   
      3. B(H   3,C   1)                  1.0732         0.383079   
      4. B(C   4,N   2)                  1.3617         0.620945   
      5. B(C   5,C   4)                  1.3619         0.692864   
      6. B(C   5,N   0)                  1.3617         0.620920   
      7. B(C   6,N   0)                  1.4381         0.468890   
      8. B(C   7,N   2)                  1.4381         0.468890   
      9. B(H   8,C   6)                  1.0906         0.359316   
     10. B(H   9,C   6)                  1.0906         0.359364   
     11. B(H  10,C   6)                  1.0875         0.363458   
     12. B(H  11,C   7)                  1.0875         0.363441   
     13. B(H  12,C   7)                  1.0906         0.359349   
     14. B(H  13,C   7)                  1.0906         0.359344   
     15. B(H  14,C   4)                  1.0711         0.385999   
     16. B(H  15,C   5)                  1.0711         0.386003   
     17. A(C   1,N   0,C   6)          126.7108         0.416206   
     18. A(C   5,N   0,C   6)          125.3350         0.407722   
     19. A(C   1,N   0,C   5)          107.9542         0.437680   
     20. A(N   0,C   1,N   2)          109.4747         0.446964   
     21. A(N   2,C   1,H   3)          125.2650         0.361587   
     22. A(N   0,C   1,H   3)          125.2603         0.361585   
     23. A(C   1,N   2,C   7)          126.7034         0.416208   
     24. A(C   1,N   2,C   4)          107.9550         0.437685   
     25. A(C   4,N   2,C   7)          125.3415         0.407725   
     26. A(N   2,C   4,C   5)          107.3080         0.440064   
     27. A(C   5,C   4,H  14)          130.1088         0.363918   
     28. A(N   2,C   4,H  14)          122.5833         0.354976   
     29. A(N   0,C   5,C   4)          107.3081         0.440060   
     30. A(N   0,C   5,H  15)          122.5876         0.354974   
     31. A(C   4,C   5,H  15)          130.1044         0.363919   
     32. A(N   0,C   6,H  10)          109.9951         0.335217   
     33. A(H   8,C   6,H   9)          108.4401         0.290646   
     34. A(N   0,C   6,H   9)          110.0797         0.334587   
     35. A(N   0,C   6,H   8)          110.0847         0.334579   
     36. A(H   9,C   6,H  10)          109.1071         0.291170   
     37. A(H   8,C   6,H  10)          109.1015         0.291164   
     38. A(H  12,C   7,H  13)          108.4402         0.290648   
     39. A(H  11,C   7,H  13)          109.1031         0.291166   
     40. A(N   2,C   7,H  13)          110.0828         0.334584   
     41. A(H  11,C   7,H  12)          109.1037         0.291166   
     42. A(N   2,C   7,H  12)          110.0840         0.334584   
     43. A(N   2,C   7,H  11)          109.9943         0.335215   
     44. D(H   3,C   1,N   0,C   6)     -0.0219         0.040211   
     45. D(N   2,C   1,N   0,C   6)    179.9808         0.040211   
     46. D(N   2,C   1,N   0,C   5)      0.0032         0.040211   
     47. D(H   3,C   1,N   0,C   5)   -179.9996         0.040211   
     48. D(C   7,N   2,C   1,N   0)    179.9956         0.040213   
     49. D(C   4,N   2,C   1,N   0)     -0.0011         0.040213   
     50. D(C   4,N   2,C   1,H   3)   -179.9983         0.040213   
     51. D(C   7,N   2,C   1,H   3)     -0.0016         0.040213   
     52. D(H  14,C   4,N   2,C   1)    179.9978         0.031229   
     53. D(H  14,C   4,N   2,C   7)      0.0010         0.031229   
     54. D(C   5,C   4,N   2,C   7)   -179.9982         0.031229   
     55. D(C   5,C   4,N   2,C   1)     -0.0015         0.031229   
     56. D(H  15,C   5,N   0,C   1)    179.9979         0.031226   
     57. D(C   4,C   5,N   0,C   6)   -179.9820         0.031226   
     58. D(C   4,C   5,N   0,C   1)     -0.0040         0.031226   
     59. D(H  15,C   5,C   4,H  14)      0.0020         0.033753   
     60. D(H  15,C   5,C   4,N   2)   -179.9988         0.033753   
     61. D(N   0,C   5,C   4,H  14)   -179.9958         0.033753   
     62. D(N   0,C   5,C   4,N   2)      0.0033         0.033753   
     63. D(H  15,C   5,N   0,C   6)      0.0199         0.031226   
     64. D(H  10,C   6,N   0,C   5)   -179.7606         0.018783   
     65. D(H  10,C   6,N   0,C   1)      0.2655         0.018783   
     66. D(H   9,C   6,N   0,C   5)    -59.5031         0.018783   
     67. D(H   9,C   6,N   0,C   1)    120.5230         0.018783   
     68. D(H   8,C   6,N   0,C   5)     59.9857         0.018783   
     69. D(H   8,C   6,N   0,C   1)   -119.9883         0.018783   
     70. D(H  12,C   7,N   2,C   4)     59.7570         0.018783   
     71. D(H  12,C   7,N   2,C   1)   -120.2392         0.018783   
     72. D(H  11,C   7,N   2,C   4)   -179.9875         0.018783   
     73. D(H  13,C   7,N   2,C   1)    120.2704         0.018783   
     74. D(H  11,C   7,N   2,C   1)      0.0164         0.018783   
     75. D(H  13,C   7,N   2,C   4)    -59.7334         0.018783   
    -----------------------------------------------------------------

Number of atoms                         .... 16
Number of degrees of freedom            .... 75

         *************************************************************
         *                GEOMETRY OPTIMIZATION CYCLE   1            *
         *************************************************************
---------------------------------
CARTESIAN COORDINATES (ANGSTROEM)
---------------------------------
  N     -1.086030   -0.106668    0.000153
  C      0.000040   -0.874526    0.000076
  N      1.086049   -0.106592   -0.000025
  H      0.000036   -1.947688    0.000135
  C      0.680898    1.193421   -0.000036
  C     -0.680953    1.193380    0.000027
  C     -2.453560   -0.551762   -0.000115
  C      2.453555   -0.551761   -0.000042
  H     -2.968038   -0.180627   -0.887226
  H     -2.970695   -0.173201    0.882256
  H     -2.490879   -1.638586    0.004336
  H      2.490796   -1.638609   -0.000251
  H      2.969365   -0.177128    0.884792
  H      2.969430   -0.176794   -0.884701
  H      1.370915    2.012640   -0.000076
  H     -1.370956    2.012607    0.000024

----------------------------
CARTESIAN COORDINATES (A.U.)
----------------------------
  NO LB      ZA    FRAG     MASS         X           Y           Z
   0 N     7.0000    0    14.007   -2.052300   -0.201573    0.000288
   1 C     6.0000    0    12.011    0.000076   -1.652615    0.000144
   2 N     7.0000    0    14.007    2.052336   -0.201429   -0.000047
   3 H     1.0000    0     1.008    0.000069   -3.680597    0.000255
   4 C     6.0000    0    12.011    1.286712    2.255239   -0.000068
   5 C     6.0000    0    12.011   -1.286815    2.255161    0.000052
   6 C     6.0000    0    12.011   -4.636557   -1.042679   -0.000217
   7 C     6.0000    0    12.011    4.636547   -1.042677   -0.000079
   8 H     1.0000    0     1.008   -5.608780   -0.341336   -1.676614
   9 H     1.0000    0     1.008   -5.613799   -0.327302    1.667222
  10 H     1.0000    0     1.008   -4.707079   -3.096478    0.008194
  11 H     1.0000    0     1.008    4.706922   -3.096522   -0.000474
  12 H     1.0000    0     1.008    5.611286   -0.334723    1.672014
  13 H     1.0000    0     1.008    5.611409   -0.334093   -1.671842
  14 H     1.0000    0     1.008    2.590655    3.803337   -0.000143
  15 H     1.0000    0     1.008   -2.590731    3.803275    0.000044

--------------------------------
INTERNAL COORDINATES (ANGSTROEM)
--------------------------------
 N      0   0   0     0.000000000000     0.00000000     0.00000000
 C      1   0   0     1.330096379799     0.00000000     0.00000000
 N      2   1   0     1.330090027614   109.47469401     0.00000000
 H      2   1   3     1.073161551627   125.26034886   179.99725380
 C      3   2   1     1.361683125236   107.95503554     0.00000000
 C      1   2   3     1.361693966785   107.95421651     0.00000000
 C      1   2   3     1.438140277935   126.71076017   179.98080468
 C      3   2   1     1.438140383621   126.70342600   179.99563760
 H      7   1   2     1.090593478987   110.08468836   240.01174597
 H      7   1   2     1.090556846034   110.07970329   120.52300016
 H      7   1   2     1.087473066299   109.99506746     0.26550130
 H      8   3   2     1.087485748078   109.99430210     0.00000000
 H      8   3   2     1.090568467839   110.08403964   239.76084749
 H      8   3   2     1.090572227208   110.08282826   120.27044550
 H      5   3   2     1.071093819936   122.58327293   179.99779766
 H      6   1   2     1.071091173773   122.58755633   179.99794130

---------------------------
INTERNAL COORDINATES (A.U.)
---------------------------
 N      0   0   0     0.000000000000     0.00000000     0.00000000
 C      1   0   0     2.513517889540     0.00000000     0.00000000
 N      2   1   0     2.513505885651   109.47469401     0.00000000
 H      2   1   3     2.027981430029   125.26034886   179.99725380
 C      3   2   1     2.573208187878   107.95503554     0.00000000
 C      1   2   3     2.573228675436   107.95421651     0.00000000
 C      1   2   3     2.717691267459   126.71076017   179.98080468
 C      3   2   1     2.717691467176   126.70342600   179.99563760
 H      7   1   2     2.060922998725   110.08468836   240.01174597
 H      7   1   2     2.060853772478   110.07970329   120.52300016
 H      7   1   2     2.055026273321   109.99506746     0.26550130
 H      8   3   2     2.055050238411   109.99430210     0.00000000
 H      8   3   2     2.060875734505   110.08403964   239.76084749
 H      8   3   2     2.060882838684   110.08282826   120.27044550
 H      5   3   2     2.024073983414   122.58327293   179.99779766
 H      6   1   2     2.024068982892   122.58755633   179.99794130

---------------------
BASIS SET INFORMATION
---------------------
There are 3 groups of distinct atoms

 Group   1 Type N   : 7s4p1d contracted to 3s2p1d pattern {511/31/1}
 Group   2 Type C   : 7s4p1d contracted to 3s2p1d pattern {511/31/1}
 Group   3 Type H   : 4s1p contracted to 2s1p pattern {31/1}

Atom   0N    basis set group =>   1
Atom   1C    basis set group =>   2
Atom   2N    basis set group =>   1
Atom   3H    basis set group =>   3
Atom   4C    basis set group =>   2
Atom   5C    basis set group =>   2
Atom   6C    basis set group =>   2
Atom   7C    basis set group =>   2
Atom   8H    basis set group =>   3
Atom   9H    basis set group =>   3
Atom  10H    basis set group =>   3
Atom  11H    basis set group =>   3
Atom  12H    basis set group =>   3
Atom  13H    basis set group =>   3
Atom  14H    basis set group =>   3
Atom  15H    basis set group =>   3
---------------------------------
AUXILIARY/J BASIS SET INFORMATION
---------------------------------
There are 3 groups of distinct atoms

 Group   1 Type N   : 12s5p4d2f1g contracted to 6s4p3d1f1g pattern {711111/2111/211/2/1}
 Group   2 Type C   : 12s5p4d2f1g contracted to 6s4p3d1f1g pattern {711111/2111/211/2/1}
 Group   3 Type H   : 5s2p1d contracted to 3s1p1d pattern {311/2/1}

Atom   0N    basis set group =>   1
Atom   1C    basis set group =>   2
Atom   2N    basis set group =>   1
Atom   3H    basis set group =>   3
Atom   4C    basis set group =>   2
Atom   5C    basis set group =>   2
Atom   6C    basis set group =>   2
Atom   7C    basis set group =>   2
Atom   8H    basis set group =>   3
Atom   9H    basis set group =>   3
Atom  10H    basis set group =>   3
Atom  11H    basis set group =>   3
Atom  12H    basis set group =>   3
Atom  13H    basis set group =>   3
Atom  14H    basis set group =>   3
Atom  15H    basis set group =>   3
------------------------------------------------------------------------------
                           ORCA GTO INTEGRAL CALCULATION
                           -- RI-GTO INTEGRALS CHOSEN --
------------------------------------------------------------------------------
------------------------------------------------------------------------------
                   ___                                                        
                  /   \      - P O W E R E D   B Y -                         
                 /     \                                                     
                 |  |  |   _    _      __       _____    __    __             
                 |  |  |  | |  | |    /  \     |  _  \  |  |  /  |          
                  \  \/   | |  | |   /    \    | | | |  |  | /  /          
                 / \  \   | |__| |  /  /\  \   | |_| |  |  |/  /          
                |  |  |   |  __  | /  /__\  \  |    /   |      \           
                |  |  |   | |  | | |   __   |  |    \   |  |\   \          
                \     /   | |  | | |  |  |  |  | |\  \  |  | \   \       
                 \___/    |_|  |_| |__|  |__|  |_| \__\ |__|  \__/        
                                                                              
                      - O R C A' S   B I G   F R I E N D -                    
                                      &                                       
                       - I N T E G R A L  F E E D E R -                       
                                                                              
 v1 FN, 2020, v2 2021                                                         
------------------------------------------------------------------------------


Reading SHARK input file 1_prot_aq_1.SHARKINP.tmp ... ok
----------------------
SHARK INTEGRAL PACKAGE
----------------------

Number of atoms                             ...     16
Number of basis functions                   ...    143
Number of shells                            ...     69
Maximum angular momentum                    ...      2
Integral batch strategy                     ... SHARK/LIBINT Hybrid
RI-J (if used) integral strategy            ... SPLIT-RIJ (Revised 2003 algorithm where possible)
Printlevel                                  ...      1
Contraction scheme used                     ... SEGMENTED contraction
Coulomb Range Separation                    ... NOT USED
Exchange Range Separation                   ... Long Range
   Mu parameter                             ...  0.300000
   Scaling (regular/separated)              ...  0.157706  0.842294
Finite Nucleus Model                        ... NOT USED
Auxiliary Coulomb fitting basis             ... AVAILABLE
   # of basis functions in Aux-J            ...    442
   # of shells in Aux-J                     ...    150
   Maximum angular momentum in Aux-J        ...      4
Auxiliary J/K fitting basis                 ... NOT available
Auxiliary Correlation fitting basis         ... NOT available
Auxiliary 'external' fitting basis          ... NOT available
Integral threshold                          ...     2.500000e-11
Primitive cut-off                           ...     2.500000e-12
Primitive pair pre-selection threshold      ...     2.500000e-12

Calculating pre-screening integrals         ... done (  0.0 sec) Dimension = 69
Organizing shell pair data                  ... done (  0.0 sec)
Shell pair information
Total number of shell pairs                 ...      2415
Shell pairs after pre-screening             ...      2297
Total number of primitive shell pairs       ...      8503
Primitive shell pairs kept                  ...      6161
          la=0 lb=0:    750 shell pairs
          la=1 lb=0:    849 shell pairs
          la=1 lb=1:    257 shell pairs
          la=2 lb=0:    259 shell pairs
          la=2 lb=1:    155 shell pairs
          la=2 lb=2:     27 shell pairs

Calculating one electron integrals          ... done (  0.0 sec)
Calculating RI/J V-Matrix + Cholesky decomp.... done (  0.0 sec)
Calculating Nuclear repulsion               ... done (  0.0 sec) ENN=    309.622169502950 Eh

SHARK setup successfully completed in   0.2 seconds

Maximum memory used throughout the entire GTOINT-calculation: 18.0 MB
-------------------------------------------------------------------------------
                                 ORCA SCF
-------------------------------------------------------------------------------

------------
SCF SETTINGS
------------
Hamiltonian:
 Density Functional     Method          .... DFT(GTOs)
 Exchange Functional    Exchange        .... WB97X
 Correlation Functional Correlation     .... WB97X
 Gradients option       PostSCFGGA      .... off
 Hybrid DFT is turned on
   Fraction HF Exchange ScalHFX         ....  0.157706
   Scaling of DF-GGA-X  ScalDFX         ....  0.000000
   Scaling of DF-GGA-C  ScalDFC         ....  1.000000
   Scaling of DF-LDA-C  ScalLDAC        ....  1.000000
   Perturbative correction              ....  0.000000
   Density functional embedding theory  .... OFF
 Long-range corrected/Screened/Range-Separated Hybrid DFT is turned on
   Amount of maximum screened exact exchange              ....  0.842294
   Range separation parameter mu (erf(mu*r12)/r12)        ....  0.300000
 RI-approximation to the Coulomb term is turned on
   Number of AuxJ basis functions       .... 442
   RIJ-COSX (HFX calculated with COS-X)).... on


General Settings:
 Integral files         IntName         .... 1_prot_aq_1
 Hartree-Fock type      HFTyp           .... RHF
 Total Charge           Charge          ....    1
 Multiplicity           Mult            ....    1
 Number of Electrons    NEL             ....   52
 Basis Dimension        Dim             ....  143
 Nuclear Repulsion      ENuc            ....    309.6221695030 Eh

Convergence Acceleration:
 DIIS                   CNVDIIS         .... on
   Start iteration      DIISMaxIt       ....     0
   Startup error        DIISStart       ....  0.200000
   # of expansion vecs  DIISMaxEq       ....     5
   Bias factor          DIISBfac        ....   1.050
   Max. coefficient     DIISMaxC        ....  10.000
 Trust-Rad. Augm. Hess. CNVTRAH         .... auto
   Auto Start mean grad. ratio tolernc. ....  1.125000
   Auto Start start iteration           ....    20
   Auto Start num. interpolation iter.  ....    10
   Max. Number of Micro iterations      ....    16
   Max. Number of Macro iterations      .... Maxiter - #DIIS iter
   Number of Davidson start vectors     ....     2
   Converg. threshold I  (grad. norm)   ....   1.000e-05
   Converg. threshold II (energy diff.) ....   1.000e-08
   Grad. Scal. Fac. for Micro threshold ....   0.100
   Minimum threshold for Micro iter.    ....   0.010
   NR start threshold (gradient norm)   ....   0.001
   Initial trust radius                 ....   0.400
   Minimum AH scaling param. (alpha)    ....   1.000
   Maximum AH scaling param. (alpha)    .... 1000.000
   Orbital update algorithm             .... Taylor
   White noise on init. David. guess    .... on
   Maximum white noise                  ....   0.010
   Quad. conv. algorithm                .... NR
 SOSCF                  CNVSOSCF        .... on
   Start iteration      SOSCFMaxIt      ....   150
   Startup grad/error   SOSCFStart      ....  0.001000
 Level Shifting         CNVShift        .... on
   Level shift para.    LevelShift      ....    0.2500
   Turn off err/grad.   ShiftErr        ....    0.0000
 Zerner damping         CNVZerner       .... off
 Static damping         CNVDamp         .... on
   Fraction old density DampFac         ....    0.8500
   Max. Damping (<1)    DampMax         ....    0.9800
   Min. Damping (>=0)   DampMin         ....    0.0000
   Turn off err/grad.   DampErr         ....    0.0300
 Fernandez-Rico         CNVRico         .... off

SCF Procedure:
 Maximum # iterations   MaxIter         ....   125
 SCF integral mode      SCFMode         .... Direct
   Integral package                     .... SHARK and LIBINT hybrid scheme
 Reset frequency        DirectResetFreq ....    20
 Integral Threshold     Thresh          ....  2.500e-11 Eh
 Primitive CutOff       TCut            ....  2.500e-12 Eh

Convergence Tolerance:
 Convergence Check Mode ConvCheckMode   .... Total+1el-Energy
 Convergence forced     ConvForced      .... 0
 Energy Change          TolE            ....  1.000e-08 Eh
 1-El. energy change                    ....  1.000e-05 Eh
 Orbital Gradient       TolG            ....  1.000e-05
 Orbital Rotation angle TolX            ....  1.000e-05
 DIIS Error             TolErr          ....  5.000e-07


Diagonalization of the overlap matrix:
Smallest eigenvalue                        ... 1.543e-03
Time for diagonalization                   ...    0.004 sec
Threshold for overlap eigenvalues          ... 1.000e-08
Number of eigenvalues below threshold      ... 0
Time for construction of square roots      ...    0.002 sec
Total time needed                          ...    0.006 sec

Time for model grid setup =    0.163 sec

------------------------------
INITIAL GUESS: MODEL POTENTIAL
------------------------------
Loading Hartree-Fock densities                     ... done
Calculating cut-offs                               ... done
Initializing the effective Hamiltonian             ... done
Setting up the integral package (SHARK)            ... done
Starting the Coulomb interaction                   ... done (   0.1 sec)
Reading the grid                                   ... done
Mapping shells                                     ... done
Starting the XC term evaluation                    ... done (   0.2 sec)
  promolecular density results
     # of electrons  =     52.996768988
     EX              =    -41.413575716
     EC              =     -1.763119596
     EX+EC           =    -43.176695312
Transforming the Hamiltonian                       ... done (   0.0 sec)
Diagonalizing the Hamiltonian                      ... done (   0.0 sec)
Back transforming the eigenvectors                 ... done (   0.0 sec)
Now organizing SCF variables                       ... done
                      ------------------
                      INITIAL GUESS DONE (   0.5 sec)
                      ------------------
-------------------
DFT GRID GENERATION
-------------------

General Integration Accuracy     IntAcc      ... 4.388
Radial Grid Type                 RadialGrid  ... OptM3 with GC (2021)
Angular Grid (max. ang.)         AngularGrid ... 4 (Lebedev-302)
Angular grid pruning method      GridPruning ... 4 (adaptive)
Weight generation scheme         WeightScheme... Becke
Basis function cutoff            BFCut       ... 1.0000e-11
Integration weight cutoff        WCut        ... 1.0000e-14
Angular grids for H and He will be reduced by one unit
Partially contracted basis set               ... off
Rotationally invariant grid construction     ... off

Total number of grid points                  ...    71136
Total number of batches                      ...     1118
Average number of points per batch           ...       63
Average number of grid points per atom       ...     4446
Time for grid setup =    0.714 sec

--------------------
COSX GRID GENERATION
--------------------

GRIDX 1
-------
General Integration Accuracy     IntAcc      ... 3.816
Radial Grid Type                 RadialGrid  ... OptM3 with GC (2021)
Angular Grid (max. ang.)         AngularGrid ... 1 (Lebedev-50)
Angular grid pruning method      GridPruning ... 4 (adaptive)
Weight generation scheme         WeightScheme... Becke
Basis function cutoff            BFCut       ... 1.0000e-11
Integration weight cutoff        WCut        ... 1.0000e-14
Angular grids for H and He will be reduced by one unit
Partially contracted basis set               ... on
Rotationally invariant grid construction     ... off

Total number of grid points                  ...     9112
Total number of batches                      ...      149
Average number of points per batch           ...       61
Average number of grid points per atom       ...      570
UseSFitting                                  ... on

GRIDX 2
-------
General Integration Accuracy     IntAcc      ... 4.020
Radial Grid Type                 RadialGrid  ... OptM3 with GC (2021)
Angular Grid (max. ang.)         AngularGrid ... 2 (Lebedev-110)
Angular grid pruning method      GridPruning ... 4 (adaptive)
Weight generation scheme         WeightScheme... Becke
Basis function cutoff            BFCut       ... 1.0000e-11
Integration weight cutoff        WCut        ... 1.0000e-14
Angular grids for H and He will be reduced by one unit
Partially contracted basis set               ... on
Rotationally invariant grid construction     ... off

Total number of grid points                  ...    19477
Total number of batches                      ...      311
Average number of points per batch           ...       62
Average number of grid points per atom       ...     1217
UseSFitting                                  ... on

GRIDX 3
-------
General Integration Accuracy     IntAcc      ... 4.338
Radial Grid Type                 RadialGrid  ... OptM3 with GC (2021)
Angular Grid (max. ang.)         AngularGrid ... 3 (Lebedev-194)
Angular grid pruning method      GridPruning ... 4 (adaptive)
Weight generation scheme         WeightScheme... Becke
Basis function cutoff            BFCut       ... 1.0000e-11
Integration weight cutoff        WCut        ... 1.0000e-14
Angular grids for H and He will be reduced by one unit
Partially contracted basis set               ... on
Rotationally invariant grid construction     ... off

Total number of grid points                  ...    42708
Total number of batches                      ...      676
Average number of points per batch           ...       63
Average number of grid points per atom       ...     2669
UseSFitting                                  ... on

Time for X-Grid setup             =    0.879 sec


--------------------
CPCM SOLVATION MODEL
--------------------
CPCM parameters:
  Epsilon                                         ...      80.4000
  Refrac                                          ...       1.3300
  Rsolv                                           ...       1.3000
  Surface type                                    ... GAUSSIAN VDW
  Epsilon function type                           ...         CPCM
Radii:
 Radius for N  used is    3.5149 Bohr (=   1.8600 Ang.)
 Radius for C  used is    3.8550 Bohr (=   2.0400 Ang.)
 Radius for H  used is    2.4944 Bohr (=   1.3200 Ang.)
Calculating surface                               ...        done! (  0.0s)
GEPOL surface points                              ...          900
GEPOL Volume                                      ...     886.4827
GEPOL Surface-area                                ...     522.9582
Calculating surface distance matrix               ...        done! (  0.0s)
Performing Cholesky decomposition & store         ...        done! (  0.0s)
Overall time for CPCM initialization              ...                 0.0s
--------------
SCF ITERATIONS
--------------
ITER       Energy         Delta-E        Max-DP      RMS-DP      [F,P]     Damp
               ***  Starting incremental Fock matrix formation  ***
  0   -304.9389882262   0.000000000000 0.02274638  0.00064324  0.1022651 0.8500
  1   -304.9532951406  -0.014306914389 0.02076095  0.00060159  0.0833099 0.8500
                               ***Turning on DIIS***
  2   -304.9644156309  -0.011120490377 0.01652236  0.00049363  0.0649637 0.8500
  3   -304.9728802247  -0.008464593734 0.01092757  0.00036386  0.0501246 0.8500
  4   -304.9795214658  -0.006641241125 0.00761312  0.00028422  0.0402685 0.8500
  5   -304.9848146950  -0.005293229155 0.00590881  0.00023512  0.0334560 0.8500
  6   -304.9891455754  -0.004330880429 0.03235865  0.00132622  0.0282221 0.0000
  7   -305.0120671602  -0.022921584774 0.00100989  0.00004190  0.0010790 0.0000
                      *** Initiating the SOSCF procedure ***
                           *** Shutting down DIIS ***
                      *** Re-Reading the Fockian *** 
                      *** Removing any level shift *** 
ITER      Energy       Delta-E        Grad      Rot      Max-DP    RMS-DP
  8   -305.01207762  -0.0000104561  0.000249  0.000249  0.000744  0.000019
               *** Restarting incremental Fock matrix formation ***
  9   -305.01214724  -0.0000696277  0.000174  0.000247  0.000278  0.000012
 10   -305.01214765  -0.0000004018  0.000066  0.000126  0.000209  0.000006
 11   -305.01214776  -0.0000001151  0.000009  0.000013  0.000036  0.000001
 12   -305.01214776  -0.0000000041  0.000007  0.000012  0.000013  0.000000
                  ***Gradient check signals convergence***
              ***Rediagonalizing the Fockian in SOSCF/NRSCF***

               *****************************************************
               *                     SUCCESS                       *
               *           SCF CONVERGED AFTER  13 CYCLES          *
               *****************************************************

Old exchange energy                            =    -13.503589964 Eh
New exchange energy                            =    -13.503633224 Eh
Exchange energy change after final integration =     -0.000043260 Eh
Total energy after final integration           =   -305.012191027 Eh
Final COS-X integration done in                =    17.058 sec

----------------
TOTAL SCF ENERGY
----------------

Total Energy       :         -305.01219103 Eh           -8299.80367 eV

Components:
Nuclear Repulsion  :          309.62216950 Eh            8425.24756 eV
Electronic Energy  :         -614.63436053 Eh          -16725.05124 eV
One Electron Energy:        -1012.63152535 Eh          -27555.10468 eV
Two Electron Energy:          397.99716482 Eh           10830.05344 eV
Max COSX asymmetry :            0.00000145 Eh               0.00004 eV
CPCM Dielectric    :           -0.08463046 Eh              -2.30291 eV

Virial components:
Potential Energy   :         -606.70562593 Eh          -16509.29940 eV
Kinetic Energy     :          301.69343490 Eh            8209.49573 eV
Virial Ratio       :            2.01100043


DFT components:
N(Alpha)           :       26.000027341282 electrons
N(Beta)            :       26.000027341282 electrons
N(Total)           :       52.000054682565 electrons
E(XC)              :      -30.486862360568 Eh       
DFET-embed. en.    :        0.000000000000 Eh       
CPCM Solvation Model Properties:
Surface-charge          :           -1.01104551
Charge-correction       :            0.00167293 Eh               0.04552 eV
Free-energy (cav+disp)  :  This term is not implemented in the current solvation scheme

---------------
SCF CONVERGENCE
---------------

  Last Energy change         ...   -1.7886e-09  Tolerance :   1.0000e-08
  Last MAX-Density change    ...    1.4792e-15  Tolerance :   1.0000e-07
  Last RMS-Density change    ...    3.7572e-17  Tolerance :   5.0000e-09
  Last Orbital Gradient      ...    2.3628e-06  Tolerance :   1.0000e-05
  Last Orbital Rotation      ...    3.2594e-06  Tolerance :   1.0000e-05

             **** THE GBW FILE WAS UPDATED (1_prot_aq_1.gbw) ****
             **** DENSITY 1_prot_aq_1.scfp WAS UPDATED ****
             **** ENERGY FILE WAS UPDATED (1_prot_aq_1.en.tmp) ****
             **** THE GBW FILE WAS UPDATED (1_prot_aq_1.gbw) ****
             **** DENSITY 1_prot_aq_1.scfp WAS UPDATED ****
----------------
ORBITAL ENERGIES
----------------

  NO   OCC          E(Eh)            E(eV) 
   0   2.0000     -14.517077      -395.0298 
   1   2.0000     -14.517060      -395.0293 
   2   2.0000     -10.384232      -282.5693 
   3   2.0000     -10.332152      -281.1522 
   4   2.0000     -10.331582      -281.1366 
   5   2.0000     -10.324557      -280.9455 
   6   2.0000     -10.324532      -280.9448 
   7   2.0000      -1.225225       -33.3401 
   8   2.0000      -1.104427       -30.0530 
   9   2.0000      -0.943099       -25.6630 
  10   2.0000      -0.907774       -24.7018 
  11   2.0000      -0.843105       -22.9421 
  12   2.0000      -0.778471       -21.1833 
  13   2.0000      -0.743710       -20.2374 
  14   2.0000      -0.689944       -18.7743 
  15   2.0000      -0.646443       -17.5906 
  16   2.0000      -0.607959       -16.5434 
  17   2.0000      -0.596599       -16.2343 
  18   2.0000      -0.589275       -16.0350 
  19   2.0000      -0.583289       -15.8721 
  20   2.0000      -0.569859       -15.5066 
  21   2.0000      -0.524329       -14.2677 
  22   2.0000      -0.520775       -14.1710 
  23   2.0000      -0.516310       -14.0495 
  24   2.0000      -0.420673       -11.4471 
  25   2.0000      -0.376204       -10.2370 
  26   0.0000       0.061218         1.6658 
  27   0.0000       0.091545         2.4911 
  28   0.0000       0.156281         4.2526 
  29   0.0000       0.162766         4.4291 
  30   0.0000       0.180062         4.8997 
  31   0.0000       0.191667         5.2155 
  32   0.0000       0.207760         5.6534 
  33   0.0000       0.226454         6.1621 
  34   0.0000       0.228819         6.2265 
  35   0.0000       0.234251         6.3743 
  36   0.0000       0.246313         6.7025 
  37   0.0000       0.255743         6.9591 
  38   0.0000       0.255800         6.9607 
  39   0.0000       0.299988         8.1631 
  40   0.0000       0.322394         8.7728 
  41   0.0000       0.323033         8.7902 
  42   0.0000       0.390512        10.6264 
  43   0.0000       0.442794        12.0490 
  44   0.0000       0.450921        12.2702 
  45   0.0000       0.458914        12.4877 
  46   0.0000       0.465049        12.6546 
  47   0.0000       0.505656        13.7596 
  48   0.0000       0.536108        14.5882 
  49   0.0000       0.543064        14.7775 
  50   0.0000       0.582668        15.8552 
  51   0.0000       0.583073        15.8662 
  52   0.0000       0.606998        16.5173 
  53   0.0000       0.654645        17.8138 
  54   0.0000       0.667837        18.1728 
  55   0.0000       0.679792        18.4981 
  56   0.0000       0.693565        18.8728 
  57   0.0000       0.711207        19.3529 
  58   0.0000       0.728123        19.8132 
  59   0.0000       0.742204        20.1964 
  60   0.0000       0.753159        20.4945 
  61   0.0000       0.757718        20.6186 
  62   0.0000       0.758855        20.6495 
  63   0.0000       0.767886        20.8952 
  64   0.0000       0.770863        20.9762 
  65   0.0000       0.787909        21.4401 
  66   0.0000       0.802355        21.8332 
  67   0.0000       0.817773        22.2527 
  68   0.0000       0.870815        23.6961 
  69   0.0000       0.895977        24.3808 
  70   0.0000       0.920216        25.0403 
  71   0.0000       0.957405        26.0523 
  72   0.0000       0.997954        27.1557 
  73   0.0000       0.998978        27.1836 
  74   0.0000       1.058627        28.8067 
  75   0.0000       1.183718        32.2106 
  76   0.0000       1.194432        32.5022 
  77   0.0000       1.216099        33.0917 
  78   0.0000       1.245309        33.8866 
  79   0.0000       1.296459        35.2784 
  80   0.0000       1.307698        35.5843 
  81   0.0000       1.312363        35.7112 
  82   0.0000       1.324319        36.0366 
  83   0.0000       1.394788        37.9541 
  84   0.0000       1.425983        38.8030 
  85   0.0000       1.495474        40.6939 
  86   0.0000       1.548521        42.1374 
  87   0.0000       1.614573        43.9348 
  88   0.0000       1.622448        44.1491 
  89   0.0000       1.624600        44.2076 
  90   0.0000       1.655910        45.0596 
  91   0.0000       1.678706        45.6799 
  92   0.0000       1.730653        47.0935 
  93   0.0000       1.821390        49.5625 
  94   0.0000       1.825769        49.6817 
  95   0.0000       1.842680        50.1419 
  96   0.0000       1.853356        50.4324 
  97   0.0000       1.868011        50.8312 
  98   0.0000       1.873340        50.9762 
  99   0.0000       1.901410        51.7400 
 100   0.0000       1.906318        51.8736 
 101   0.0000       1.915170        52.1144 
 102   0.0000       1.924641        52.3721 
 103   0.0000       1.982144        53.9369 
 104   0.0000       1.990860        54.1741 
 105   0.0000       2.015887        54.8551 
 106   0.0000       2.066503        56.2324 
 107   0.0000       2.070131        56.3311 
 108   0.0000       2.110322        57.4248 
 109   0.0000       2.127748        57.8990 
 110   0.0000       2.159563        58.7647 
 111   0.0000       2.179048        59.2949 
 112   0.0000       2.184699        59.4487 
 113   0.0000       2.263598        61.5956 
 114   0.0000       2.307568        62.7921 
 115   0.0000       2.375092        64.6295 
 116   0.0000       2.395118        65.1745 
 117   0.0000       2.422978        65.9326 
 118   0.0000       2.427166        66.0465 
 119   0.0000       2.494471        67.8780 
 120   0.0000       2.525925        68.7339 
 121   0.0000       2.538838        69.0853 
 122   0.0000       2.545414        69.2642 
 123   0.0000       2.571886        69.9846 
 124   0.0000       2.677587        72.8608 
 125   0.0000       2.690621        73.2155 
 126   0.0000       2.771020        75.4033 
 127   0.0000       2.825955        76.8981 
 128   0.0000       2.857568        77.7584 
 129   0.0000       2.880705        78.3880 
 130   0.0000       2.881412        78.4072 
 131   0.0000       2.894014        78.7501 
 132   0.0000       2.894839        78.7726 
 133   0.0000       2.937383        79.9303 
 134   0.0000       3.033061        82.5338 
 135   0.0000       3.034775        82.5804 
 136   0.0000       3.046446        82.8980 
 137   0.0000       3.048348        82.9498 
 138   0.0000       3.085240        83.9536 
 139   0.0000       3.259361        88.6917 
 140   0.0000       3.479232        94.6747 
 141   0.0000       3.588209        97.6401 
 142   0.0000       3.622384        98.5701 

                    ********************************
                    * MULLIKEN POPULATION ANALYSIS *
                    ********************************

-----------------------
MULLIKEN ATOMIC CHARGES
-----------------------
   0 N :   -0.201313
   1 C :    0.226484
   2 N :   -0.201302
   3 H :    0.129106
   4 C :    0.072047
   5 C :    0.072046
   6 C :    0.083369
   7 C :    0.083365
   8 H :    0.092833
   9 H :    0.092783
  10 H :    0.089701
  11 H :    0.089704
  12 H :    0.092808
  13 H :    0.092806
  14 H :    0.092780
  15 H :    0.092782
Sum of atomic charges:    1.0000000

--------------------------------
MULLIKEN REDUCED ORBITAL CHARGES
--------------------------------
  0 N s       :     3.391005  s :     3.391005
      pz      :     1.462499  p :     3.775566
      px      :     1.160310
      py      :     1.152757
      dz2     :     0.002394  d :     0.034743
      dxz     :     0.006175
      dyz     :     0.006698
      dx2y2   :     0.008620
      dxy     :     0.010856
  1 C s       :     3.087106  s :     3.087106
      pz      :     0.934757  p :     2.618622
      px      :     0.769705
      py      :     0.914160
      dz2     :     0.005177  d :     0.067788
      dxz     :     0.016613
      dyz     :     0.006536
      dx2y2   :     0.016854
      dxy     :     0.022609
  2 N s       :     3.390996  s :     3.390996
      pz      :     1.462498  p :     3.775562
      px      :     1.160319
      py      :     1.152745
      dz2     :     0.002394  d :     0.034743
      dxz     :     0.006175
      dyz     :     0.006698
      dx2y2   :     0.008619
      dxy     :     0.010857
  3 H s       :     0.846028  s :     0.846028
      pz      :     0.004344  p :     0.024867
      px      :     0.001273
      py      :     0.019249
  4 C s       :     3.140240  s :     3.140240
      pz      :     1.032330  p :     2.739340
      px      :     0.911126
      py      :     0.795883
      dz2     :     0.004115  d :     0.048374
      dxz     :     0.007452
      dyz     :     0.008116
      dx2y2   :     0.015779
      dxy     :     0.012911
  5 C s       :     3.140229  s :     3.140229
      pz      :     1.032335  p :     2.739351
      px      :     0.911144
      py      :     0.795872
      dz2     :     0.004115  d :     0.048373
      dxz     :     0.007452
      dyz     :     0.008116
      dx2y2   :     0.015780
      dxy     :     0.012910
  6 C s       :     3.003682  s :     3.003682
      pz      :     1.076469  p :     2.875464
      px      :     0.753433
      py      :     1.045562
      dz2     :     0.007300  d :     0.037484
      dxz     :     0.009257
      dyz     :     0.003136
      dx2y2   :     0.011541
      dxy     :     0.006251
  7 C s       :     3.003682  s :     3.003682
      pz      :     1.076473  p :     2.875469
      px      :     0.753451
      py      :     1.045545
      dz2     :     0.007300  d :     0.037484
      dxz     :     0.009257
      dyz     :     0.003135
      dx2y2   :     0.011540
      dxy     :     0.006252
  8 H s       :     0.883168  s :     0.883168
      pz      :     0.012703  p :     0.023999
      px      :     0.005468
      py      :     0.005828
  9 H s       :     0.883215  s :     0.883215
      pz      :     0.012627  p :     0.024002
      px      :     0.005500
      py      :     0.005875
 10 H s       :     0.886042  s :     0.886042
      pz      :     0.005029  p :     0.024257
      px      :     0.002552
      py      :     0.016676
 11 H s       :     0.886039  s :     0.886039
      pz      :     0.005028  p :     0.024257
      px      :     0.002552
      py      :     0.016676
 12 H s       :     0.883191  s :     0.883191
      pz      :     0.012666  p :     0.024000
      px      :     0.005484
      py      :     0.005850
 13 H s       :     0.883194  s :     0.883194
      pz      :     0.012664  p :     0.024000
      px      :     0.005485
      py      :     0.005852
 14 H s       :     0.882052  s :     0.882052
      pz      :     0.004857  p :     0.025167
      px      :     0.008705
      py      :     0.011605
 15 H s       :     0.882050  s :     0.882050
      pz      :     0.004857  p :     0.025168
      px      :     0.008705
      py      :     0.011605


                     *******************************
                     * LOEWDIN POPULATION ANALYSIS *
                     *******************************

----------------------
LOEWDIN ATOMIC CHARGES
----------------------
   0 N :    0.104711
   1 C :    0.131300
   2 N :    0.104714
   3 H :    0.065349
   4 C :    0.023658
   5 C :    0.023658
   6 C :    0.054976
   7 C :    0.054975
   8 H :    0.053176
   9 H :    0.053199
  10 H :    0.054525
  11 H :    0.054530
  12 H :    0.053184
  13 H :    0.053187
  14 H :    0.057429
  15 H :    0.057429

-------------------------------
LOEWDIN REDUCED ORBITAL CHARGES
-------------------------------
  0 N s       :     3.037775  s :     3.037775
      pz      :     1.387060  p :     3.778678
      px      :     1.188970
      py      :     1.202648
      dz2     :     0.004423  d :     0.078837
      dxz     :     0.009920
      dyz     :     0.012900
      dx2y2   :     0.023188
      dxy     :     0.028405
  1 C s       :     2.833750  s :     2.833750
      pz      :     0.957436  p :     2.877691
      px      :     0.894907
      py      :     1.025348
      dz2     :     0.011060  d :     0.157258
      dxz     :     0.034370
      dyz     :     0.010151
      dx2y2   :     0.041929
      dxy     :     0.059748
  2 N s       :     3.037771  s :     3.037771
      pz      :     1.387058  p :     3.778676
      px      :     1.188971
      py      :     1.202647
      dz2     :     0.004423  d :     0.078839
      dxz     :     0.009920
      dyz     :     0.012902
      dx2y2   :     0.023187
      dxy     :     0.028408
  3 H s       :     0.858474  s :     0.858474
      pz      :     0.014745  p :     0.076178
      px      :     0.007108
      py      :     0.054325
  4 C s       :     2.848383  s :     2.848383
      pz      :     1.026294  p :     3.008892
      px      :     1.049874
      py      :     0.932724
      dz2     :     0.008764  d :     0.119066
      dxz     :     0.014594
      dyz     :     0.015677
      dx2y2   :     0.044272
      dxy     :     0.035759
  5 C s       :     2.848382  s :     2.848382
      pz      :     1.026298  p :     3.008896
      px      :     1.049880
      py      :     0.932719
      dz2     :     0.008764  d :     0.119064
      dxz     :     0.014593
      dyz     :     0.015677
      dx2y2   :     0.044274
      dxy     :     0.035756
  6 C s       :     2.820304  s :     2.820304
      pz      :     1.101447  p :     3.030181
      px      :     0.855869
      py      :     1.072864
      dz2     :     0.018100  d :     0.094539
      dxz     :     0.024885
      dyz     :     0.006956
      dx2y2   :     0.029571
      dxy     :     0.015027
  7 C s       :     2.820303  s :     2.820303
      pz      :     1.101450  p :     3.030182
      px      :     0.855882
      py      :     1.072850
      dz2     :     0.018100  d :     0.094539
      dxz     :     0.024887
      dyz     :     0.006954
      dx2y2   :     0.029569
      dxy     :     0.015029
  8 H s       :     0.879625  s :     0.879625
      pz      :     0.034439  p :     0.067199
      px      :     0.016713
      py      :     0.016048
  9 H s       :     0.879595  s :     0.879595
      pz      :     0.034225  p :     0.067206
      px      :     0.016794
      py      :     0.016187
 10 H s       :     0.877618  s :     0.877618
      pz      :     0.013740  p :     0.067857
      px      :     0.008517
      py      :     0.045600
 11 H s       :     0.877615  s :     0.877615
      pz      :     0.013739  p :     0.067855
      px      :     0.008516
      py      :     0.045600
 12 H s       :     0.879612  s :     0.879612
      pz      :     0.034336  p :     0.067204
      px      :     0.016754
      py      :     0.016113
 13 H s       :     0.879610  s :     0.879610
      pz      :     0.034328  p :     0.067203
      px      :     0.016756
      py      :     0.016119
 14 H s       :     0.867755  s :     0.867755
      pz      :     0.016061  p :     0.074816
      px      :     0.025229
      py      :     0.033526
 15 H s       :     0.867754  s :     0.867754
      pz      :     0.016062  p :     0.074817
      px      :     0.025228
      py      :     0.033527


                      *****************************
                      * MAYER POPULATION ANALYSIS *
                      *****************************

  NA   - Mulliken gross atomic population
  ZA   - Total nuclear charge
  QA   - Mulliken gross atomic charge
  VA   - Mayer's total valence
  BVA  - Mayer's bonded valence
  FA   - Mayer's free valence

  ATOM       NA         ZA         QA         VA         BVA        FA
  0 N      7.2013     7.0000    -0.2013     3.5263     3.5263    -0.0000
  1 C      5.7735     6.0000     0.2265     3.8576     3.8576    -0.0000
  2 N      7.2013     7.0000    -0.2013     3.5263     3.5263    -0.0000
  3 H      0.8709     1.0000     0.1291     0.9953     0.9953    -0.0000
  4 C      5.9280     6.0000     0.0720     3.8549     3.8549    -0.0000
  5 C      5.9280     6.0000     0.0720     3.8549     3.8549    -0.0000
  6 C      5.9166     6.0000     0.0834     3.8583     3.8583    -0.0000
  7 C      5.9166     6.0000     0.0834     3.8583     3.8583    -0.0000
  8 H      0.9072     1.0000     0.0928     0.9918     0.9918     0.0000
  9 H      0.9072     1.0000     0.0928     0.9918     0.9918     0.0000
 10 H      0.9103     1.0000     0.0897     0.9974     0.9974     0.0000
 11 H      0.9103     1.0000     0.0897     0.9974     0.9974     0.0000
 12 H      0.9072     1.0000     0.0928     0.9918     0.9918    -0.0000
 13 H      0.9072     1.0000     0.0928     0.9918     0.9918    -0.0000
 14 H      0.9072     1.0000     0.0928     0.9977     0.9977     0.0000
 15 H      0.9072     1.0000     0.0928     0.9977     0.9977    -0.0000

  Mayer bond orders larger than 0.100000
B(  0-N ,  1-C ) :   1.3565 B(  0-N ,  5-C ) :   1.1863 B(  0-N ,  6-C ) :   0.9065 
B(  1-C ,  2-N ) :   1.3565 B(  1-C ,  3-H ) :   0.9712 B(  2-N ,  4-C ) :   1.1863 
B(  2-N ,  7-C ) :   0.9065 B(  4-C ,  5-C ) :   1.5973 B(  4-C , 14-H ) :   0.9913 
B(  5-C , 15-H ) :   0.9913 B(  6-C ,  8-H ) :   0.9734 B(  6-C ,  9-H ) :   0.9733 
B(  6-C , 10-H ) :   0.9717 B(  7-C , 11-H ) :   0.9717 B(  7-C , 12-H ) :   0.9733 
B(  7-C , 13-H ) :   0.9733 

-------
TIMINGS
-------

Total SCF time: 0 days 0 hours 1 min 49 sec 

Total time                  ....     109.929 sec
Sum of individual times     ....     109.620 sec  ( 99.7%)

Fock matrix formation       ....     107.452 sec  ( 97.7%)
  Split-RI-J                ....       3.901 sec  (  3.6% of F)
  Chain of spheres X        ....      84.048 sec  ( 78.2% of F)
  XC integration            ....      13.355 sec  ( 12.4% of F)
    Basis function eval.    ....       4.732 sec  ( 35.4% of XC)
    Density eval.           ....       2.529 sec  ( 18.9% of XC)
    XC-Functional eval.     ....       2.640 sec  ( 19.8% of XC)
    XC-Potential eval.      ....       2.972 sec  ( 22.3% of XC)
Diagonalization             ....       0.036 sec  (  0.0%)
Density matrix formation    ....       0.004 sec  (  0.0%)
Population analysis         ....       0.007 sec  (  0.0%)
Initial guess               ....       0.342 sec  (  0.3%)
Orbital Transformation      ....       0.000 sec  (  0.0%)
Orbital Orthonormalization  ....       0.000 sec  (  0.0%)
DIIS solution               ....       0.011 sec  (  0.0%)
SOSCF solution              ....       0.013 sec  (  0.0%)
Grid generation             ....       1.755 sec  (  1.6%)

Maximum memory used throughout the entire SCF-calculation: 64.7 MB


-------------------------------------------------------------------------------
                          DFT DISPERSION CORRECTION                            
                                                                               
                                 DFTD4 V2.5                                    
-------------------------------------------------------------------------------
The WB97X functional is recognized
Active option DFTDOPT                   ...         5   

Starting D4
-------------------------   ----------------
Dispersion correction           -0.001655783
-------------------------   ----------------


-------------------------   --------------------
FINAL SINGLE POINT ENERGY      -305.013846809496
-------------------------   --------------------

------------------------------------------------------------------------------
                         ORCA SCF GRADIENT CALCULATION
------------------------------------------------------------------------------

 ... reading COSX grid (gridx3)
Gradient of the Kohn-Sham DFT energy:
Kohn-Sham wavefunction type      ... RKS
Hartree-Fock exchange scaling    ...    0.158
Number of operators              ...    1
Number of atoms                  ...   16
Basis set dimensions             ...  143
Integral neglect threshold       ... 2.5e-11
Integral primitive cutoff        ... 2.5e-12
SHARK Integral package           ... ON

Nuc. rep. gradient       (SHARK) ... done (  0.0 sec)
HCore & Overlap gradient (SHARK) ... done (  0.2 sec)
RI-J gradient            (SHARK) ... done (  1.0 sec)
COSX-gradient                    ... done ( 18.5 sec)
Exchange-correlation gradient    ... done
Dispersion correction            ... Starting D4


------------------- 
Dispersion Gradient 
------------------- 
   1  :   -0.000008119    0.000002706    0.000000002
   2  :    0.000000001    0.000014229   -0.000000001
   3  :    0.000008119    0.000002706    0.000000001
   4  :   -0.000000000   -0.000002636   -0.000000000
   5  :    0.000002105   -0.000000792    0.000000001
   6  :   -0.000002105   -0.000000793    0.000000000
   7  :   -0.000030568   -0.000006835   -0.000000005
   8  :    0.000030567   -0.000006837   -0.000000000
   9  :   -0.000006733   -0.000001564   -0.000000159
  10  :   -0.000006731   -0.000001565    0.000000159
  11  :   -0.000007966   -0.000002030    0.000000003
  12  :    0.000007966   -0.000002030   -0.000000000
  13  :    0.000006732   -0.000001565    0.000000159
  14  :    0.000006732   -0.000001565   -0.000000159
  15  :    0.000003143    0.000004285   -0.000000000
  16  :   -0.000003143    0.000004284   -0.000000000

  |G| =    0.000052067

done

------------------
CARTESIAN GRADIENT
------------------

   1   N   :   -0.011155276    0.004309419   -0.000013255
   2   C   :    0.000017179   -0.001480639   -0.000003068
   3   N   :    0.011150572    0.004341165    0.000001280
   4   H   :   -0.000004448    0.012988571   -0.000002012
   5   C   :    0.011646905   -0.005538926    0.000006447
   6   C   :   -0.011659014   -0.005536963   -0.000001411
   7   C   :    0.011152219    0.002407633    0.000053842
   8   C   :   -0.011155284    0.002409892    0.000001245
   9   H   :    0.000744784   -0.001837836    0.005025790
  10   H   :    0.000747810   -0.001879626   -0.005023670
  11   H   :   -0.001283382    0.006032510   -0.000037180
  12   H   :    0.001285030    0.006022971    0.000000993
  13   H   :   -0.000748070   -0.001860831   -0.005029442
  14   H   :   -0.000746470   -0.001861791    0.005025897
  15   H   :   -0.009053475   -0.009397765    0.000000541
  16   H   :    0.009060975   -0.009394036   -0.000002391

Difference to translation invariance:
           :    0.0000000565   -0.0002762523    0.0000036055

Difference to rotation invariance:
           :    0.0000070525    0.0000017306   -0.0000001945

Norm of the cartesian gradient     ...    0.0398013702
RMS gradient                       ...    0.0057448330
MAX gradient                       ...    0.0129885713

-------
TIMINGS
-------

Total SCF gradient time            ...       25.126 sec

One electron gradient       ....       0.175 sec  (  0.7%)
RI-J Coulomb gradient       ....       0.996 sec  (  4.0%)
COSX gradient               ....      18.543 sec  ( 73.8%)
XC gradient                 ....       4.257 sec  ( 16.9%)
CPCM gradient               ....       0.394 sec  (  1.6%)
   A-Matrix (El+Nuc)        ....       0.038 sec  (  0.2%)
   Potential                ....       0.356 sec  (  1.4%)

Maximum memory used throughout the entire SCFGRAD-calculation: 51.9 MB
------------------------------------------------------------------------------
                         ORCA GEOMETRY RELAXATION STEP
------------------------------------------------------------------------------

Reading the OPT-File                    .... done
Getting information on internals        .... done
Copying old internal coords+grads       .... done
Making the new internal coordinates     .... (new redundants).... done
Validating the new internal coordinates .... (new redundants).... done
Calculating the B-matrix                .... done
Calculating the G,G- and P matrices     .... done
Transforming gradient to internals      .... done
Projecting the internal gradient        .... done
Number of atoms                         ....  16
Number of internal coordinates          ....  75
Current Energy                          ....  -305.013846809 Eh
Current gradient norm                   ....     0.039801370 Eh/bohr
Maximum allowed component of the step   ....  0.300
Current trust radius                    ....  0.300
Evaluating the initial hessian          ....  (Almloef) done
Projecting the Hessian                  .... done
Forming the augmented Hessian           .... done
Diagonalizing the augmented Hessian     .... done
Last element of RFO vector              ....  0.995923360
Lowest eigenvalues of augmented Hessian:
 -0.003507843  0.018782591  0.018782606  0.027224516  0.028545275
Length of the computed step             ....  0.090572679
The final length of the internal step   ....  0.090572679
Converting the step to cartesian space:
 Initial RMS(Int)=    0.0104584321
Transforming coordinates:
 Iter   0:  RMS(Cart)=    0.0182069475 RMS(Int)=    1.2566695736
 Iter   1:  RMS(Cart)=    0.0000887415 RMS(Int)=    0.0000354126
 Iter   2:  RMS(Cart)=    0.0000008690 RMS(Int)=    0.0000004867
 Iter   3:  RMS(Cart)=    0.0000000086 RMS(Int)=    0.0000000051
done
Storing new coordinates                 .... done

                                .--------------------.
          ----------------------|Geometry convergence|-------------------------
          Item                value                   Tolerance       Converged
          ---------------------------------------------------------------------
          RMS gradient        0.0045770358            0.0001000000      NO
          MAX gradient        0.0147634359            0.0003000000      NO
          RMS step            0.0104584321            0.0020000000      NO
          MAX step            0.0336427735            0.0040000000      NO
          ........................................................
          Max(Bonds)      0.0178      Max(Angles)    0.57
          Max(Dihed)        0.17      Max(Improp)    0.00
          ---------------------------------------------------------------------

The optimization has not yet converged - more geometry cycles are needed


    ---------------------------------------------------------------------------
                         Redundant Internal Coordinates
                            (Angstroem and degrees)

        Definition                    Value    dE/dq     Step     New-Value
    ----------------------------------------------------------------------------
     1. B(C   1,N   0)                1.3301 -0.002034  0.0015    1.3316   
     2. B(N   2,C   1)                1.3301 -0.002040  0.0015    1.3316   
     3. B(H   3,C   1)                1.0732 -0.013006  0.0178    1.0910   
     4. B(C   4,N   2)                1.3617 -0.014763  0.0125    1.3742   
     5. B(C   5,C   4)                1.3619  0.000800 -0.0005    1.3613   
     6. B(C   5,N   0)                1.3617 -0.014755  0.0125    1.3742   
     7. B(C   6,N   0)                1.4381 -0.012287  0.0138    1.4519   
     8. B(C   7,N   2)                1.4381 -0.012286  0.0138    1.4519   
     9. B(H   8,C   6)                1.0906 -0.005059  0.0074    1.0980   
    10. B(H   9,C   6)                1.0906 -0.005066  0.0074    1.0979   
    11. B(H  10,C   6)                1.0875 -0.006002  0.0087    1.0961   
    12. B(H  11,C   7)                1.0875 -0.005993  0.0086    1.0961   
    13. B(H  12,C   7)                1.0906 -0.005068  0.0074    1.0980   
    14. B(H  13,C   7)                1.0906 -0.005064  0.0074    1.0980   
    15. B(H  14,C   4)                1.0711 -0.013007  0.0177    1.0888   
    16. B(H  15,C   5)                1.0711 -0.013009  0.0177    1.0888   
    17. A(C   1,N   0,C   6)          126.71  0.003786   -0.51    126.20   
    18. A(C   5,N   0,C   6)          125.34  0.000429   -0.05    125.29   
    19. A(C   1,N   0,C   5)          107.95 -0.004215    0.56    108.51   
    20. A(N   0,C   1,N   2)          109.47  0.004105   -0.57    108.90   
    21. A(N   2,C   1,H   3)          125.26 -0.002048    0.29    125.55   
    22. A(N   0,C   1,H   3)          125.26 -0.002057    0.29    125.55   
    23. A(C   1,N   2,C   7)          126.70  0.003764   -0.50    126.20   
    24. A(C   1,N   2,C   4)          107.96 -0.004210    0.56    108.51   
    25. A(C   4,N   2,C   7)          125.34  0.000446   -0.05    125.29   
    26. A(N   2,C   4,C   5)          107.31  0.002161   -0.27    107.04   
    27. A(C   5,C   4,H  14)          130.11 -0.001972    0.27    130.38   
    28. A(N   2,C   4,H  14)          122.58 -0.000188   -0.00    122.58   
    29. A(N   0,C   5,C   4)          107.31  0.002159   -0.27    107.04   
    30. A(N   0,C   5,H  15)          122.59 -0.000179   -0.01    122.58   
    31. A(C   4,C   5,H  15)          130.10 -0.001980    0.28    130.38   
    32. A(N   0,C   6,H  10)          110.00  0.001665   -0.35    109.64   
    33. A(H   8,C   6,H   9)          108.44 -0.002316    0.54    108.98   
    34. A(N   0,C   6,H   9)          110.08  0.001651   -0.28    109.80   
    35. A(N   0,C   6,H   8)          110.08  0.001619   -0.27    109.82   
    36. A(H   9,C   6,H  10)          109.11 -0.001361    0.19    109.29   
    37. A(H   8,C   6,H  10)          109.10 -0.001365    0.19    109.29   
    38. A(H  12,C   7,H  13)          108.44 -0.002317    0.54    108.98   
    39. A(H  11,C   7,H  13)          109.10 -0.001365    0.19    109.29   
    40. A(N   2,C   7,H  13)          110.08  0.001637   -0.27    109.81   
    41. A(H  11,C   7,H  12)          109.10 -0.001364    0.19    109.29   
    42. A(N   2,C   7,H  12)          110.08  0.001636   -0.27    109.81   
    43. A(N   2,C   7,H  11)          109.99  0.001665   -0.35    109.64   
    44. D(H   3,C   1,N   0,C   6)     -0.02  0.000001   -0.00     -0.02   
    45. D(N   2,C   1,N   0,C   6)    179.98  0.000001   -0.00    179.98   
    46. D(N   2,C   1,N   0,C   5)      0.00  0.000002   -0.00      0.00   
    47. D(H   3,C   1,N   0,C   5)   -180.00  0.000002   -0.00   -180.00   
    48. D(C   7,N   2,C   1,N   0)    180.00  0.000000   -0.00    180.00   
    49. D(C   4,N   2,C   1,N   0)     -0.00 -0.000000    0.00     -0.00   
    50. D(C   4,N   2,C   1,H   3)   -180.00 -0.000000    0.00   -180.00   
    51. D(C   7,N   2,C   1,H   3)     -0.00  0.000000   -0.00     -0.00   
    52. D(H  14,C   4,N   2,C   1)    180.00  0.000001   -0.00    180.00   
    53. D(H  14,C   4,N   2,C   7)      0.00  0.000000   -0.00      0.00   
    54. D(C   5,C   4,N   2,C   7)   -180.00 -0.000002    0.00   -179.99   
    55. D(C   5,C   4,N   2,C   1)     -0.00 -0.000001    0.00      0.00   
    56. D(H  15,C   5,N   0,C   1)    180.00 -0.000002    0.00    180.00   
    57. D(C   4,C   5,N   0,C   6)   -179.98 -0.000002    0.00   -179.98   
    58. D(C   4,C   5,N   0,C   1)     -0.00 -0.000002    0.00      0.00   
    59. D(H  15,C   5,C   4,H  14)      0.00 -0.000000    0.00      0.00   
    60. D(H  15,C   5,C   4,N   2)   -180.00  0.000002   -0.00   -180.00   
    61. D(N   0,C   5,C   4,H  14)   -180.00  0.000000   -0.00   -180.00   
    62. D(N   0,C   5,C   4,N   2)      0.00  0.000003   -0.00     -0.00   
    63. D(H  15,C   5,N   0,C   6)      0.02 -0.000002    0.00      0.02   
    64. D(H  10,C   6,N   0,C   5)   -179.76 -0.000009    0.00   -179.76   
    65. D(H  10,C   6,N   0,C   1)      0.27 -0.000007    0.00      0.27   
    66. D(H   9,C   6,N   0,C   5)    -59.50  0.000410   -0.16    -59.67   
    67. D(H   9,C   6,N   0,C   1)    120.52  0.000412   -0.17    120.36   
    68. D(H   8,C   6,N   0,C   5)     59.99 -0.000402    0.16     60.15   
    69. D(H   8,C   6,N   0,C   1)   -119.99 -0.000400    0.16   -119.83   
    70. D(H  12,C   7,N   2,C   4)     59.76 -0.000405    0.16     59.92   
    71. D(H  12,C   7,N   2,C   1)   -120.24 -0.000406    0.16   -120.08   
    72. D(H  11,C   7,N   2,C   4)   -179.99  0.000000   -0.00   -179.99   
    73. D(H  13,C   7,N   2,C   1)    120.27  0.000405   -0.16    120.11   
    74. D(H  11,C   7,N   2,C   1)      0.02 -0.000000    0.00      0.02   
    75. D(H  13,C   7,N   2,C   4)    -59.73  0.000405   -0.16    -59.90   
    ----------------------------------------------------------------------------

         *************************************************************
         *                GEOMETRY OPTIMIZATION CYCLE   2            *
         *************************************************************
---------------------------------
CARTESIAN COORDINATES (ANGSTROEM)
---------------------------------
  N     -1.083357   -0.103759    0.000126
  C      0.000023   -0.877915    0.000071
  N      1.083369   -0.103713   -0.000041
  H      0.000017   -1.968880    0.000151
  C      0.680653    1.210182   -0.000077
  C     -0.680689    1.210154    0.000042
  C     -2.462251   -0.558375   -0.000162
  C      2.462247   -0.558375   -0.000030
  H     -2.976507   -0.186695   -0.896230
  H     -2.979096   -0.179251    0.891251
  H     -2.488966   -1.654168    0.004355
  H      2.488907   -1.654179   -0.000223
  H      2.977780   -0.183156    0.893810
  H      2.977869   -0.182849   -0.893689
  H      1.386028    2.039552   -0.000115
  H     -1.386053    2.039533    0.000088

----------------------------
CARTESIAN COORDINATES (A.U.)
----------------------------
  NO LB      ZA    FRAG     MASS         X           Y           Z
   0 N     7.0000    0    14.007   -2.047247   -0.196075    0.000238
   1 C     6.0000    0    12.011    0.000044   -1.659020    0.000135
   2 N     7.0000    0    14.007    2.047271   -0.195989   -0.000077
   3 H     1.0000    0     1.008    0.000032   -3.720644    0.000285
   4 C     6.0000    0    12.011    1.286247    2.286912   -0.000146
   5 C     6.0000    0    12.011   -1.286316    2.286860    0.000079
   6 C     6.0000    0    12.011   -4.652979   -1.055175   -0.000307
   7 C     6.0000    0    12.011    4.652972   -1.055176   -0.000058
   8 H     1.0000    0     1.008   -5.624783   -0.352802   -1.693628
   9 H     1.0000    0     1.008   -5.629676   -0.338736    1.684221
  10 H     1.0000    0     1.008   -4.703465   -3.125925    0.008230
  11 H     1.0000    0     1.008    4.703353   -3.125945   -0.000421
  12 H     1.0000    0     1.008    5.627188   -0.346115    1.689057
  13 H     1.0000    0     1.008    5.627356   -0.345535   -1.688827
  14 H     1.0000    0     1.008    2.619214    3.854194   -0.000217
  15 H     1.0000    0     1.008   -2.619262    3.854159    0.000167

--------------------------------
INTERNAL COORDINATES (ANGSTROEM)
--------------------------------
 N      0   0   0     0.000000000000     0.00000000     0.00000000
 C      1   0   0     1.331552157284     0.00000000     0.00000000
 N      2   1   0     1.331550656530   108.90019813     0.00000000
 H      2   1   3     1.090964540573   125.54831275   179.99746360
 C      3   2   1     1.374226745545   108.51054405     0.00000000
 C      5   3   2     1.361342109515   107.03942255     0.00000000
 C      1   2   3     1.451903665210   126.20414604   179.97991239
 C      3   2   1     1.451903137777   126.19973469   179.99514942
 H      7   1   2     1.097971762162   109.81500093   240.16926328
 H      7   1   2     1.097944439885   109.80295221   120.35667358
 H      7   1   2     1.096128534957   109.64357414     0.26600442
 H      8   3   2     1.096127801774   109.64282621     0.00000000
 H      8   3   2     1.097959251635   109.81053075   239.92325374
 H      8   3   2     1.097957702427   109.80921840   120.10950755
 H      5   3   2     1.088764898627   122.57839027   179.99683249
 H      6   5   3     1.088764745383   130.37907687   179.99789320

---------------------------
INTERNAL COORDINATES (A.U.)
---------------------------
 N      0   0   0     0.000000000000     0.00000000     0.00000000
 C      1   0   0     2.516268910298     0.00000000     0.00000000
 N      2   1   0     2.516266074284   108.90019813     0.00000000
 H      2   1   3     2.061624203502   125.54831275   179.99746360
 C      3   2   1     2.596912194990   108.51054405     0.00000000
 C      5   3   2     2.572563761559   107.03942255     0.00000000
 C      1   2   3     2.743700300083   126.20414604   179.97991239
 C      3   2   1     2.743699303379   126.19973469   179.99514942
 H      7   1   2     2.074865933265   109.81500093   240.16926328
[...]
     34       0.059845   0.018075  -0.010456   0.001974   0.018392  -0.007033
     35       0.000039   0.224530   0.459101   0.473238   0.000135   0.000183
     36       0.012695   0.384345  -0.031739   0.185374  -0.068428  -0.208230
     37      -0.360145  -0.223321  -0.268732  -0.328792  -0.321201  -0.199684
     38       0.140515  -0.168732   0.129209   0.008355   0.191019   0.196245
     39       0.012799   0.242834  -0.322316  -0.118600  -0.068440  -0.208336
     40      -0.360131   0.079543   0.351383   0.312281  -0.320976  -0.199415
     41      -0.140604   0.195129  -0.075453   0.046635  -0.191137  -0.196348
     42       0.150383   0.009708  -0.006020   0.001573  -0.038727  -0.149681
     43      -0.060638  -0.010842   0.006386  -0.001415  -0.064378   0.034707
     44      -0.000024  -0.000310  -0.000658  -0.000758   0.000021  -0.000006
     45       0.150385  -0.010212   0.005323  -0.000638   0.038724  -0.149685
     46       0.060641  -0.010898   0.006298  -0.001283  -0.064377  -0.034695
     47      -0.000039   0.000442   0.000548  -0.000782   0.000043  -0.000025
                 36         37         38         39         40         41    
      0      -0.133601   0.193319  -0.275568   0.000339   0.000742  -0.000006
      1       0.142969  -0.074280   0.033399   0.000296  -0.000070  -0.000003
      2       0.000026   0.000024  -0.000046   0.000003   0.000003   0.000400
      3       0.000001  -0.000016   0.442146   0.001413  -0.000000  -0.000001
      4      -0.197836   0.124619   0.000005  -0.000000  -0.000204   0.000002
      5       0.000012  -0.000007  -0.000013  -0.000001  -0.000000  -0.000001
      6       0.133602  -0.193299  -0.275585   0.000338  -0.000742   0.000001
      7       0.142954  -0.074279  -0.033406  -0.000296  -0.000070  -0.000000
      8      -0.000020   0.000006   0.000006  -0.000000  -0.000001  -0.000398
      9       0.000011   0.000022  -0.556050  -0.001560   0.000000   0.000004
     10      -0.242948   0.175354   0.000010  -0.000000   0.000801  -0.000048
     11      -0.000014   0.000014  -0.000028   0.000005   0.000004   0.000001
     12       0.176592   0.347969   0.069915   0.000180  -0.000481  -0.000001
     13      -0.047134  -0.039373  -0.059862  -0.000275   0.000481  -0.000001
     14      -0.000003  -0.000023   0.000005  -0.000001  -0.000001  -0.000101
     15      -0.176596  -0.347975   0.069889   0.000180   0.000481  -0.000002
     16      -0.047145  -0.039378   0.059859   0.000275   0.000481  -0.000001
     17       0.000012   0.000025  -0.000004  -0.000000  -0.000000   0.000102
     18       0.042240  -0.037225   0.037899  -0.033066  -0.033145   0.000003
     19       0.003309   0.018506  -0.000487  -0.008101  -0.008137   0.000171
     20      -0.000011  -0.000037   0.000071  -0.000082  -0.000082  -0.068294
     21      -0.042246   0.037223   0.037903  -0.033052   0.033159   0.000001
     22       0.003311   0.018506   0.000488   0.008097  -0.008140   0.000027
     23      -0.000003   0.000002   0.000006  -0.000007   0.000007   0.067953
     24       0.243172  -0.154571   0.188428   0.190045   0.190415   0.227862
     25      -0.153738  -0.020727   0.069367  -0.142932  -0.142836  -0.174016
     26      -0.170326   0.048057  -0.057230   0.346725   0.346736   0.409896
     27       0.245374  -0.155358   0.188627   0.190533   0.190902  -0.227799
     28      -0.149367  -0.021708   0.070141  -0.145349  -0.145254   0.176449
     29       0.172279  -0.048363   0.057258  -0.344201  -0.344210   0.405639
     30      -0.368005   0.105113   0.021704   0.001234   0.001396   0.000005
     31       0.004736   0.018704  -0.002187   0.382580   0.381721  -0.004408
     32      -0.002179   0.000368  -0.000209  -0.001580  -0.001576  -0.005584
     33       0.367978  -0.105120   0.021695   0.001232  -0.001395   0.000000
     34       0.004745   0.018702   0.002187  -0.382423   0.381883  -0.000380
     35       0.000148  -0.000025  -0.000010  -0.000070   0.000070   0.005574
     36      -0.244150   0.154927   0.188528   0.190192  -0.190720  -0.226713
     37      -0.151670  -0.021186  -0.069739   0.144037  -0.144061  -0.174334
     38       0.171214  -0.048191  -0.057232   0.345398  -0.345697  -0.405897
     39      -0.244294   0.154963   0.188542   0.190230  -0.190759   0.226691
     40      -0.151404  -0.021238  -0.069775   0.144131  -0.144156   0.174401
     41      -0.171325   0.048215   0.057257  -0.345246   0.345544  -0.405587
     42       0.007065  -0.139823  -0.210163  -0.002304  -0.000004   0.000005
     43       0.134185   0.474430   0.169364  -0.001313  -0.000610   0.000007
     44       0.000003  -0.000007  -0.000016   0.000001   0.000000   0.000388
     45      -0.007049   0.139842  -0.210152  -0.002304   0.000005  -0.000001
     46       0.134188   0.474441  -0.169326   0.001313  -0.000611   0.000005
     47       0.000015  -0.000017   0.000002   0.000002   0.000002  -0.000392
                 42         43         44         45         46         47    
      0       0.000006  -0.000389  -0.000217   0.003586  -0.000038   0.000876
      1       0.000003  -0.000362  -0.000274  -0.003330  -0.001055   0.002718
      2      -0.000335  -0.000000  -0.000001  -0.000000   0.000000  -0.000001
      3       0.000001  -0.000002   0.000139   0.000000   0.002011  -0.000000
      4      -0.000002   0.000326   0.000004   0.093469  -0.000003   0.012248
      5       0.000220   0.000003   0.000004  -0.000009  -0.000000  -0.000001
      6      -0.000000   0.000394  -0.000207  -0.003586  -0.000037  -0.000876
      7      -0.000000  -0.000369   0.000265  -0.003330   0.001056   0.002718
      8      -0.000337   0.000000   0.000000   0.000001  -0.000000   0.000000
      9      -0.000005  -0.000016   0.001250  -0.000002   0.000448  -0.000000
     10       0.000041  -0.007010  -0.000088  -0.988816   0.000034  -0.113559
     11      -0.000396  -0.000006  -0.000008   0.000093  -0.000001   0.000011
     12       0.000001  -0.000007  -0.000078   0.006553  -0.039710  -0.049575
     13       0.000000  -0.000407   0.000373   0.003554  -0.048942  -0.048201
     14      -0.000141  -0.000000  -0.000001  -0.000000   0.000002   0.000003
     15       0.000002   0.000009  -0.000078  -0.006556  -0.039707   0.049575
     16       0.000001  -0.000397  -0.000384   0.003557   0.048940  -0.048202
     17      -0.000140  -0.000001  -0.000001   0.000001   0.000003  -0.000004
     18      -0.000003  -0.019381  -0.019935  -0.000095  -0.000359   0.000054
     19      -0.000169   0.064522   0.066123  -0.000092   0.000620  -0.000614
     20       0.068016   0.000161   0.000160   0.000004   0.000001   0.000001
     21       0.000000   0.019885  -0.019431   0.000095  -0.000359  -0.000054
     22       0.000022   0.066196  -0.064447  -0.000092  -0.000620  -0.000614
     23       0.068357  -0.000026   0.000022  -0.000000   0.000000  -0.000000
     24      -0.226581   0.116564   0.119877  -0.001554   0.001682  -0.000881
     25       0.173206  -0.085201  -0.087597  -0.000158  -0.000627  -0.000146
     26      -0.407891   0.217558   0.223575  -0.000988   0.002349  -0.000938
     27       0.226524   0.120172   0.123548  -0.001547   0.001710  -0.000896
     28      -0.175631  -0.089277  -0.091759  -0.000169  -0.000656  -0.000138
     29      -0.403666  -0.221907  -0.227981   0.000952  -0.002374   0.000948
     30      -0.000006   0.000007   0.000021  -0.001503   0.001114  -0.001364
     31       0.004372  -0.585461  -0.600276   0.004242  -0.002275   0.003357
     32       0.005590   0.002431   0.002492  -0.000010   0.000010  -0.000012
     33      -0.000001  -0.000010   0.000023   0.001504   0.001114   0.001364
     34      -0.000341  -0.600685   0.585089   0.004245   0.002274   0.003358
     35       0.005636  -0.000112   0.000108   0.000000   0.000001   0.000000
     36      -0.227704  -0.121293   0.118491   0.001551   0.001696   0.000889
     37      -0.175267  -0.089361   0.087270  -0.000163   0.000641  -0.000141
     38      -0.407969  -0.225257   0.219890   0.000972   0.002361   0.000944
     39       0.227691  -0.121602   0.118778   0.001551   0.001697   0.000888
     40       0.175340  -0.089640   0.087534  -0.000163   0.000642  -0.000142
     41      -0.407680   0.225665  -0.220271  -0.000970  -0.002361  -0.000942
     42      -0.000002   0.002567  -0.003375  -0.053644   0.461248   0.461981
     43      -0.000003   0.002492  -0.003237  -0.061357   0.532229   0.524625
     44       0.000736  -0.000001   0.000000   0.000002  -0.000022  -0.000022
     45      -0.000000  -0.002480  -0.003440   0.053678   0.461229  -0.461992
     46      -0.000004   0.002409   0.003299  -0.061396  -0.532213   0.524641
     47       0.000734   0.000007   0.000007  -0.000004  -0.000039   0.000040


-----------
IR SPECTRUM
-----------

 Mode   freq       eps      Int      T**2         TX        TY        TZ
       cm**-1   L/(mol*cm) km/mol    a.u.
----------------------------------------------------------------------------
  8:    183.73   0.001480    7.48  0.002515  ( 0.000011  0.000023 -0.050146)
  9:    273.83   0.000000    0.00  0.000000  ( 0.000013  0.000509 -0.000004)
 10:    275.53   0.000188    0.95  0.000213  ( 0.000000 -0.014601 -0.000020)
 11:    419.58   0.000073    0.37  0.000054  ( 0.007350 -0.000000  0.000011)
 12:    623.47   0.000219    1.10  0.000109  (-0.000000 -0.010461  0.000081)
 13:    643.58   0.010534   53.23  0.005108  ( 0.000017 -0.000014 -0.071468)
 14:    644.22   0.000000    0.00  0.000000  ( 0.000018 -0.000027 -0.000042)
 15:    738.65   0.000840    4.25  0.000355  ( 0.018841  0.000000  0.000100)
 16:    760.86   0.010181   51.45  0.004176  (-0.000003 -0.000006  0.064619)
 17:    882.90   0.005836   29.49  0.002063  (-0.000004 -0.000012 -0.045416)
 18:    907.04   0.000000    0.00  0.000000  ( 0.000004  0.000005  0.000000)
 19:   1048.73   0.001169    5.91  0.000348  (-0.018651 -0.000001  0.000001)
 20:   1053.82   0.000824    4.16  0.000244  (-0.000001  0.015620 -0.000008)
 21:   1095.10   0.002935   14.83  0.000836  (-0.000003 -0.028918  0.000004)
 22:   1100.26   0.003554   17.96  0.001008  ( 0.031750 -0.000002  0.000030)
 23:   1117.13   0.000132    0.67  0.000037  ( 0.000000  0.006072  0.000025)
 24:   1141.09   0.000000    0.00  0.000000  ( 0.000042  0.000030 -0.000009)
 25:   1146.33   0.000327    1.65  0.000089  ( 0.000059  0.000027  0.009433)
 26:   1205.17   0.022806  115.25  0.005905  (-0.076846 -0.000000 -0.000004)
 27:   1281.40   0.000338    1.71  0.000082  (-0.009075  0.000000  0.000003)
 28:   1406.60   0.000022    0.11  0.000005  (-0.000001  0.002189 -0.000023)
 29:   1433.27   0.002761   13.95  0.000601  ( 0.024515 -0.000003 -0.000472)
 30:   1435.78   0.001748    8.83  0.000380  (-0.019492  0.000000  0.000041)
 31:   1442.87   0.000439    2.22  0.000095  (-0.000142  0.008955 -0.003833)
 32:   1443.10   0.000179    0.90  0.000039  (-0.000190 -0.005309  0.003228)
 33:   1443.87   0.009690   48.97  0.002094  ( 0.000235  0.001057  0.045751)
 34:   1455.94   0.009426   47.63  0.002020  (-0.000002 -0.044948 -0.000051)
 35:   1495.48   0.000082    0.42  0.000017  (-0.004146  0.000000  0.000012)
 36:   1514.59   0.001326    6.70  0.000273  ( 0.000000 -0.016527 -0.000012)
 37:   1662.25   0.002305   11.65  0.000433  (-0.000003  0.020803 -0.000008)
 38:   1671.91   0.027702  140.00  0.005171  ( 0.071907  0.000001  0.000013)
 39:   3102.63   0.004383   22.15  0.000441  (-0.020997 -0.000001 -0.000020)
 40:   3102.89   0.000262    1.33  0.000026  ( 0.000004 -0.005135 -0.000017)
 41:   3222.78   0.000000    0.00  0.000000  ( 0.000000  0.000002 -0.000006)
 42:   3222.81   0.000065    0.33  0.000006  ( 0.000000 -0.000002  0.002509)
 43:   3233.31   0.000004    0.02  0.000000  ( 0.000017 -0.000610  0.000005)
 44:   3233.36   0.000018    0.09  0.000002  (-0.001306 -0.000008  0.000006)
 45:   3300.77   0.012361   62.47  0.001169  ( 0.000001 -0.034186  0.000003)
 46:   3301.23   0.005273   26.65  0.000498  ( 0.022326  0.000001 -0.000001)
 47:   3319.27   0.002574   13.01  0.000242  (-0.000000  0.015557  0.000001)

* The epsilon (eps) is given for a Dirac delta lineshape.
** The dipole moment derivative (T) already includes vibrational overlap.

The first frequency considered to be a vibration is 8
The total number of vibrations considered is 40


--------------------------
THERMOCHEMISTRY AT 298.15K
--------------------------

Temperature         ... 298.15 K
Pressure            ... 1.00 atm
Total Mass          ... 97.14 AMU

Throughout the following assumptions are being made:
  (1) The electronic state is orbitally nondegenerate
  (2) There are no thermally accessible electronically excited states
  (3) Hindered rotations indicated by low frequency modes are not
      treated as such but are treated as vibrations and this may
      cause some error
  (4) All equations used are the standard statistical mechanics
      equations for an ideal gas
  (5) All vibrations are strictly harmonic

freq.     183.73  E(vib)   ...       0.37 
freq.     273.83  E(vib)   ...       0.28 
freq.     275.53  E(vib)   ...       0.28 
freq.     419.58  E(vib)   ...       0.18 
freq.     623.47  E(vib)   ...       0.09 
freq.     643.58  E(vib)   ...       0.09 
freq.     644.22  E(vib)   ...       0.09 
freq.     738.65  E(vib)   ...       0.06 
freq.     760.86  E(vib)   ...       0.06 
freq.     882.90  E(vib)   ...       0.04 
freq.     907.04  E(vib)   ...       0.03 
freq.    1048.73  E(vib)   ...       0.02 
freq.    1053.82  E(vib)   ...       0.02 
freq.    1095.10  E(vib)   ...       0.02 
freq.    1100.26  E(vib)   ...       0.02 
freq.    1117.13  E(vib)   ...       0.01 
freq.    1141.09  E(vib)   ...       0.01 
freq.    1146.33  E(vib)   ...       0.01 
freq.    1205.17  E(vib)   ...       0.01 
freq.    1281.40  E(vib)   ...       0.01 
freq.    1406.60  E(vib)   ...       0.00 
freq.    1433.27  E(vib)   ...       0.00 
freq.    1435.78  E(vib)   ...       0.00 
freq.    1442.87  E(vib)   ...       0.00 
freq.    1443.10  E(vib)   ...       0.00 
freq.    1443.87  E(vib)   ...       0.00 
freq.    1455.94  E(vib)   ...       0.00 
freq.    1495.48  E(vib)   ...       0.00 
freq.    1514.59  E(vib)   ...       0.00 
freq.    1662.25  E(vib)   ...       0.00 
freq.    1671.91  E(vib)   ...       0.00 
freq.    3102.63  E(vib)   ...       0.00 
freq.    3102.89  E(vib)   ...       0.00 
freq.    3222.78  E(vib)   ...       0.00 
freq.    3222.81  E(vib)   ...       0.00 
freq.    3233.31  E(vib)   ...       0.00 
freq.    3233.36  E(vib)   ...       0.00 
freq.    3300.77  E(vib)   ...       0.00 
freq.    3301.23  E(vib)   ...       0.00 
freq.    3319.27  E(vib)   ...       0.00 

------------
INNER ENERGY
------------

The inner energy is: U= E(el) + E(ZPE) + E(vib) + E(rot) + E(trans)
    E(el)   - is the total energy from the electronic structure calculation
              = E(kin-el) + E(nuc-el) + E(el-el) + E(nuc-nuc)
    E(ZPE)  - the the zero temperature vibrational energy from the frequency calculation
    E(vib)  - the the finite temperature correction to E(ZPE) due to population
              of excited vibrational states
    E(rot)  - is the rotational thermal energy
    E(trans)- is the translational thermal energy

Summary of contributions to the inner energy U:
Electronic energy                ...   -305.01595983 Eh
Zero point energy                ...      0.14121703 Eh      88.61 kcal/mol
Thermal vibrational correction   ...      0.00276778 Eh       1.74 kcal/mol
Thermal rotational correction    ...      0.00141627 Eh       0.89 kcal/mol
Thermal translational correction ...      0.00141627 Eh       0.89 kcal/mol
-----------------------------------------------------------------------
Total thermal energy                   -304.86914248 Eh


Summary of corrections to the electronic energy:
(perhaps to be used in another calculation)
Total thermal correction                  0.00560032 Eh       3.51 kcal/mol
Non-thermal (ZPE) correction              0.14121703 Eh      88.61 kcal/mol
-----------------------------------------------------------------------
Total correction                          0.14681735 Eh      92.13 kcal/mol


--------
ENTHALPY
--------

The enthalpy is H = U + kB*T
                kB is Boltzmann's constant
Total free energy                 ...   -304.86914248 Eh 
Thermal Enthalpy correction       ...      0.00094421 Eh       0.59 kcal/mol
-----------------------------------------------------------------------
Total Enthalpy                    ...   -304.86819827 Eh


Note: Only C1 symmetry has been detected, increase convergence thresholds 
      if your molecule has a higher symmetry. Symmetry factor of 1.0 is   
      used for the rotational entropy correction. 
 

Note: Rotational entropy computed according to Herzberg 
Infrared and Raman Spectra, Chapter V,1, Van Nostrand Reinhold, 1945 
Point Group:  C1, Symmetry Number:   1  
Rotational constants in cm-1:     0.228335     0.068735     0.053932 

Vibrational entropy computed according to the QRRHO of S. Grimme
Chem.Eur.J. 2012 18 9955


-------
ENTROPY
-------

The entropy contributions are T*S = T*(S(el)+S(vib)+S(rot)+S(trans))
     S(el)   - electronic entropy
     S(vib)  - vibrational entropy
     S(rot)  - rotational entropy
     S(trans)- translational entropy
The entropies will be listed as multiplied by the temperature to get
units of energy

Electronic entropy                ...      0.00000000 Eh      0.00 kcal/mol
Vibrational entropy               ...      0.00424833 Eh      2.67 kcal/mol
Rotational entropy                ...      0.01285060 Eh      8.06 kcal/mol
Translational entropy             ...      0.01883016 Eh     11.82 kcal/mol
-----------------------------------------------------------------------
Final entropy term                ...      0.03592909 Eh     22.55 kcal/mol

In case the symmetry of your molecule has not been determined correctly
or in case you have a reason to use a different symmetry number we print 
out the resulting rotational entropy values for sn=1,12 :
 --------------------------------------------------------
|  sn= 1 | S(rot)=       0.01285060 Eh      8.06 kcal/mol|
|  sn= 2 | S(rot)=       0.01219614 Eh      7.65 kcal/mol|
|  sn= 3 | S(rot)=       0.01181331 Eh      7.41 kcal/mol|
|  sn= 4 | S(rot)=       0.01154169 Eh      7.24 kcal/mol|
|  sn= 5 | S(rot)=       0.01133100 Eh      7.11 kcal/mol|
|  sn= 6 | S(rot)=       0.01115885 Eh      7.00 kcal/mol|
|  sn= 7 | S(rot)=       0.01101331 Eh      6.91 kcal/mol|
|  sn= 8 | S(rot)=       0.01088723 Eh      6.83 kcal/mol|
|  sn= 9 | S(rot)=       0.01077602 Eh      6.76 kcal/mol|
|  sn=10 | S(rot)=       0.01067654 Eh      6.70 kcal/mol|
|  sn=11 | S(rot)=       0.01058655 Eh      6.64 kcal/mol|
|  sn=12 | S(rot)=       0.01050440 Eh      6.59 kcal/mol|
 --------------------------------------------------------


-------------------
GIBBS FREE ENERGY
-------------------

The Gibbs free energy is G = H - T*S

Total enthalpy                    ...   -304.86819827 Eh 
Total entropy correction          ...     -0.03592909 Eh    -22.55 kcal/mol
-----------------------------------------------------------------------
Final Gibbs free energy         ...   -304.90412736 Eh

For completeness - the Gibbs free energy minus the electronic energy
G-E(el)                           ...      0.11183247 Eh     70.18 kcal/mol


Timings for individual modules:

Sum of individual times         ...      978.548 sec (=  16.309 min)
GTO integral calculation        ...        1.220 sec (=   0.020 min)   0.1 %
SCF iterations                  ...      468.538 sec (=   7.809 min)  47.9 %
SCF Gradient evaluation         ...      124.313 sec (=   2.072 min)  12.7 %
Geometry relaxation             ...        0.216 sec (=   0.004 min)   0.0 %
Analytical frequency calculation...      384.260 sec (=   6.404 min)  39.3 %
                             ****ORCA TERMINATED NORMALLY****
TOTAL RUN TIME: 0 days 0 hours 16 minutes 19 seconds 257 msec
