
                                 *****************
                                 * O   R   C   A *
                                 *****************

                                            #,                                       
                                            ###                                      
                                            ####                                     
                                            #####                                    
                                            ######                                   
                                           ########,                                 
                                     ,,################,,,,,                         
                               ,,#################################,,                 
                          ,,##########################################,,             
                       ,#########################################, ''#####,          
                    ,#############################################,,   '####,        
                  ,##################################################,,,,####,       
                ,###########''''           ''''###############################       
              ,#####''   ,,,,##########,,,,          '''####'''          '####       
            ,##' ,,,,###########################,,,                        '##       
           ' ,,###''''                  '''############,,,                           
         ,,##''                                '''############,,,,        ,,,,,,###''
      ,#''                                            '''#######################'''  
     '                                                          ''''####''''         
             ,#######,   #######,   ,#######,      ##                                
            ,#'     '#,  ##    ##  ,#'     '#,    #''#        ######   ,####,        
            ##       ##  ##   ,#'  ##            #'  '#       #        #'  '#        
            ##       ##  #######   ##           ,######,      #####,   #    #        
            '#,     ,#'  ##    ##  '#,     ,#' ,#      #,         ##   #,  ,#        
             '#######'   ##     ##  '#######'  #'      '#     #####' # '####'        



                  #######################################################
                  #                        -***-                        #
                  #          Department of theory and spectroscopy      #
                  #    Directorship and core code : Frank Neese         #
                  #        Max Planck Institute fuer Kohlenforschung    #
                  #                Kaiser Wilhelm Platz 1               #
                  #                 D-45470 Muelheim/Ruhr               #
                  #                      Germany                        #
                  #                                                     #
                  #                  All rights reserved                #
                  #                        -***-                        #
                  #######################################################


                         Program Version 5.0.4 -  RELEASE  -


 With contributions from (in alphabetic order):
   Daniel Aravena         : Magnetic Suceptibility
   Michael Atanasov       : Ab Initio Ligand Field Theory (pilot matlab implementation)
   Alexander A. Auer      : GIAO ZORA, VPT2 properties, NMR spectrum
   Ute Becker             : Parallelization
   Giovanni Bistoni       : ED, misc. LED, open-shell LED, HFLD
   Martin Brehm           : Molecular dynamics
   Dmytro Bykov           : SCF Hessian
   Vijay G. Chilkuri      : MRCI spin determinant printing, contributions to CSF-ICE
   Dipayan Datta          : RHF DLPNO-CCSD density
   Achintya Kumar Dutta   : EOM-CC, STEOM-CC
   Dmitry Ganyushin       : Spin-Orbit,Spin-Spin,Magnetic field MRCI
   Miquel Garcia          : C-PCM and meta-GGA Hessian, CC/C-PCM, Gaussian charge scheme
   Yang Guo               : DLPNO-NEVPT2, F12-NEVPT2, CIM, IAO-localization
   Andreas Hansen         : Spin unrestricted coupled pair/coupled cluster methods
   Benjamin Helmich-Paris : MC-RPA, TRAH-SCF, COSX integrals
   Lee Huntington         : MR-EOM, pCC
   Robert Izsak           : Overlap fitted RIJCOSX, COSX-SCS-MP3, EOM
   Marcus Kettner         : VPT2
   Christian Kollmar      : KDIIS, OOCD, Brueckner-CCSD(T), CCSD density, CASPT2, CASPT2-K
   Simone Kossmann        : Meta GGA functionals, TD-DFT gradient, OOMP2, MP2 Hessian
   Martin Krupicka        : Initial AUTO-CI
   Lucas Lang             : DCDCAS
   Marvin Lechner         : AUTO-CI (C++ implementation), FIC-MRCC
   Dagmar Lenk            : GEPOL surface, SMD
   Dimitrios Liakos       : Extrapolation schemes; Compound Job, initial MDCI parallelization
   Dimitrios Manganas     : Further ROCIS development; embedding schemes
   Dimitrios Pantazis     : SARC Basis sets
   Anastasios Papadopoulos: AUTO-CI, single reference methods and gradients
   Taras Petrenko         : DFT Hessian,TD-DFT gradient, ASA, ECA, R-Raman, ABS, FL, XAS/XES, NRVS
   Peter Pinski           : DLPNO-MP2, DLPNO-MP2 Gradient
   Christoph Reimann      : Effective Core Potentials
   Marius Retegan         : Local ZFS, SOC
   Christoph Riplinger    : Optimizer, TS searches, QM/MM, DLPNO-CCSD(T), (RO)-DLPNO pert. Triples
   Tobias Risthaus        : Range-separated hybrids, TD-DFT gradient, RPA, STAB
   Michael Roemelt        : Original ROCIS implementation
   Masaaki Saitow         : Open-shell DLPNO-CCSD energy and density
   Barbara Sandhoefer     : DKH picture change effects
   Avijit Sen             : IP-ROCIS
   Kantharuban Sivalingam : CASSCF convergence, NEVPT2, FIC-MRCI
   Bernardo de Souza      : ESD, SOC TD-DFT
   Georgi Stoychev        : AutoAux, RI-MP2 NMR, DLPNO-MP2 response
   Willem Van den Heuvel  : Paramagnetic NMR
   Boris Wezisla          : Elementary symmetry handling
   Frank Wennmohs         : Technical directorship


 We gratefully acknowledge several colleagues who have allowed us to
 interface, adapt or use parts of their codes:
   Stefan Grimme, W. Hujo, H. Kruse, P. Pracht,  : VdW corrections, initial TS optimization,
                  C. Bannwarth, S. Ehlert          DFT functionals, gCP, sTDA/sTD-DF
   Ed Valeev, F. Pavosevic, A. Kumar             : LibInt (2-el integral package), F12 methods
   Garnet Chan, S. Sharma, J. Yang, R. Olivares  : DMRG
   Ulf Ekstrom                                   : XCFun DFT Library
   Mihaly Kallay                                 : mrcc  (arbitrary order and MRCC methods)
   Jiri Pittner, Ondrej Demel                    : Mk-CCSD
   Frank Weinhold                                : gennbo (NPA and NBO analysis)
   Christopher J. Cramer and Donald G. Truhlar   : smd solvation model
   Lars Goerigk                                  : TD-DFT with DH, B97 family of functionals
   V. Asgeirsson, H. Jonsson                     : NEB implementation
   FAccTs GmbH                                   : IRC, NEB, NEB-TS, DLPNO-Multilevel, CI-OPT
                                                   MM, QMMM, 2- and 3-layer-ONIOM, Crystal-QMMM,
                                                   LR-CPCM, SF, NACMEs, symmetry and pop. for TD-DFT,
                                                   nearIR, NL-DFT gradient (VV10), updates on ESD,
                                                   ML-optimized integration grids
   S Lehtola, MJT Oliveira, MAL Marques          : LibXC Library
   Liviu Ungur et al                             : ANISO software


 Your calculation uses the libint2 library for the computation of 2-el integrals
 For citations please refer to: http://libint.valeyev.net

 Your ORCA version has been built with support for libXC version: 5.1.0
 For citations please refer to: https://tddft.org/programs/libxc/

 This ORCA versions uses:
   CBLAS   interface :  Fast vector & matrix operations
   LAPACKE interface :  Fast linear algebra routines
   SCALAPACK package :  Parallel linear algebra routines
   Shared memory     :  Shared parallel matrices
   BLAS/LAPACK       :  OpenBLAS 0.3.15  USE64BITINT DYNAMIC_ARCH NO_AFFINITY SkylakeX SINGLE_THREADED
        Core in use  :  SkylakeX
   Copyright (c) 2011-2014, The OpenBLAS Project




***************************************
The coordinates will be read from file: 1_prot_aq_3.xyz
***************************************


Your calculation utilizes the atom-pairwise dispersion correction
based on tight binding partial charges (D4)
Cite in your paper:
E.Caldeweyher, C.Bannwarth, S.Grimme, J.Chem.Phys., (2017), 147, 034112.
E.Caldeweyher, S.Ehlert, A.Hansen, H.Neugebauer, S.Grimme, J.Chem.Phys., (2018), in progress.
   

XCFun DFT library Copyright 2009-2010 Ulf Ekstrom and contributors.
See http://admol.org/xcfun for more information.
This is free software; see the source code for copying conditions.
There is ABSOLUTELY NO WARRANTY; not even for MERCHANTABILITY or FITNESS FOR A PARTICULAR PURPOSE.
For details see the documentation.
Scientific users of this library should cite U. Ekstrom, L. Visscher, R. Bast, A. J. Thorvaldsen and K. Ruud;
J.Chem.Theor.Comp. 2010, DOI: 10.1021/ct100117s
XCFun Version 0.99 

================================================================================

----- Orbital basis set information -----
Your calculation utilizes the basis: def2-SVP
   F. Weigend and R. Ahlrichs, Phys. Chem. Chem. Phys. 7, 3297 (2005).

----- AuxJ basis set information -----
Your calculation utilizes the auxiliary basis: def2/J
   F. Weigend, Phys. Chem. Chem. Phys. 8, 1057 (2006).

================================================================================
                                        WARNINGS
                       Please study these warnings very carefully!
================================================================================


WARNING: Geometry Optimization
  ===> : Switching off AutoStart
         For restart on a previous wavefunction, please use MOREAD

INFO   : the flag for use of the SHARK integral package has been found!

================================================================================
                                       INPUT FILE
================================================================================
NAME = 1_prot_aq_3.inp
|  1> # ORCA 5.0.4 - /users/bwb16179/postgrad/2024_03/DFT_Crest_Conformers/Opt/prot/1_prot_aq_3.inp # write input file
|  2> # Basic Mode
|  3> #
|  4> ! Opt Freq wB97X Def2-SVP D4 SlowConv TightSCF Defgrid2 Def2/J RIJCOSX CPCM(Water)
|  5> 
|  6> 
|  7> 
|  8> %maxcore 4500
|  9> 
| 10> %geom
| 11> Maxiter 150
| 12> END
| 13> 
| 14> * xyzfile 1 1 1_prot_aq_3.xyz
| 15> 
| 16>                          ****END OF INPUT****
================================================================================

                       *****************************
                       * Geometry Optimization Run *
                       *****************************

Geometry optimization settings:
Update method            Update   .... BFGS
Choice of coordinates    CoordSys .... Z-matrix Internals
Initial Hessian          InHess   .... Almoef's Model

Convergence Tolerances:
Energy Change            TolE     ....  5.0000e-06 Eh
Max. Gradient            TolMAXG  ....  3.0000e-04 Eh/bohr
RMS Gradient             TolRMSG  ....  1.0000e-04 Eh/bohr
Max. Displacement        TolMAXD  ....  4.0000e-03 bohr
RMS Displacement         TolRMSD  ....  2.0000e-03 bohr
Strict Convergence                ....  False
------------------------------------------------------------------------------
                        ORCA OPTIMIZATION COORDINATE SETUP
------------------------------------------------------------------------------

The optimization will be done in new redundant internal coordinates
Making redundant internal coordinates   ...  (new redundants) done
Evaluating the initial hessian          ...  (Almloef) done
Evaluating the coordinates              ...  done
Calculating the B-matrix                .... done
Calculating the G-matrix                .... done
Diagonalizing the G-matrix              .... done
The first mode is                       ....   33
The number of degrees of freedom        ....   42

    -----------------------------------------------------------------
                    Redundant Internal Coordinates


    -----------------------------------------------------------------
         Definition                    Initial Value    Approx d2E/dq
    -----------------------------------------------------------------
      1. B(C   1,N   0)                  1.3313         0.694330   
      2. B(N   2,C   1)                  1.3312         0.694575   
      3. B(H   3,C   1)                  1.0732         0.383077   
      4. B(C   4,N   2)                  1.3594         0.626257   
      5. B(C   5,C   4)                  1.3637         0.688284   
      6. B(C   5,N   0)                  1.3594         0.626235   
      7. B(C   6,N   0)                  1.4392         0.467083   
      8. B(C   7,N   2)                  1.4392         0.467127   
      9. B(H   8,C   6)                  1.0874         0.363500   
     10. B(H   9,C   6)                  1.0907         0.359213   
     11. B(H  10,C   6)                  1.0901         0.359991   
     12. B(H  11,C   7)                  1.0875         0.363426   
     13. B(H  12,C   7)                  1.0907         0.359114   
     14. B(H  13,C   7)                  1.0900         0.360101   
     15. B(H  14,C   4)                  1.0710         0.386136   
     16. B(H  15,C   5)                  1.0710         0.386161   
     17. A(C   1,N   0,C   6)          125.8986         0.415600   
     18. A(C   5,N   0,C   6)          126.1388         0.408058   
     19. A(C   1,N   0,C   5)          107.9616         0.438011   
     20. A(N   0,C   1,N   2)          109.4260         0.446289   
     21. A(N   2,C   1,H   3)          125.2832         0.361339   
     22. A(N   0,C   1,H   3)          125.2907         0.361318   
     23. A(C   1,N   2,C   7)          125.9293         0.415633   
     24. A(C   1,N   2,C   4)          107.9621         0.438042   
     25. A(C   4,N   2,C   7)          126.1072         0.408068   
     26. A(N   2,C   4,C   5)          107.3275         0.440213   
     27. A(C   5,C   4,H  14)          129.8703         0.363528   
     28. A(N   2,C   4,H  14)          122.8022         0.355511   
     29. A(N   0,C   5,C   4)          107.3228         0.440211   
     30. A(N   0,C   5,H  15)          122.8080         0.355513   
     31. A(C   4,C   5,H  15)          129.8693         0.363532   
     32. A(N   0,C   6,H  10)          110.3934         0.334469   
     33. A(H   8,C   6,H   9)          108.8985         0.291156   
     34. A(N   0,C   6,H   9)          110.4104         0.334349   
     35. A(N   0,C   6,H   8)          109.4898         0.335009   
     36. A(H   9,C   6,H  10)          108.6116         0.290713   
     37. A(H   8,C   6,H  10)          109.0026         0.291255   
     38. A(H  12,C   7,H  13)          108.6139         0.290714   
     39. A(H  11,C   7,H  13)          109.0161         0.291260   
     40. A(N   2,C   7,H  13)          110.3874         0.334491   
     41. A(H  11,C   7,H  12)          108.8784         0.291134   
     42. A(N   2,C   7,H  12)          110.4167         0.334339   
     43. A(N   2,C   7,H  11)          109.4937         0.335003   
     44. D(H   3,C   1,N   0,C   6)      0.3053         0.039830   
     45. D(N   2,C   1,N   0,C   6)   -179.6830         0.039830   
     46. D(N   2,C   1,N   0,C   5)     -0.0077         0.039830   
     47. D(H   3,C   1,N   0,C   5)    179.9805         0.039830   
     48. D(C   7,N   2,C   1,N   0)   -179.6071         0.039861   
     49. D(C   4,N   2,C   1,N   0)     -0.0187         0.039861   
     50. D(C   4,N   2,C   1,H   3)    179.9930         0.039861   
     51. D(C   7,N   2,C   1,H   3)      0.4046         0.039861   
     52. D(H  14,C   4,N   2,C   1)   -179.9539         0.031809   
     53. D(H  14,C   4,N   2,C   7)     -0.3665         0.031809   
     54. D(C   5,C   4,N   2,C   7)    179.6251         0.031809   
     55. D(C   5,C   4,N   2,C   1)      0.0376         0.031809   
     56. D(H  15,C   5,N   0,C   1)   -179.9503         0.031806   
     57. D(C   4,C   5,N   0,C   6)    179.7052         0.031806   
     58. D(C   4,C   5,N   0,C   1)      0.0309         0.031806   
     59. D(H  15,C   5,C   4,H  14)     -0.0718         0.033272   
     60. D(H  15,C   5,C   4,N   2)    179.9375         0.033272   
     61. D(N   0,C   5,C   4,H  14)    179.9487         0.033272   
     62. D(N   0,C   5,C   4,N   2)     -0.0420         0.033272   
     63. D(H  15,C   5,N   0,C   6)     -0.2761         0.031806   
     64. D(H  10,C   6,N   0,C   5)    123.9682         0.018635   
     65. D(H  10,C   6,N   0,C   1)    -56.4144         0.018635   
     66. D(H   9,C   6,N   0,C   5)   -115.9236         0.018635   
     67. D(H   9,C   6,N   0,C   1)     63.6939         0.018635   
     68. D(H   8,C   6,N   0,C   5)      3.9633         0.018635   
     69. D(H   8,C   6,N   0,C   1)   -176.4193         0.018635   
     70. D(H  12,C   7,N   2,C   4)   -114.4942         0.018639   
     71. D(H  12,C   7,N   2,C   1)     65.0211         0.018639   
     72. D(H  11,C   7,N   2,C   4)      5.3742         0.018639   
     73. D(H  13,C   7,N   2,C   1)    -55.0903         0.018639   
     74. D(H  11,C   7,N   2,C   1)   -175.1105         0.018639   
     75. D(H  13,C   7,N   2,C   4)    125.3944         0.018639   
    -----------------------------------------------------------------

Number of atoms                         .... 16
Number of degrees of freedom            .... 75

         *************************************************************
         *                GEOMETRY OPTIMIZATION CYCLE   1            *
         *************************************************************
---------------------------------
CARTESIAN COORDINATES (ANGSTROEM)
---------------------------------
  N     -1.086691   -0.099619   -0.002242
  C     -0.000075   -0.868745    0.000408
  N      1.086583   -0.099844    0.002839
  H     -0.000089   -1.941907    0.000740
  C      0.681881    1.197879    0.001286
  C     -0.681774    1.198047   -0.001306
  C     -2.449021   -0.563641    0.001091
  C      2.449063   -0.563334   -0.001901
  H     -3.122397    0.287564   -0.066322
  H     -2.662223   -1.110816    0.920171
  H     -2.627079   -1.225107   -0.846871
  H      3.121738    0.286308    0.089023
  H      2.668759   -1.089485   -0.931753
  H      2.621589   -1.243748    0.831987
  H      1.368547    2.019782    0.001961
  H     -1.368211    2.020118   -0.002210

----------------------------
CARTESIAN COORDINATES (A.U.)
----------------------------
  NO LB      ZA    FRAG     MASS         X           Y           Z
   0 N     7.0000    0    14.007   -2.053549   -0.188253   -0.004236
   1 C     6.0000    0    12.011   -0.000142   -1.641690    0.000771
   2 N     7.0000    0    14.007    2.053344   -0.188677    0.005365
   3 H     1.0000    0     1.008   -0.000169   -3.669673    0.001399
   4 C     6.0000    0    12.011    1.288568    2.263664    0.002430
   5 C     6.0000    0    12.011   -1.288365    2.263981   -0.002467
   6 C     6.0000    0    12.011   -4.627979   -1.065128    0.002061
   7 C     6.0000    0    12.011    4.628058   -1.064547   -0.003592
   8 H     1.0000    0     1.008   -5.900475    0.543417   -0.125330
   9 H     1.0000    0     1.008   -5.030872   -2.099138    1.738872
  10 H     1.0000    0     1.008   -4.964460   -2.315118   -1.600353
  11 H     1.0000    0     1.008    5.899229    0.541044    0.168230
  12 H     1.0000    0     1.008    5.043224   -2.058829   -1.760758
  13 H     1.0000    0     1.008    4.954086   -2.350342    1.572228
  14 H     1.0000    0     1.008    2.586180    3.816836    0.003705
  15 H     1.0000    0     1.008   -2.585543    3.817470   -0.004176

--------------------------------
INTERNAL COORDINATES (ANGSTROEM)
--------------------------------
 N      0   0   0     0.000000000000     0.00000000     0.00000000
 C      1   0   0     1.331275994154     0.00000000     0.00000000
 N      2   1   0     1.331180003881   109.42603385     0.00000000
 H      2   1   3     1.073162461564   125.29073541   179.98824468
 C      3   2   1     1.359364388039   107.96205068     0.00000000
 C      1   2   3     1.359373856347   107.96163543     0.00000000
 C      1   2   3     1.439190987658   125.89864138   180.31704872
 C      3   2   1     1.439165451906   125.92934652   180.39287831
 H      7   1   2     1.087441649999   109.48979355   183.58073179
 H      7   1   2     1.090671363162   110.41037489    63.69387093
 H      7   1   2     1.090082730853   110.39337761   303.58563192
 H      8   3   2     1.087497338112   109.49367225   184.88953165
 H      8   3   2     1.090746236032   110.41670793    65.02114754
 H      8   3   2     1.089998875996   110.38735832   304.90974414
 H      5   3   2     1.070997635171   122.80215456   180.04606267
 H      6   1   2     1.070979670890   122.80797792   180.04967279

---------------------------
INTERNAL COORDINATES (A.U.)
---------------------------
 N      0   0   0     0.000000000000     0.00000000     0.00000000
 C      1   0   0     2.515747037614     0.00000000     0.00000000
 N      2   1   0     2.515565642287   109.42603385     0.00000000
 H      2   1   3     2.027983149560   125.29073541   179.98824468
 C      3   2   1     2.568826409599   107.96205068     0.00000000
 C      1   2   3     2.568844302108   107.96163543     0.00000000
 C      1   2   3     2.719676821081   125.89864138   180.31704872
 C      3   2   1     2.719628565504   125.92934652   180.39287831
 H      7   1   2     2.054966905117   109.48979355   183.58073179
 H      7   1   2     2.061070178486   110.41037489    63.69387093
 H      7   1   2     2.059957824630   110.39337761   303.58563192
 H      8   3   2     2.055072140400   109.49367225   184.88953165
 H      8   3   2     2.061211667706   110.41670793    65.02114754
 H      8   3   2     2.059799361915   110.38735832   304.90974414
 H      5   3   2     2.023892220550   122.80215456   180.04606267
 H      6   1   2     2.023858272978   122.80797792   180.04967279

---------------------
BASIS SET INFORMATION
---------------------
There are 3 groups of distinct atoms

 Group   1 Type N   : 7s4p1d contracted to 3s2p1d pattern {511/31/1}
 Group   2 Type C   : 7s4p1d contracted to 3s2p1d pattern {511/31/1}
 Group   3 Type H   : 4s1p contracted to 2s1p pattern {31/1}

Atom   0N    basis set group =>   1
Atom   1C    basis set group =>   2
Atom   2N    basis set group =>   1
Atom   3H    basis set group =>   3
Atom   4C    basis set group =>   2
Atom   5C    basis set group =>   2
Atom   6C    basis set group =>   2
Atom   7C    basis set group =>   2
Atom   8H    basis set group =>   3
Atom   9H    basis set group =>   3
Atom  10H    basis set group =>   3
Atom  11H    basis set group =>   3
Atom  12H    basis set group =>   3
Atom  13H    basis set group =>   3
Atom  14H    basis set group =>   3
Atom  15H    basis set group =>   3
---------------------------------
AUXILIARY/J BASIS SET INFORMATION
---------------------------------
There are 3 groups of distinct atoms

 Group   1 Type N   : 12s5p4d2f1g contracted to 6s4p3d1f1g pattern {711111/2111/211/2/1}
 Group   2 Type C   : 12s5p4d2f1g contracted to 6s4p3d1f1g pattern {711111/2111/211/2/1}
 Group   3 Type H   : 5s2p1d contracted to 3s1p1d pattern {311/2/1}

Atom   0N    basis set group =>   1
Atom   1C    basis set group =>   2
Atom   2N    basis set group =>   1
Atom   3H    basis set group =>   3
Atom   4C    basis set group =>   2
Atom   5C    basis set group =>   2
Atom   6C    basis set group =>   2
Atom   7C    basis set group =>   2
Atom   8H    basis set group =>   3
Atom   9H    basis set group =>   3
Atom  10H    basis set group =>   3
Atom  11H    basis set group =>   3
Atom  12H    basis set group =>   3
Atom  13H    basis set group =>   3
Atom  14H    basis set group =>   3
Atom  15H    basis set group =>   3
------------------------------------------------------------------------------
                           ORCA GTO INTEGRAL CALCULATION
                           -- RI-GTO INTEGRALS CHOSEN --
------------------------------------------------------------------------------
------------------------------------------------------------------------------
                   ___                                                        
                  /   \      - P O W E R E D   B Y -                         
                 /     \                                                     
                 |  |  |   _    _      __       _____    __    __             
                 |  |  |  | |  | |    /  \     |  _  \  |  |  /  |          
                  \  \/   | |  | |   /    \    | | | |  |  | /  /          
                 / \  \   | |__| |  /  /\  \   | |_| |  |  |/  /          
                |  |  |   |  __  | /  /__\  \  |    /   |      \           
                |  |  |   | |  | | |   __   |  |    \   |  |\   \          
                \     /   | |  | | |  |  |  |  | |\  \  |  | \   \       
                 \___/    |_|  |_| |__|  |__|  |_| \__\ |__|  \__/        
                                                                              
                      - O R C A' S   B I G   F R I E N D -                    
                                      &                                       
                       - I N T E G R A L  F E E D E R -                       
                                                                              
 v1 FN, 2020, v2 2021                                                         
------------------------------------------------------------------------------


Reading SHARK input file 1_prot_aq_3.SHARKINP.tmp ... ok
----------------------
SHARK INTEGRAL PACKAGE
----------------------

Number of atoms                             ...     16
Number of basis functions                   ...    143
Number of shells                            ...     69
Maximum angular momentum                    ...      2
Integral batch strategy                     ... SHARK/LIBINT Hybrid
RI-J (if used) integral strategy            ... SPLIT-RIJ (Revised 2003 algorithm where possible)
Printlevel                                  ...      1
Contraction scheme used                     ... SEGMENTED contraction
Coulomb Range Separation                    ... NOT USED
Exchange Range Separation                   ... Long Range
   Mu parameter                             ...  0.300000
   Scaling (regular/separated)              ...  0.157706  0.842294
Finite Nucleus Model                        ... NOT USED
Auxiliary Coulomb fitting basis             ... AVAILABLE
   # of basis functions in Aux-J            ...    442
   # of shells in Aux-J                     ...    150
   Maximum angular momentum in Aux-J        ...      4
Auxiliary J/K fitting basis                 ... NOT available
Auxiliary Correlation fitting basis         ... NOT available
Auxiliary 'external' fitting basis          ... NOT available
Integral threshold                          ...     2.500000e-11
Primitive cut-off                           ...     2.500000e-12
Primitive pair pre-selection threshold      ...     2.500000e-12

Calculating pre-screening integrals         ... done (  0.0 sec) Dimension = 69
Organizing shell pair data                  ... done (  0.0 sec)
Shell pair information
Total number of shell pairs                 ...      2415
Shell pairs after pre-screening             ...      2300
Total number of primitive shell pairs       ...      8503
Primitive shell pairs kept                  ...      6171
          la=0 lb=0:    749 shell pairs
          la=1 lb=0:    853 shell pairs
          la=1 lb=1:    255 shell pairs
          la=2 lb=0:    261 shell pairs
          la=2 lb=1:    155 shell pairs
          la=2 lb=2:     27 shell pairs

Calculating one electron integrals          ... done (  0.0 sec)
Calculating RI/J V-Matrix + Cholesky decomp.... done (  0.0 sec)
Calculating Nuclear repulsion               ... done (  0.0 sec) ENN=    309.593303248269 Eh

SHARK setup successfully completed in   0.2 seconds

Maximum memory used throughout the entire GTOINT-calculation: 18.0 MB
-------------------------------------------------------------------------------
                                 ORCA SCF
-------------------------------------------------------------------------------

------------
SCF SETTINGS
------------
Hamiltonian:
 Density Functional     Method          .... DFT(GTOs)
 Exchange Functional    Exchange        .... WB97X
 Correlation Functional Correlation     .... WB97X
 Gradients option       PostSCFGGA      .... off
 Hybrid DFT is turned on
   Fraction HF Exchange ScalHFX         ....  0.157706
   Scaling of DF-GGA-X  ScalDFX         ....  0.000000
   Scaling of DF-GGA-C  ScalDFC         ....  1.000000
   Scaling of DF-LDA-C  ScalLDAC        ....  1.000000
   Perturbative correction              ....  0.000000
   Density functional embedding theory  .... OFF
 Long-range corrected/Screened/Range-Separated Hybrid DFT is turned on
   Amount of maximum screened exact exchange              ....  0.842294
   Range separation parameter mu (erf(mu*r12)/r12)        ....  0.300000
 RI-approximation to the Coulomb term is turned on
   Number of AuxJ basis functions       .... 442
   RIJ-COSX (HFX calculated with COS-X)).... on


General Settings:
 Integral files         IntName         .... 1_prot_aq_3
 Hartree-Fock type      HFTyp           .... RHF
 Total Charge           Charge          ....    1
 Multiplicity           Mult            ....    1
 Number of Electrons    NEL             ....   52
 Basis Dimension        Dim             ....  143
 Nuclear Repulsion      ENuc            ....    309.5933032483 Eh

Convergence Acceleration:
 DIIS                   CNVDIIS         .... on
   Start iteration      DIISMaxIt       ....     0
   Startup error        DIISStart       ....  0.200000
   # of expansion vecs  DIISMaxEq       ....     5
   Bias factor          DIISBfac        ....   1.050
   Max. coefficient     DIISMaxC        ....  10.000
 Trust-Rad. Augm. Hess. CNVTRAH         .... auto
   Auto Start mean grad. ratio tolernc. ....  1.125000
   Auto Start start iteration           ....    20
   Auto Start num. interpolation iter.  ....    10
   Max. Number of Micro iterations      ....    16
   Max. Number of Macro iterations      .... Maxiter - #DIIS iter
   Number of Davidson start vectors     ....     2
   Converg. threshold I  (grad. norm)   ....   1.000e-05
   Converg. threshold II (energy diff.) ....   1.000e-08
   Grad. Scal. Fac. for Micro threshold ....   0.100
   Minimum threshold for Micro iter.    ....   0.010
   NR start threshold (gradient norm)   ....   0.001
   Initial trust radius                 ....   0.400
   Minimum AH scaling param. (alpha)    ....   1.000
   Maximum AH scaling param. (alpha)    .... 1000.000
   Orbital update algorithm             .... Taylor
   White noise on init. David. guess    .... on
   Maximum white noise                  ....   0.010
   Quad. conv. algorithm                .... NR
 SOSCF                  CNVSOSCF        .... on
   Start iteration      SOSCFMaxIt      ....   150
   Startup grad/error   SOSCFStart      ....  0.001000
 Level Shifting         CNVShift        .... on
   Level shift para.    LevelShift      ....    0.2500
   Turn off err/grad.   ShiftErr        ....    0.0000
 Zerner damping         CNVZerner       .... off
 Static damping         CNVDamp         .... on
   Fraction old density DampFac         ....    0.8500
   Max. Damping (<1)    DampMax         ....    0.9800
   Min. Damping (>=0)   DampMin         ....    0.0000
   Turn off err/grad.   DampErr         ....    0.0300
 Fernandez-Rico         CNVRico         .... off

SCF Procedure:
 Maximum # iterations   MaxIter         ....   125
 SCF integral mode      SCFMode         .... Direct
   Integral package                     .... SHARK and LIBINT hybrid scheme
 Reset frequency        DirectResetFreq ....    20
 Integral Threshold     Thresh          ....  2.500e-11 Eh
 Primitive CutOff       TCut            ....  2.500e-12 Eh

Convergence Tolerance:
 Convergence Check Mode ConvCheckMode   .... Total+1el-Energy
 Convergence forced     ConvForced      .... 0
 Energy Change          TolE            ....  1.000e-08 Eh
 1-El. energy change                    ....  1.000e-05 Eh
 Orbital Gradient       TolG            ....  1.000e-05
 Orbital Rotation angle TolX            ....  1.000e-05
 DIIS Error             TolErr          ....  5.000e-07


Diagonalization of the overlap matrix:
Smallest eigenvalue                        ... 1.625e-03
Time for diagonalization                   ...    0.004 sec
Threshold for overlap eigenvalues          ... 1.000e-08
Number of eigenvalues below threshold      ... 0
Time for construction of square roots      ...    0.003 sec
Total time needed                          ...    0.007 sec

Time for model grid setup =    0.193 sec

------------------------------
INITIAL GUESS: MODEL POTENTIAL
------------------------------
Loading Hartree-Fock densities                     ... done
Calculating cut-offs                               ... done
Initializing the effective Hamiltonian             ... done
Setting up the integral package (SHARK)            ... done
Starting the Coulomb interaction                   ... done (   0.1 sec)
Reading the grid                                   ... done
Mapping shells                                     ... done
Starting the XC term evaluation                    ... done (   0.2 sec)
  promolecular density results
     # of electrons  =     52.994403245
     EX              =    -41.412940587
     EC              =     -1.763098723
     EX+EC           =    -43.176039311
Transforming the Hamiltonian                       ... done (   0.0 sec)
Diagonalizing the Hamiltonian                      ... done (   0.0 sec)
Back transforming the eigenvectors                 ... done (   0.0 sec)
Now organizing SCF variables                       ... done
                      ------------------
                      INITIAL GUESS DONE (   0.6 sec)
                      ------------------
-------------------
DFT GRID GENERATION
-------------------

General Integration Accuracy     IntAcc      ... 4.388
Radial Grid Type                 RadialGrid  ... OptM3 with GC (2021)
Angular Grid (max. ang.)         AngularGrid ... 4 (Lebedev-302)
Angular grid pruning method      GridPruning ... 4 (adaptive)
Weight generation scheme         WeightScheme... Becke
Basis function cutoff            BFCut       ... 1.0000e-11
Integration weight cutoff        WCut        ... 1.0000e-14
Angular grids for H and He will be reduced by one unit
Partially contracted basis set               ... off
Rotationally invariant grid construction     ... off

Total number of grid points                  ...    71139
Total number of batches                      ...     1120
Average number of points per batch           ...       63
Average number of grid points per atom       ...     4446
Time for grid setup =    0.768 sec

--------------------
COSX GRID GENERATION
--------------------

GRIDX 1
-------
General Integration Accuracy     IntAcc      ... 3.816
Radial Grid Type                 RadialGrid  ... OptM3 with GC (2021)
Angular Grid (max. ang.)         AngularGrid ... 1 (Lebedev-50)
Angular grid pruning method      GridPruning ... 4 (adaptive)
Weight generation scheme         WeightScheme... Becke
Basis function cutoff            BFCut       ... 1.0000e-11
Integration weight cutoff        WCut        ... 1.0000e-14
Angular grids for H and He will be reduced by one unit
Partially contracted basis set               ... on
Rotationally invariant grid construction     ... off

Total number of grid points                  ...     9132
Total number of batches                      ...      151
Average number of points per batch           ...       60
Average number of grid points per atom       ...      571
UseSFitting                                  ... on

GRIDX 2
-------
General Integration Accuracy     IntAcc      ... 4.020
Radial Grid Type                 RadialGrid  ... OptM3 with GC (2021)
Angular Grid (max. ang.)         AngularGrid ... 2 (Lebedev-110)
Angular grid pruning method      GridPruning ... 4 (adaptive)
Weight generation scheme         WeightScheme... Becke
Basis function cutoff            BFCut       ... 1.0000e-11
Integration weight cutoff        WCut        ... 1.0000e-14
Angular grids for H and He will be reduced by one unit
Partially contracted basis set               ... on
Rotationally invariant grid construction     ... off

Total number of grid points                  ...    19500
Total number of batches                      ...      312
Average number of points per batch           ...       62
Average number of grid points per atom       ...     1219
UseSFitting                                  ... on

GRIDX 3
-------
General Integration Accuracy     IntAcc      ... 4.338
Radial Grid Type                 RadialGrid  ... OptM3 with GC (2021)
Angular Grid (max. ang.)         AngularGrid ... 3 (Lebedev-194)
Angular grid pruning method      GridPruning ... 4 (adaptive)
Weight generation scheme         WeightScheme... Becke
Basis function cutoff            BFCut       ... 1.0000e-11
Integration weight cutoff        WCut        ... 1.0000e-14
Angular grids for H and He will be reduced by one unit
Partially contracted basis set               ... on
Rotationally invariant grid construction     ... off

Total number of grid points                  ...    42737
Total number of batches                      ...      675
Average number of points per batch           ...       63
Average number of grid points per atom       ...     2671
UseSFitting                                  ... on

Time for X-Grid setup             =    0.919 sec


--------------------
CPCM SOLVATION MODEL
--------------------
CPCM parameters:
  Epsilon                                         ...      80.4000
  Refrac                                          ...       1.3300
  Rsolv                                           ...       1.3000
  Surface type                                    ... GAUSSIAN VDW
  Epsilon function type                           ...         CPCM
Radii:
 Radius for N  used is    3.5149 Bohr (=   1.8600 Ang.)
 Radius for C  used is    3.8550 Bohr (=   2.0400 Ang.)
 Radius for H  used is    2.4944 Bohr (=   1.3200 Ang.)
Calculating surface                               ...        done! (  0.0s)
GEPOL surface points                              ...          915
GEPOL Volume                                      ...     888.3630
GEPOL Surface-area                                ...     523.8846
Calculating surface distance matrix               ...        done! (  0.0s)
Performing Cholesky decomposition & store         ...        done! (  0.0s)
Overall time for CPCM initialization              ...                 0.0s
--------------
SCF ITERATIONS
--------------
ITER       Energy         Delta-E        Max-DP      RMS-DP      [F,P]     Damp
               ***  Starting incremental Fock matrix formation  ***
  0   -304.9378638534   0.000000000000 0.02279614  0.00064268  0.1028449 0.8500
  1   -304.9521160098  -0.014252156473 0.02081462  0.00060180  0.0838227 0.8500
                               ***Turning on DIIS***
  2   -304.9632029486  -0.011086938706 0.01657443  0.00049423  0.0654096 0.8500
  3   -304.9716476161  -0.008444667580 0.01098194  0.00036495  0.0505109 0.8500
  4   -304.9782753807  -0.006627764557 0.00766333  0.00028519  0.0406017 0.8500
  5   -304.9835588732  -0.005283492459 0.00595435  0.00023588  0.0337439 0.8500
  6   -304.9878817682  -0.004322895076 0.03262904  0.00133024  0.0284702 0.0000
  7   -305.0107550946  -0.022873326378 0.00097214  0.00004177  0.0010528 0.0000
                      *** Initiating the SOSCF procedure ***
                           *** Shutting down DIIS ***
                      *** Re-Reading the Fockian *** 
                      *** Removing any level shift *** 
ITER      Energy       Delta-E        Grad      Rot      Max-DP    RMS-DP
  8   -305.01076546  -0.0000103656  0.000215  0.000215  0.000744  0.000019
               *** Restarting incremental Fock matrix formation ***
  9   -305.01082998  -0.0000645200  0.000173  0.000247  0.000287  0.000012
 10   -305.01083038  -0.0000003980  0.000064  0.000120  0.000208  0.000006
 11   -305.01083050  -0.0000001232  0.000009  0.000012  0.000037  0.000001
 12   -305.01083050  -0.0000000015  0.000006  0.000010  0.000011  0.000000
                  ***Gradient check signals convergence***
              ***Rediagonalizing the Fockian in SOSCF/NRSCF***

               *****************************************************
               *                     SUCCESS                       *
               *           SCF CONVERGED AFTER  13 CYCLES          *
               *****************************************************

Old exchange energy                            =    -13.503622367 Eh
New exchange energy                            =    -13.503651954 Eh
Exchange energy change after final integration =     -0.000029587 Eh
Total energy after final integration           =   -305.010860095 Eh
Final COS-X integration done in                =    17.329 sec

----------------
TOTAL SCF ENERGY
----------------

Total Energy       :         -305.01086009 Eh           -8299.76746 eV

Components:
Nuclear Repulsion  :          309.59330325 Eh            8424.46207 eV
Electronic Energy  :         -614.60416334 Eh          -16724.22953 eV
One Electron Energy:        -1012.58237626 Eh          -27553.76726 eV
Two Electron Energy:          397.97821292 Eh           10829.53774 eV
Max COSX asymmetry :            0.00000290 Eh               0.00008 eV
CPCM Dielectric    :           -0.08474226 Eh              -2.30595 eV

Virial components:
Potential Energy   :         -606.70578793 Eh          -16509.30381 eV
Kinetic Energy     :          301.69492783 Eh            8209.53635 eV
Virial Ratio       :            2.01099101


DFT components:
N(Alpha)           :       25.999996692612 electrons
N(Beta)            :       25.999996692612 electrons
N(Total)           :       51.999993385224 electrons
E(XC)              :      -30.487012213421 Eh       
DFET-embed. en.    :        0.000000000000 Eh       
CPCM Solvation Model Properties:
Surface-charge          :           -1.01095859
Charge-correction       :            0.00165660 Eh               0.04508 eV
Free-energy (cav+disp)  :  This term is not implemented in the current solvation scheme

---------------
SCF CONVERGENCE
---------------

  Last Energy change         ...   -4.6505e-09  Tolerance :   1.0000e-08
  Last MAX-Density change    ...    1.3323e-15  Tolerance :   1.0000e-07
  Last RMS-Density change    ...    3.6872e-17  Tolerance :   5.0000e-09
  Last Orbital Gradient      ...    2.0043e-06  Tolerance :   1.0000e-05
  Last Orbital Rotation      ...    2.7442e-06  Tolerance :   1.0000e-05

             **** THE GBW FILE WAS UPDATED (1_prot_aq_3.gbw) ****
             **** DENSITY 1_prot_aq_3.scfp WAS UPDATED ****
             **** ENERGY FILE WAS UPDATED (1_prot_aq_3.en.tmp) ****
             **** THE GBW FILE WAS UPDATED (1_prot_aq_3.gbw) ****
             **** DENSITY 1_prot_aq_3.scfp WAS UPDATED ****
----------------
ORBITAL ENERGIES
----------------

  NO   OCC          E(Eh)            E(eV) 
   0   2.0000     -14.517712      -395.0470 
   1   2.0000     -14.517697      -395.0466 
   2   2.0000     -10.381007      -282.4816 
   3   2.0000     -10.332231      -281.1543 
   4   2.0000     -10.331670      -281.1390 
   5   2.0000     -10.324236      -280.9367 
   6   2.0000     -10.324208      -280.9360 
   7   2.0000      -1.224968       -33.3331 
   8   2.0000      -1.104436       -30.0532 
   9   2.0000      -0.943104       -25.6632 
  10   2.0000      -0.906540       -24.6682 
  11   2.0000      -0.843590       -22.9552 
  12   2.0000      -0.778269       -21.1778 
  13   2.0000      -0.742686       -20.2095 
  14   2.0000      -0.689951       -18.7745 
  15   2.0000      -0.646345       -17.5879 
  16   2.0000      -0.606906       -16.5147 
  17   2.0000      -0.598070       -16.2743 
  18   2.0000      -0.588067       -16.0021 
  19   2.0000      -0.582876       -15.8609 
  20   2.0000      -0.569821       -15.5056 
  21   2.0000      -0.521999       -14.2043 
  22   2.0000      -0.521491       -14.1905 
  23   2.0000      -0.516709       -14.0604 
  24   2.0000      -0.422840       -11.5061 
  25   2.0000      -0.373495       -10.1633 
  26   0.0000       0.053507         1.4560 
  27   0.0000       0.100548         2.7361 
  28   0.0000       0.155318         4.2264 
  29   0.0000       0.164999         4.4898 
  30   0.0000       0.179403         4.8818 
  31   0.0000       0.194992         5.3060 
  32   0.0000       0.210239         5.7209 
  33   0.0000       0.224669         6.1136 
  34   0.0000       0.230128         6.2621 
  35   0.0000       0.232588         6.3290 
  36   0.0000       0.235105         6.3975 
  37   0.0000       0.247454         6.7336 
  38   0.0000       0.258342         7.0298 
  39   0.0000       0.317684         8.6446 
  40   0.0000       0.321763         8.7556 
  41   0.0000       0.340630         9.2690 
  42   0.0000       0.384338        10.4584 
  43   0.0000       0.428481        11.6596 
  44   0.0000       0.451704        12.2915 
  45   0.0000       0.459399        12.5009 
  46   0.0000       0.480302        13.0697 
  47   0.0000       0.507671        13.8144 
  48   0.0000       0.516954        14.0670 
  49   0.0000       0.552626        15.0377 
  50   0.0000       0.577566        15.7164 
  51   0.0000       0.586141        15.9497 
  52   0.0000       0.597349        16.2547 
  53   0.0000       0.616420        16.7736 
  54   0.0000       0.670139        18.2354 
  55   0.0000       0.697023        18.9670 
  56   0.0000       0.703351        19.1392 
  57   0.0000       0.720001        19.5922 
  58   0.0000       0.723474        19.6867 
  59   0.0000       0.740408        20.1475 
  60   0.0000       0.751103        20.4386 
  61   0.0000       0.756903        20.5964 
  62   0.0000       0.763620        20.7791 
  63   0.0000       0.772351        21.0167 
  64   0.0000       0.780657        21.2428 
  65   0.0000       0.787102        21.4181 
  66   0.0000       0.804902        21.9025 
  67   0.0000       0.822789        22.3892 
  68   0.0000       0.854757        23.2591 
  69   0.0000       0.928745        25.2724 
  70   0.0000       0.935724        25.4623 
  71   0.0000       0.937227        25.5032 
  72   0.0000       0.980164        26.6716 
  73   0.0000       1.028969        27.9997 
  74   0.0000       1.036194        28.1963 
  75   0.0000       1.183846        32.2141 
  76   0.0000       1.198875        32.6230 
  77   0.0000       1.209108        32.9015 
  78   0.0000       1.253553        34.1109 
  79   0.0000       1.275673        34.7128 
  80   0.0000       1.300692        35.3936 
  81   0.0000       1.309982        35.6464 
  82   0.0000       1.333961        36.2989 
  83   0.0000       1.381868        37.6025 
  84   0.0000       1.427605        38.8471 
  85   0.0000       1.515245        41.2319 
  86   0.0000       1.530102        41.6362 
  87   0.0000       1.621682        44.1282 
  88   0.0000       1.625427        44.2301 
  89   0.0000       1.646172        44.7946 
  90   0.0000       1.659731        45.1636 
  91   0.0000       1.692110        46.0446 
  92   0.0000       1.755049        47.7573 
  93   0.0000       1.808109        49.2011 
  94   0.0000       1.826327        49.6969 
  95   0.0000       1.837015        49.9877 
  96   0.0000       1.851322        50.3770 
  97   0.0000       1.864379        50.7323 
  98   0.0000       1.866353        50.7861 
  99   0.0000       1.905085        51.8400 
 100   0.0000       1.916031        52.1379 
 101   0.0000       1.916477        52.1500 
 102   0.0000       1.921698        52.2921 
 103   0.0000       1.962474        53.4016 
 104   0.0000       1.966652        53.5153 
 105   0.0000       2.030718        55.2587 
 106   0.0000       2.070948        56.3534 
 107   0.0000       2.104033        57.2537 
 108   0.0000       2.126120        57.8547 
 109   0.0000       2.143789        58.3355 
 110   0.0000       2.146600        58.4120 
 111   0.0000       2.156480        58.6808 
 112   0.0000       2.185742        59.4771 
 113   0.0000       2.238800        60.9208 
 114   0.0000       2.291619        62.3581 
 115   0.0000       2.385669        64.9174 
 116   0.0000       2.400715        65.3268 
 117   0.0000       2.401464        65.3471 
 118   0.0000       2.471639        67.2567 
 119   0.0000       2.506561        68.2070 
 120   0.0000       2.511127        68.3312 
 121   0.0000       2.518374        68.5285 
 122   0.0000       2.557621        69.5964 
 123   0.0000       2.575074        70.0713 
 124   0.0000       2.672547        72.7237 
 125   0.0000       2.686751        73.1102 
 126   0.0000       2.775585        75.5275 
 127   0.0000       2.829616        76.9978 
 128   0.0000       2.853424        77.6456 
 129   0.0000       2.859875        77.8211 
 130   0.0000       2.883475        78.4633 
 131   0.0000       2.885732        78.5248 
 132   0.0000       2.905060        79.0507 
 133   0.0000       2.951214        80.3066 
 134   0.0000       3.017076        82.0988 
 135   0.0000       3.045902        82.8832 
 136   0.0000       3.055305        83.1391 
 137   0.0000       3.069498        83.5253 
 138   0.0000       3.070264        83.5461 
 139   0.0000       3.256571        88.6158 
 140   0.0000       3.481102        94.7256 
 141   0.0000       3.588219        97.6404 
 142   0.0000       3.620964        98.5314 

                    ********************************
                    * MULLIKEN POPULATION ANALYSIS *
                    ********************************

-----------------------
MULLIKEN ATOMIC CHARGES
-----------------------
   0 N :   -0.199405
   1 C :    0.234687
   2 N :   -0.199221
   3 H :    0.123162
   4 C :    0.063646
   5 C :    0.063796
   6 C :    0.083048
   7 C :    0.082945
   8 H :    0.090776
   9 H :    0.094100
  10 H :    0.093302
  11 H :    0.090807
  12 H :    0.094292
  13 H :    0.093171
  14 H :    0.095437
  15 H :    0.095458
Sum of atomic charges:    1.0000000

--------------------------------
MULLIKEN REDUCED ORBITAL CHARGES
--------------------------------
  0 N s       :     3.390284  s :     3.390284
      pz      :     1.459319  p :     3.774301
      px      :     1.163153
      py      :     1.151830
      dz2     :     0.002392  d :     0.034820
      dxz     :     0.005844
      dyz     :     0.007057
      dx2y2   :     0.008445
      dxy     :     0.011080
  1 C s       :     3.094046  s :     3.094046
      pz      :     0.936567  p :     2.604365
      px      :     0.763446
      py      :     0.904351
      dz2     :     0.005186  d :     0.066902
      dxz     :     0.016052
      dyz     :     0.006565
      dx2y2   :     0.016697
      dxy     :     0.022402
  2 N s       :     3.390202  s :     3.390202
      pz      :     1.459207  p :     3.774194
      px      :     1.163087
      py      :     1.151900
      dz2     :     0.002393  d :     0.034826
      dxz     :     0.005850
      dyz     :     0.007056
      dx2y2   :     0.008450
      dxy     :     0.011077
  3 H s       :     0.851853  s :     0.851853
      pz      :     0.004471  p :     0.024985
      px      :     0.001332
      py      :     0.019182
  4 C s       :     3.134243  s :     3.134243
      pz      :     1.036358  p :     2.753578
      px      :     0.920686
      py      :     0.796534
      dz2     :     0.004113  d :     0.048533
      dxz     :     0.007410
      dyz     :     0.008204
      dx2y2   :     0.015886
      dxy     :     0.012920
  5 C s       :     3.134205  s :     3.134205
      pz      :     1.036255  p :     2.753462
      px      :     0.920669
      py      :     0.796538
      dz2     :     0.004113  d :     0.048537
      dxz     :     0.007413
      dyz     :     0.008204
      dx2y2   :     0.015884
      dxy     :     0.012923
  6 C s       :     3.002359  s :     3.002359
      pz      :     1.077030  p :     2.877284
      px      :     0.755111
      py      :     1.045143
      dz2     :     0.007351  d :     0.037309
      dxz     :     0.005359
      dyz     :     0.006884
      dx2y2   :     0.008846
      dxy     :     0.008868
  7 C s       :     3.002440  s :     3.002440
      pz      :     1.077088  p :     2.877306
      px      :     0.755003
      py      :     1.045214
      dz2     :     0.007359  d :     0.037310
      dxz     :     0.005389
      dyz     :     0.006842
      dx2y2   :     0.008877
      dxy     :     0.008842
  8 H s       :     0.884982  s :     0.884982
      pz      :     0.005095  p :     0.024242
      px      :     0.007870
      py      :     0.011277
  9 H s       :     0.881871  s :     0.881871
      pz      :     0.013223  p :     0.024030
      px      :     0.003124
      py      :     0.007682
 10 H s       :     0.882618  s :     0.882618
      pz      :     0.012059  p :     0.024081
      px      :     0.002977
      py      :     0.009045
 11 H s       :     0.884952  s :     0.884952
      pz      :     0.005133  p :     0.024241
      px      :     0.007857
      py      :     0.011251
 12 H s       :     0.881687  s :     0.881687
      pz      :     0.013404  p :     0.024021
      px      :     0.003154
      py      :     0.007462
 13 H s       :     0.882741  s :     0.882741
      pz      :     0.011839  p :     0.024088
      px      :     0.002956
      py      :     0.009293
 14 H s       :     0.879438  s :     0.879438
      pz      :     0.004851  p :     0.025125
      px      :     0.008683
      py      :     0.011590
 15 H s       :     0.879417  s :     0.879417
      pz      :     0.004851  p :     0.025125
      px      :     0.008680
      py      :     0.011595


                     *******************************
                     * LOEWDIN POPULATION ANALYSIS *
                     *******************************

----------------------
LOEWDIN ATOMIC CHARGES
----------------------
   0 N :    0.107263
   1 C :    0.132318
   2 N :    0.107343
   3 H :    0.065136
   4 C :    0.019827
   5 C :    0.019912
   6 C :    0.054575
   7 C :    0.054570
   8 H :    0.055034
   9 H :    0.053480
  10 H :    0.053836
  11 H :    0.055048
  12 H :    0.053427
  13 H :    0.053903
  14 H :    0.057163
  15 H :    0.057166

-------------------------------
LOEWDIN REDUCED ORBITAL CHARGES
-------------------------------
  0 N s       :     3.038216  s :     3.038216
      pz      :     1.382788  p :     3.775492
      px      :     1.189680
      py      :     1.203024
      dz2     :     0.004426  d :     0.079030
      dxz     :     0.009605
      dyz     :     0.013317
      dx2y2   :     0.023002
      dxy     :     0.028680
  1 C s       :     2.832802  s :     2.832802
      pz      :     0.961974  p :     2.879198
      px      :     0.892324
      py      :     1.024900
      dz2     :     0.011024  d :     0.155682
      dxz     :     0.033151
      dyz     :     0.010261
      dx2y2   :     0.041793
      dxy     :     0.059453
  2 N s       :     3.038185  s :     3.038185
      pz      :     1.382670  p :     3.775427
      px      :     1.189692
      py      :     1.203065
      dz2     :     0.004427  d :     0.079045
      dxz     :     0.009613
      dyz     :     0.013318
      dx2y2   :     0.023015
      dxy     :     0.028672
  3 H s       :     0.858603  s :     0.858603
      pz      :     0.014892  p :     0.076261
      px      :     0.007308
      py      :     0.054062
  4 C s       :     2.848469  s :     2.848469
      pz      :     1.029283  p :     3.012238
      px      :     1.050797
      py      :     0.932159
      dz2     :     0.008794  d :     0.119466
      dxz     :     0.014612
      dyz     :     0.015881
      dx2y2   :     0.044528
      dxy     :     0.035651
  5 C s       :     2.848476  s :     2.848476
      pz      :     1.029173  p :     3.012140
      px      :     1.050792
      py      :     0.932175
      dz2     :     0.008794  d :     0.119472
      dxz     :     0.014620
      dyz     :     0.015881
      dx2y2   :     0.044521
      dxy     :     0.035657
  6 C s       :     2.820447  s :     2.820447
      pz      :     1.101944  p :     3.030991
      px      :     0.855782
      py      :     1.073264
      dz2     :     0.018153  d :     0.093987
      dxz     :     0.012631
      dyz     :     0.018766
      dx2y2   :     0.020940
      dxy     :     0.023497
  7 C s       :     2.820453  s :     2.820453
      pz      :     1.101943  p :     3.030989
      px      :     0.855723
      py      :     1.073324
      dz2     :     0.018177  d :     0.093989
      dxz     :     0.012729
      dyz     :     0.018635
      dx2y2   :     0.021030
      dxy     :     0.023417
  8 H s       :     0.877174  s :     0.877174
      pz      :     0.013944  p :     0.067792
      px      :     0.022677
      py      :     0.031170
  9 H s       :     0.879182  s :     0.879182
      pz      :     0.035896  p :     0.067338
      px      :     0.010277
      py      :     0.021164
 10 H s       :     0.878699  s :     0.878699
      pz      :     0.032685  p :     0.067465
      px      :     0.009830
      py      :     0.024951
 11 H s       :     0.877168  s :     0.877168
      pz      :     0.014042  p :     0.067784
      px      :     0.022644
      py      :     0.031098
 12 H s       :     0.879253  s :     0.879253
      pz      :     0.036405  p :     0.067320
      px      :     0.010366
      py      :     0.020549
 13 H s       :     0.878613  s :     0.878613
      pz      :     0.032077  p :     0.067484
      px      :     0.009763
      py      :     0.025644
 14 H s       :     0.867934  s :     0.867934
      pz      :     0.016210  p :     0.074903
      px      :     0.025075
      py      :     0.033618
 15 H s       :     0.867929  s :     0.867929
      pz      :     0.016208  p :     0.074904
      px      :     0.025066
      py      :     0.033631


                      *****************************
                      * MAYER POPULATION ANALYSIS *
                      *****************************

  NA   - Mulliken gross atomic population
  ZA   - Total nuclear charge
  QA   - Mulliken gross atomic charge
  VA   - Mayer's total valence
  BVA  - Mayer's bonded valence
  FA   - Mayer's free valence

  ATOM       NA         ZA         QA         VA         BVA        FA
  0 N      7.1994     7.0000    -0.1994     3.5282     3.5282    -0.0000
  1 C      5.7653     6.0000     0.2347     3.8441     3.8441    -0.0000
  2 N      7.1992     7.0000    -0.1992     3.5284     3.5284     0.0000
  3 H      0.8768     1.0000     0.1232     0.9976     0.9976     0.0000
  4 C      5.9364     6.0000     0.0636     3.8640     3.8640     0.0000
  5 C      5.9362     6.0000     0.0638     3.8639     3.8639     0.0000
  6 C      5.9170     6.0000     0.0830     3.8539     3.8539     0.0000
  7 C      5.9171     6.0000     0.0829     3.8539     3.8539    -0.0000
  8 H      0.9092     1.0000     0.0908     0.9978     0.9978     0.0000
  9 H      0.9059     1.0000     0.0941     0.9922     0.9922     0.0000
 10 H      0.9067     1.0000     0.0933     0.9929     0.9929     0.0000
 11 H      0.9092     1.0000     0.0908     0.9977     0.9977     0.0000
 12 H      0.9057     1.0000     0.0943     0.9921     0.9921    -0.0000
 13 H      0.9068     1.0000     0.0932     0.9930     0.9930    -0.0000
 14 H      0.9046     1.0000     0.0954     0.9971     0.9971     0.0000
 15 H      0.9045     1.0000     0.0955     0.9971     0.9971     0.0000

  Mayer bond orders larger than 0.100000
B(  0-N ,  1-C ) :   1.3533 B(  0-N ,  5-C ) :   1.1970 B(  0-N ,  6-C ) :   0.9025 
B(  1-C ,  2-N ) :   1.3535 B(  1-C ,  3-H ) :   0.9763 B(  2-N ,  4-C ) :   1.1970 
B(  2-N ,  7-C ) :   0.9025 B(  4-C ,  5-C ) :   1.5877 B(  4-C , 14-H ) :   0.9874 
B(  5-C , 15-H ) :   0.9874 B(  6-C ,  8-H ) :   0.9727 B(  6-C ,  9-H ) :   0.9738 
B(  6-C , 10-H ) :   0.9735 B(  7-C , 11-H ) :   0.9727 B(  7-C , 12-H ) :   0.9739 
B(  7-C , 13-H ) :   0.9734 

-------
TIMINGS
-------

Total SCF time: 0 days 0 hours 1 min 52 sec 

Total time                  ....     112.926 sec
Sum of individual times     ....     112.605 sec  ( 99.7%)

Fock matrix formation       ....     110.280 sec  ( 97.7%)
  Split-RI-J                ....       3.957 sec  (  3.6% of F)
  Chain of spheres X        ....      86.041 sec  ( 78.0% of F)
  XC integration            ....      13.407 sec  ( 12.2% of F)
    Basis function eval.    ....       4.789 sec  ( 35.7% of XC)
    Density eval.           ....       2.888 sec  ( 21.5% of XC)
    XC-Functional eval.     ....       2.271 sec  ( 16.9% of XC)
    XC-Potential eval.      ....       3.025 sec  ( 22.6% of XC)
Diagonalization             ....       0.036 sec  (  0.0%)
Density matrix formation    ....       0.005 sec  (  0.0%)
Population analysis         ....       0.006 sec  (  0.0%)
Initial guess               ....       0.373 sec  (  0.3%)
Orbital Transformation      ....       0.000 sec  (  0.0%)
Orbital Orthonormalization  ....       0.000 sec  (  0.0%)
DIIS solution               ....       0.011 sec  (  0.0%)
SOSCF solution              ....       0.013 sec  (  0.0%)
Grid generation             ....       1.880 sec  (  1.7%)

Maximum memory used throughout the entire SCF-calculation: 64.8 MB


-------------------------------------------------------------------------------
                          DFT DISPERSION CORRECTION                            
                                                                               
                                 DFTD4 V2.5                                    
-------------------------------------------------------------------------------
The WB97X functional is recognized
Active option DFTDOPT                   ...         5   

Starting D4
-------------------------   ----------------
Dispersion correction           -0.001655687
-------------------------   ----------------


-------------------------   --------------------
FINAL SINGLE POINT ENERGY      -305.012515781266
-------------------------   --------------------

------------------------------------------------------------------------------
                         ORCA SCF GRADIENT CALCULATION
------------------------------------------------------------------------------

 ... reading COSX grid (gridx3)
Gradient of the Kohn-Sham DFT energy:
Kohn-Sham wavefunction type      ... RKS
Hartree-Fock exchange scaling    ...    0.158
Number of operators              ...    1
Number of atoms                  ...   16
Basis set dimensions             ...  143
Integral neglect threshold       ... 2.5e-11
Integral primitive cutoff        ... 2.5e-12
SHARK Integral package           ... ON

Nuc. rep. gradient       (SHARK) ... done (  0.0 sec)
HCore & Overlap gradient (SHARK) ... done (  0.2 sec)
RI-J gradient            (SHARK) ... done (  1.0 sec)
COSX-gradient                    ... done ( 18.7 sec)
Exchange-correlation gradient    ... done
Dispersion correction            ... Starting D4


------------------- 
Dispersion Gradient 
------------------- 
   1  :   -0.000008137    0.000002875   -0.000000015
   2  :    0.000000001    0.000015219   -0.000000004
   3  :    0.000008143    0.000002868    0.000000029
   4  :   -0.000000002   -0.000002563   -0.000000002
   5  :    0.000001804   -0.000001103   -0.000000010
   6  :   -0.000001813   -0.000001078    0.000000016
   7  :   -0.000030365   -0.000007499    0.000000067
   8  :    0.000030369   -0.000007485   -0.000000092
   9  :   -0.000006743   -0.000001639   -0.000000026
  10  :   -0.000007321   -0.000001683    0.000000318
  11  :   -0.000007434   -0.000001736   -0.000000350
  12  :    0.000006743   -0.000001639    0.000000034
  13  :    0.000007302   -0.000001675   -0.000000313
  14  :    0.000007452   -0.000001745    0.000000351
  15  :    0.000002984    0.000004440   -0.000000007
  16  :   -0.000002984    0.000004443    0.000000004

  |G| =    0.000052270

done

------------------
CARTESIAN GRADIENT
------------------

   1   N   :   -0.011465536    0.004524774    0.000318506
   2   C   :    0.000031110   -0.002001575   -0.000021052
   3   N   :    0.011407121    0.004415961   -0.000398036
   4   H   :    0.000013495    0.012781195   -0.000012533
   5   C   :    0.012312238   -0.006501711    0.000046642
   6   C   :   -0.012310807   -0.006443545   -0.000002637
   7   C   :    0.009908357    0.007288528   -0.000701274
   8   C   :   -0.009922549    0.007229506    0.000896139
   9   H   :    0.001930095   -0.005776223    0.000569672
  10   H   :   -0.000045876    0.001771415   -0.004911406
  11   H   :   -0.000233896    0.002463520    0.004796772
  12   H   :   -0.001915358   -0.005708163   -0.000791147
  13   H   :    0.000028508    0.001662954    0.004939392
  14   H   :    0.000274490    0.002599264   -0.004745386
  15   H   :   -0.009286156   -0.009223804   -0.000057005
  16   H   :    0.009298905   -0.009232742    0.000041287

Difference to translation invariance:
           :    0.0000241400   -0.0001506454   -0.0000320674

Difference to rotation invariance:
           :   -0.0000760158    0.0002657034    0.0000573635

Norm of the cartesian gradient     ...    0.0411055822
RMS gradient                       ...    0.0059330797
MAX gradient                       ...    0.0127811948

-------
TIMINGS
-------

Total SCF gradient time            ...       25.525 sec

One electron gradient       ....       0.170 sec  (  0.7%)
RI-J Coulomb gradient       ....       0.993 sec  (  3.9%)
COSX gradient               ....      18.734 sec  ( 73.4%)
XC gradient                 ....       4.395 sec  ( 17.2%)
CPCM gradient               ....       0.420 sec  (  1.6%)
   A-Matrix (El+Nuc)        ....       0.045 sec  (  0.2%)
   Potential                ....       0.375 sec  (  1.5%)

Maximum memory used throughout the entire SCFGRAD-calculation: 51.9 MB
------------------------------------------------------------------------------
                         ORCA GEOMETRY RELAXATION STEP
------------------------------------------------------------------------------

Reading the OPT-File                    .... done
Getting information on internals        .... done
Copying old internal coords+grads       .... done
Making the new internal coordinates     .... (new redundants).... done
Validating the new internal coordinates .... (new redundants).... done
Calculating the B-matrix                .... done
Calculating the G,G- and P matrices     .... done
Transforming gradient to internals      .... done
Projecting the internal gradient        .... done
Number of atoms                         ....  16
Number of internal coordinates          ....  75
Current Energy                          ....  -305.012515781 Eh
Current gradient norm                   ....     0.041105582 Eh/bohr
Maximum allowed component of the step   ....  0.300
Current trust radius                    ....  0.300
Evaluating the initial hessian          ....  (Almloef) done
Projecting the Hessian                  .... done
Forming the augmented Hessian           .... done
Diagonalizing the augmented Hessian     .... done
Last element of RFO vector              ....  0.995777498
Lowest eigenvalues of augmented Hessian:
 -0.003614206  0.018635309  0.018639953  0.027178189  0.028430962
Length of the computed step             ....  0.092188910
The final length of the internal step   ....  0.092188910
Converting the step to cartesian space:
 Initial RMS(Int)=    0.0106450584
Transforming coordinates:
 Iter   0:  RMS(Cart)=    0.0175873714 RMS(Int)=    1.0260196414
 Iter   1:  RMS(Cart)=    0.0000798226 RMS(Int)=    0.0000362954
 Iter   2:  RMS(Cart)=    0.0000008643 RMS(Int)=    0.0000004870
 Iter   3:  RMS(Cart)=    0.0000000089 RMS(Int)=    0.0000000060
done
Storing new coordinates                 .... done

                                .--------------------.
          ----------------------|Geometry convergence|-------------------------
          Item                value                   Tolerance       Converged
          ---------------------------------------------------------------------
          RMS gradient        0.0046675762            0.0001000000      NO
          MAX gradient        0.0155393108            0.0003000000      NO
          RMS step            0.0106450584            0.0020000000      NO
          MAX step            0.0334524612            0.0040000000      NO
          ........................................................
          Max(Bonds)      0.0177      Max(Angles)    0.57
          Max(Dihed)        0.37      Max(Improp)    0.00
          ---------------------------------------------------------------------

The optimization has not yet converged - more geometry cycles are needed


    ---------------------------------------------------------------------------
                         Redundant Internal Coordinates
                            (Angstroem and degrees)

        Definition                    Value    dE/dq     Step     New-Value
    ----------------------------------------------------------------------------
     1. B(C   1,N   0)                1.3313 -0.001622  0.0011    1.3324   
     2. B(N   2,C   1)                1.3312 -0.001705  0.0012    1.3324   
     3. B(H   3,C   1)                1.0732 -0.012791  0.0175    1.0907   
     4. B(C   4,N   2)                1.3594 -0.015539  0.0131    1.3725   
     5. B(C   5,C   4)                1.3637  0.001125 -0.0007    1.3629   
     6. B(C   5,N   0)                1.3594 -0.015530  0.0131    1.3725   
     7. B(C   6,N   0)                1.4392 -0.012802  0.0144    1.4536   
     8. B(C   7,N   2)                1.4392 -0.012801  0.0144    1.4536   
     9. B(H   8,C   6)                1.0874 -0.005743  0.0083    1.0957   
    10. B(H   9,C   6)                1.0907 -0.005026  0.0073    1.0980   
    11. B(H  10,C   6)                1.0901 -0.005191  0.0076    1.0976   
    12. B(H  11,C   7)                1.0875 -0.005704  0.0082    1.0957   
    13. B(H  12,C   7)                1.0907 -0.005017  0.0073    1.0981   
    14. B(H  13,C   7)                1.0900 -0.005210  0.0076    1.0976   
    15. B(H  14,C   4)                1.0710 -0.013026  0.0177    1.0887   
    16. B(H  15,C   5)                1.0710 -0.013039  0.0177    1.0887   
    17. A(C   1,N   0,C   6)          125.90  0.003357   -0.45    125.45   
    18. A(C   5,N   0,C   6)          126.14  0.000927   -0.12    126.02   
    19. A(C   1,N   0,C   5)          107.96 -0.004284    0.56    108.52   
    20. A(N   0,C   1,N   2)          109.43  0.003993   -0.57    108.86   
    21. A(N   2,C   1,H   3)          125.28 -0.002008    0.28    125.57   
    22. A(N   0,C   1,H   3)          125.29 -0.001985    0.28    125.57   
    23. A(C   1,N   2,C   7)          125.93  0.003452   -0.46    125.47   
    24. A(C   1,N   2,C   4)          107.96 -0.004283    0.56    108.53   
    25. A(C   4,N   2,C   7)          126.11  0.000831   -0.10    126.00   
    26. A(N   2,C   4,C   5)          107.33  0.002308   -0.28    107.04   
    27. A(C   5,C   4,H  14)          129.87 -0.002387    0.33    130.21   
    28. A(N   2,C   4,H  14)          122.80  0.000080   -0.05    122.75   
    29. A(N   0,C   5,C   4)          107.32  0.002265   -0.28    107.04   
    30. A(N   0,C   5,H  15)          122.81  0.000108   -0.05    122.75   
    31. A(C   4,C   5,H  15)          129.87 -0.002373    0.33    130.20   
    32. A(N   0,C   6,H  10)          110.39  0.001057   -0.17    110.22   
    33. A(H   8,C   6,H   9)          108.90 -0.001549    0.23    109.12   
    34. A(N   0,C   6,H   9)          110.41  0.000943   -0.14    110.27   
    35. A(N   0,C   6,H   8)          109.49  0.002718   -0.54    108.95   
    36. A(H   9,C   6,H  10)          108.61 -0.001830    0.47    109.08   
    37. A(H   8,C   6,H  10)          109.00 -0.001443    0.18    109.18   
    38. A(H  12,C   7,H  13)          108.61 -0.001826    0.47    109.08   
    39. A(H  11,C   7,H  13)          109.02 -0.001411    0.17    109.18   
    40. A(N   2,C   7,H  13)          110.39  0.001084   -0.18    110.21   
    41. A(H  11,C   7,H  12)          108.88 -0.001573    0.24    109.12   
    42. A(N   2,C   7,H  12)          110.42  0.000950   -0.14    110.28   
    43. A(N   2,C   7,H  11)          109.49  0.002671   -0.53    108.96   
    44. D(H   3,C   1,N   0,C   6)      0.31 -0.000040    0.06      0.37   
    45. D(N   2,C   1,N   0,C   6)   -179.68 -0.000043    0.07   -179.62   
    46. D(N   2,C   1,N   0,C   5)     -0.01 -0.000016    0.03      0.02   
    47. D(H   3,C   1,N   0,C   5)    179.98 -0.000013    0.02    180.00   
    48. D(C   7,N   2,C   1,N   0)   -179.61 -0.000047    0.07   -179.53   
    49. D(C   4,N   2,C   1,N   0)     -0.02 -0.000017    0.03      0.01   
    50. D(C   4,N   2,C   1,H   3)    179.99 -0.000020    0.03    180.02   
    51. D(C   7,N   2,C   1,H   3)      0.40 -0.000050    0.08      0.48   
    52. D(H  14,C   4,N   2,C   1)   -179.95  0.000009   -0.02   -179.98   
    53. D(H  14,C   4,N   2,C   7)     -0.37  0.000053   -0.07     -0.44   
    54. D(C   5,C   4,N   2,C   7)    179.63  0.000085   -0.12    179.51   
    55. D(C   5,C   4,N   2,C   1)      0.04  0.000041   -0.07     -0.03   
    56. D(H  15,C   5,N   0,C   1)   -179.95  0.000008   -0.02   -179.97   
    57. D(C   4,C   5,N   0,C   6)    179.71  0.000078   -0.11    179.59   
    58. D(C   4,C   5,N   0,C   1)      0.03  0.000041   -0.07     -0.04   
    59. D(H  15,C   5,C   4,H  14)     -0.07  0.000017   -0.02     -0.09   
    60. D(H  15,C   5,C   4,N   2)    179.94 -0.000018    0.03    179.97   
    61. D(N   0,C   5,C   4,H  14)    179.95 -0.000019    0.03    179.98   
    62. D(N   0,C   5,C   4,N   2)     -0.04 -0.000055    0.08      0.04   
    63. D(H  15,C   5,N   0,C   6)     -0.28  0.000045   -0.06     -0.34   
    64. D(H  10,C   6,N   0,C   5)    123.97  0.000477   -0.07    123.90   
    65. D(H  10,C   6,N   0,C   1)    -56.41  0.000495   -0.12    -56.53   
    66. D(H   9,C   6,N   0,C   5)   -115.92 -0.000513    0.31   -115.61   
    67. D(H   9,C   6,N   0,C   1)     63.69 -0.000495    0.27     63.96   
    68. D(H   8,C   6,N   0,C   5)      3.96 -0.000121    0.16      4.12   
    69. D(H   8,C   6,N   0,C   1)   -176.42 -0.000103    0.11   -176.30   
    70. D(H  12,C   7,N   2,C   4)   -114.49 -0.000512    0.37   -114.12   
    71. D(H  12,C   7,N   2,C   1)     65.02 -0.000494    0.32     65.34   
    72. D(H  11,C   7,N   2,C   4)      5.37 -0.000174    0.24      5.62   
    73. D(H  13,C   7,N   2,C   1)    -55.09  0.000469   -0.05    -55.14   
    74. D(H  11,C   7,N   2,C   1)   -175.11 -0.000156    0.19   -174.92   
    75. D(H  13,C   7,N   2,C   4)    125.39  0.000451   -0.00    125.39   
    ----------------------------------------------------------------------------

         *************************************************************
         *                GEOMETRY OPTIMIZATION CYCLE   2            *
         *************************************************************
---------------------------------
CARTESIAN COORDINATES (ANGSTROEM)
---------------------------------
  N     -1.083773   -0.099269   -0.002553
  C     -0.000008   -0.874343    0.000525
  N      1.083754   -0.099316    0.003145
  H      0.000014   -1.965009    0.001080
  C      0.681480    1.212868    0.001901
  C     -0.681436    1.212894   -0.002289
  C     -2.458355   -0.571930    0.001908
  C      2.458435   -0.571589   -0.002744
  H     -3.131203    0.289958   -0.068987
  H     -2.669825   -1.117899    0.930782
  H     -2.633469   -1.237382   -0.853264
  H      3.130741    0.288316    0.093032
  H      2.676679   -1.095721   -0.942639
  H      2.627447   -1.256866    0.837799
  H      1.384262    2.044329    0.003171
  H     -1.384145    2.044414   -0.003963

----------------------------
CARTESIAN COORDINATES (A.U.)
----------------------------
  NO LB      ZA    FRAG     MASS         X           Y           Z
   0 N     7.0000    0    14.007   -2.048034   -0.187591   -0.004825
   1 C     6.0000    0    12.011   -0.000014   -1.652269    0.000993
   2 N     7.0000    0    14.007    2.047999   -0.187681    0.005944
   3 H     1.0000    0     1.008    0.000026   -3.713329    0.002040
   4 C     6.0000    0    12.011    1.287811    2.291988    0.003593
   5 C     6.0000    0    12.011   -1.287727    2.292038   -0.004326
   6 C     6.0000    0    12.011   -4.645618   -1.080792    0.003605
   7 C     6.0000    0    12.011    4.645770   -1.080147   -0.005185
   8 H     1.0000    0     1.008   -5.917115    0.547941   -0.130367
   9 H     1.0000    0     1.008   -5.045237   -2.112524    1.758923
  10 H     1.0000    0     1.008   -4.976535   -2.338313   -1.612434
  11 H     1.0000    0     1.008    5.916243    0.544839    0.175804
  12 H     1.0000    0     1.008    5.058190   -2.070613   -1.781330
  13 H     1.0000    0     1.008    4.965155   -2.375133    1.583210
  14 H     1.0000    0     1.008    2.615875    3.863222    0.005992
  15 H     1.0000    0     1.008   -2.615656    3.863382   -0.007490

--------------------------------
INTERNAL COORDINATES (ANGSTROEM)
--------------------------------
 N      0   0   0     0.000000000000     0.00000000     0.00000000
 C      1   0   0     1.332402834603     0.00000000     0.00000000
 N      2   1   0     1.332371045451   108.85950522     0.00000000
 H      2   1   3     1.090666082928   125.57222343   179.98501841
 C      3   2   1     1.372462611601   108.52551520     0.00000000
 C      5   3   2     1.362922209932   107.04507222   359.96789600
 C      1   2   3     1.453583372801   125.45210060   180.38394832
 C      3   2   1     1.453555895499   125.46927097   180.46671152
 H      7   1   2     1.095719396422   108.94854621   183.69542738
 H      7   1   2     1.098002247948   110.26791579    63.95931843
 H      7   1   2     1.097637546529   110.21917637   303.46961244
 H      8   3   2     1.095721510425   108.96201895   185.07947527
 H      8   3   2     1.098065391855   110.27473935    65.34055447
 H      8   3   2     1.097579655755   110.20529196   304.85794497
 H      5   3   2     1.088683460628   122.75028695   180.02337760
 H      6   5   3     1.088681951028   130.20204173   179.96617728

---------------------------
INTERNAL COORDINATES (A.U.)
---------------------------
 N      0   0   0     0.000000000000     0.00000000     0.00000000
 C      1   0   0     2.517876457460     0.00000000     0.00000000
 N      2   1   0     2.517816384669   108.85950522     0.00000000
 H      2   1   3     2.061060200290   125.57222343   179.98501841
 C      3   2   1     2.593578464972   108.52551520     0.00000000
 C      5   3   2     2.575549718610   107.04507222   359.96789600
 C      1   2   3     2.746874487415   125.45210060   180.38394832
 C      3   2   1     2.746822562839   125.46927097   180.46671152
 H      7   1   2     2.070609578863   108.94854621   183.69542738
[...]
     37       0.202436  -0.149148  -0.328778   0.367753   0.344128   0.162438
     38       0.057182  -0.197435  -0.054867  -0.093547   0.199397   0.208797
     39      -0.402666  -0.222957   0.105468  -0.183209  -0.451179  -0.426642
     40      -0.038840   0.012960   0.040026  -0.052486  -0.022998   0.010126
     41      -0.170468  -0.330204  -0.388879   0.458415   0.052662  -0.020592
     42      -0.118953  -0.006912   0.007153  -0.014983   0.036414   0.148119
     43       0.051405   0.012038  -0.005340  -0.001040   0.064429  -0.034692
     44       0.004010   0.000511   0.000346  -0.000450  -0.001008  -0.003728
     45      -0.119306   0.007975   0.011045   0.010992  -0.036875   0.148264
     46      -0.051276   0.012109   0.006204  -0.003487   0.064193   0.034337
     47       0.003570  -0.000453   0.000540   0.000288   0.001384  -0.003359
                 36         37         38         39         40         41    
      0       0.131888   0.193730  -0.275037  -0.000376  -0.000739  -0.000152
      1      -0.142771  -0.074801   0.033574  -0.000291   0.000083  -0.000088
      2      -0.005026  -0.006094   0.008248  -0.000043  -0.000041   0.000517
      3       0.000083  -0.000110   0.441973  -0.001417   0.000060  -0.000023
      4       0.196957   0.125262  -0.000212   0.000011   0.000167   0.000053
      5       0.000534   0.000337  -0.014657   0.000066  -0.000001  -0.000111
      6      -0.132019  -0.193526  -0.275395  -0.000309   0.000767   0.000053
      7      -0.142610  -0.074551  -0.033363   0.000296   0.000057  -0.000020
      8       0.004255   0.005645   0.008014  -0.000040   0.000046  -0.000143
      9       0.000510   0.000555  -0.556166   0.001543  -0.000068   0.000132
     10       0.241934   0.176208   0.000672  -0.000022  -0.000188  -0.001339
     11       0.000551   0.000506   0.016070  -0.000228   0.000013   0.000178
     12      -0.176536   0.346395   0.069783  -0.000156   0.000487  -0.000017
     13       0.047392  -0.039284  -0.059661   0.000260  -0.000500  -0.000022
     14       0.005886  -0.011673  -0.002319   0.000019  -0.000006  -0.000008
     15       0.176583  -0.346593   0.069544  -0.000198  -0.000472  -0.000032
     16       0.047104  -0.038899   0.059562  -0.000300  -0.000474  -0.000062
     17      -0.005630   0.011444  -0.001988   0.000020   0.000002   0.000157
     18      -0.041588  -0.037313   0.037770   0.034501   0.031746  -0.004050
     19      -0.003062   0.018465  -0.000398   0.008631   0.007957   0.008918
     20       0.002067   0.000508   0.000170   0.000831   0.000770  -0.094008
     21       0.041422   0.037210   0.037769   0.031614  -0.034550   0.000805
     22      -0.003044   0.018456   0.000396  -0.008013   0.008775   0.001756
     23      -0.002157  -0.000377   0.000226   0.000765  -0.000843   0.018354
     24      -0.222267  -0.147373   0.185064  -0.206838  -0.190225   0.337309
     25       0.181905  -0.012982   0.062798   0.127021   0.116490  -0.210419
     26       0.158642   0.050350  -0.062877  -0.378434  -0.347408   0.610961
     27      -0.265961  -0.164561   0.191688  -0.190833  -0.175514  -0.286453
     28       0.117758  -0.030839   0.076817   0.170009   0.155967   0.259204
     29      -0.179499  -0.045855   0.051399   0.339586   0.311707   0.500207
     30       0.367397   0.104795   0.021456  -0.000600  -0.000711   0.000151
     31      -0.002481   0.019107  -0.002460  -0.397491  -0.364102  -0.152950
     32       0.018869   0.003179  -0.004173   0.029124   0.026692   0.003290
     33       0.222482   0.147091   0.185393  -0.189505   0.206997  -0.066124
     34       0.182799  -0.012700  -0.062668  -0.113616   0.123750  -0.040173
     35      -0.157016  -0.050259  -0.063268  -0.348376   0.379837  -0.120156
     36       0.267358   0.164816   0.192083  -0.175481   0.191682   0.056064
     37       0.115478  -0.031626  -0.077659  -0.158010   0.172164   0.051125
     38       0.181226   0.045891   0.051227   0.309840  -0.337779  -0.096879
     39      -0.367026  -0.104662   0.021371   0.000015   0.000159  -0.000062
     40      -0.001673   0.019353   0.002529   0.364985  -0.397087  -0.031233
     41      -0.019528  -0.003287  -0.004193   0.029588  -0.032206  -0.001007
     42      -0.006416  -0.138912  -0.209299   0.002256  -0.000044   0.000132
     43      -0.135116   0.473852   0.169648   0.001274   0.000605   0.000173
     44       0.000526   0.004045   0.006083  -0.000101   0.000017  -0.000102
     45       0.006189   0.140326  -0.209555   0.002262  -0.000137  -0.000252
     46      -0.135110   0.474096  -0.168874  -0.001233   0.000700   0.000307
     47      -0.001383  -0.001182   0.005003  -0.000108  -0.000006  -0.000692
                 42         43         44         45         46         47    
      0       0.000005  -0.000420  -0.000038  -0.003581  -0.000068   0.000882
      1       0.000014  -0.000426   0.000028   0.003351  -0.001020   0.002708
      2      -0.000056  -0.000032   0.000002   0.000143   0.000005  -0.000032
      3       0.000035   0.000082  -0.000132  -0.000103   0.002010   0.000013
      4       0.000034   0.000074   0.000037  -0.093473  -0.000784   0.012352
      5       0.000164   0.000067  -0.000106  -0.000271  -0.000066   0.000035
      6       0.000148   0.000213   0.000360   0.003588  -0.000006  -0.000877
      7      -0.000086  -0.000157  -0.000396   0.003327   0.001071   0.002711
      8      -0.000500   0.000011   0.000029  -0.000126   0.000009   0.000047
      9      -0.000204   0.000640  -0.001017   0.000910   0.000452  -0.000106
     10      -0.000913  -0.003457  -0.002095   0.988663   0.008259  -0.114665
     11      -0.000271  -0.000184   0.000275   0.002889  -0.000005  -0.000335
     12       0.000044  -0.000044   0.000055  -0.006282  -0.039783  -0.049656
     13      -0.000058  -0.000128  -0.000509  -0.003191  -0.048865  -0.048160
     14      -0.000166  -0.000010   0.000043   0.000203   0.001207   0.001549
     15       0.000033  -0.000032   0.000064   0.006940  -0.039667   0.049511
     16       0.000001  -0.000517   0.000103  -0.004018   0.048940  -0.048161
     17      -0.000054  -0.000036   0.000028  -0.000244   0.001476  -0.001812
     18       0.000780  -0.027064   0.006104   0.000131  -0.000353   0.000045
     19      -0.001662   0.089626  -0.020054  -0.000087   0.000610  -0.000581
     20       0.018441   0.009685  -0.002098  -0.000081   0.000031   0.000017
     21       0.004052   0.006071   0.027257  -0.000128  -0.000355  -0.000045
     22       0.008567   0.020120   0.089599  -0.000089  -0.000609  -0.000577
     23       0.094055  -0.002172  -0.009353   0.000081   0.000030  -0.000019
     24      -0.065850   0.113006  -0.025764   0.001460   0.001498  -0.000746
     25       0.041195  -0.064764   0.014763   0.000183  -0.000384  -0.000230
     26      -0.119460   0.214335  -0.048689   0.000909   0.001998  -0.000735
     27       0.056042   0.215526  -0.048262   0.001219   0.001868  -0.000933
     28      -0.050841  -0.189892   0.042507   0.000483  -0.000866  -0.000128
     29      -0.098100  -0.389004   0.087083  -0.000262  -0.002571   0.000924
     30      -0.000048   0.001409  -0.000314   0.001430   0.001127  -0.001356
     31       0.029295  -0.801877   0.179614  -0.002440  -0.002206   0.003067
     32      -0.000574   0.059362  -0.013293  -0.000001   0.000141  -0.000158
     33      -0.337237  -0.024600  -0.111730  -0.001476   0.001455   0.000731
     34      -0.205468  -0.013715  -0.062280   0.000184   0.000362  -0.000244
     35      -0.613764  -0.047054  -0.212895  -0.000935   0.001957   0.000709
     36       0.286516  -0.048862  -0.217744  -0.001235   0.001855   0.000935
     37       0.261944  -0.043548  -0.193985   0.000487   0.000891  -0.000127
     38      -0.496308   0.087503   0.389820   0.000274  -0.002559  -0.000917
     39      -0.000411  -0.000594  -0.002636  -0.001452   0.001105   0.001362
     40      -0.156537  -0.179491  -0.800162  -0.002373   0.002149   0.003038
     41      -0.004769  -0.014696  -0.065494  -0.000006   0.000158   0.000178
     42       0.000209   0.000264   0.004113   0.050387   0.461976   0.462929
     43       0.000246   0.000260   0.003922   0.057425   0.531554   0.524224
     44       0.000793  -0.000054  -0.000296  -0.001524  -0.014136  -0.014182
     45      -0.000043  -0.003841   0.001526  -0.057981   0.460874  -0.461309
     46       0.000065   0.003686  -0.001453   0.066384  -0.532040   0.524100
     47       0.000395   0.000308  -0.000084   0.002130  -0.017073   0.017057


-----------
IR SPECTRUM
-----------

 Mode   freq       eps      Int      T**2         TX        TY        TZ
       cm**-1   L/(mol*cm) km/mol    a.u.
----------------------------------------------------------------------------
  6:     24.40   0.000054    0.27  0.000693  ( 0.000476  0.000228  0.026312)
  7:     38.89   0.000003    0.01  0.000023  (-0.000019  0.002516 -0.004080)
  8:    190.40   0.001433    7.24  0.002349  ( 0.000732 -0.000119  0.048461)
  9:    274.62   0.000072    0.36  0.000082  ( 0.000086 -0.009040 -0.000093)
 10:    280.92   0.000121    0.61  0.000135  ( 0.000010  0.011606  0.000009)
 11:    422.18   0.000066    0.33  0.000049  (-0.006935 -0.000008  0.000699)
 12:    624.08   0.000223    1.13  0.000111  ( 0.000010 -0.010555 -0.000250)
 13:    644.06   0.010538   53.25  0.005106  (-0.001700  0.000228 -0.071434)
 14:    644.79   0.000000    0.00  0.000000  (-0.000004 -0.000377 -0.000105)
 15:    738.87   0.000882    4.45  0.000372  (-0.018733  0.000034 -0.004623)
 16:    762.27   0.010158   51.33  0.004159  ( 0.000638 -0.000188  0.064484)
 17:    883.52   0.005811   29.37  0.002053  (-0.001142  0.000178 -0.045290)
 18:    907.79   0.000000    0.00  0.000000  ( 0.000048  0.000199 -0.000235)
 19:   1049.44   0.001227    6.20  0.000365  ( 0.019103 -0.000152 -0.000072)
 20:   1054.07   0.000814    4.11  0.000241  (-0.000175 -0.015519 -0.000093)
 21:   1096.32   0.003038   15.35  0.000865  (-0.000540  0.029400  0.000145)
 22:   1102.19   0.003436   17.37  0.000973  (-0.031187 -0.000466  0.000228)
 23:   1118.39   0.000078    0.39  0.000022  ( 0.000205 -0.004658 -0.000045)
 24:   1143.01   0.000002    0.01  0.000001  ( 0.000012  0.000753  0.000299)
 25:   1148.24   0.000351    1.77  0.000095  ( 0.003042 -0.000070  0.009282)
 26:   1205.74   0.022786  115.15  0.005897  ( 0.076766 -0.000054 -0.002109)
 27:   1281.95   0.000308    1.56  0.000075  ( 0.008657  0.000019 -0.000181)
 28:   1406.91   0.000024    0.12  0.000005  (-0.000006 -0.002306  0.000041)
 29:   1434.23   0.001617    8.17  0.000352  (-0.016577 -0.000100  0.008773)
 30:   1435.81   0.003396   17.16  0.000738  ( 0.024407  0.000007 -0.011932)
 31:   1442.17   0.000220    1.11  0.000048  ( 0.000381 -0.006891  0.000273)
 32:   1448.06   0.008955   45.25  0.001930  (-0.009441 -0.001866 -0.042863)
 33:   1448.90   0.001124    5.68  0.000242  ( 0.001804 -0.013403  0.007698)
 34:   1456.51   0.008827   44.61  0.001891  ( 0.000196  0.043482  0.000630)
 35:   1495.79   0.000091    0.46  0.000019  ( 0.004288 -0.000021  0.000719)
 36:   1514.82   0.001314    6.64  0.000271  ( 0.000001  0.016450  0.000060)
 37:   1661.99   0.002290   11.58  0.000430  (-0.000016  0.020738  0.000074)
 38:   1672.37   0.027670  139.83  0.005163  ( 0.071832 -0.000039 -0.001847)
 39:   3102.64   0.004400   22.24  0.000443  ( 0.021035  0.000215  0.000119)
 40:   3102.90   0.000252    1.28  0.000025  (-0.000896  0.004957 -0.000010)
 41:   3222.24   0.000022    0.11  0.000002  (-0.000017  0.000013 -0.001465)
 42:   3222.33   0.000049    0.25  0.000005  ( 0.000019 -0.000004  0.002175)
 43:   3233.34   0.000009    0.05  0.000001  (-0.000737 -0.000535  0.000194)
 44:   3233.43   0.000017    0.08  0.000002  ( 0.001172 -0.000361 -0.000328)
 45:   3300.75   0.012344   62.38  0.001167  (-0.000161  0.034162  0.000112)
 46:   3300.96   0.005302   26.79  0.000501  ( 0.022371  0.000249 -0.000821)
 47:   3319.01   0.002558   12.93  0.000241  ( 0.000020  0.015509  0.000046)

* The epsilon (eps) is given for a Dirac delta lineshape.
** The dipole moment derivative (T) already includes vibrational overlap.

The first frequency considered to be a vibration is 6
The total number of vibrations considered is 42


--------------------------
THERMOCHEMISTRY AT 298.15K
--------------------------

Temperature         ... 298.15 K
Pressure            ... 1.00 atm
Total Mass          ... 97.14 AMU

Throughout the following assumptions are being made:
  (1) The electronic state is orbitally nondegenerate
  (2) There are no thermally accessible electronically excited states
  (3) Hindered rotations indicated by low frequency modes are not
      treated as such but are treated as vibrations and this may
      cause some error
  (4) All equations used are the standard statistical mechanics
      equations for an ideal gas
  (5) All vibrations are strictly harmonic

freq.      24.40  E(vib)   ...       0.56 
freq.      38.89  E(vib)   ...       0.54 
freq.     190.40  E(vib)   ...       0.36 
freq.     274.62  E(vib)   ...       0.28 
freq.     280.92  E(vib)   ...       0.28 
freq.     422.18  E(vib)   ...       0.18 
freq.     624.08  E(vib)   ...       0.09 
freq.     644.06  E(vib)   ...       0.09 
freq.     644.79  E(vib)   ...       0.09 
freq.     738.87  E(vib)   ...       0.06 
freq.     762.27  E(vib)   ...       0.06 
freq.     883.52  E(vib)   ...       0.04 
freq.     907.79  E(vib)   ...       0.03 
freq.    1049.44  E(vib)   ...       0.02 
freq.    1054.07  E(vib)   ...       0.02 
freq.    1096.32  E(vib)   ...       0.02 
freq.    1102.19  E(vib)   ...       0.02 
freq.    1118.39  E(vib)   ...       0.01 
freq.    1143.01  E(vib)   ...       0.01 
freq.    1148.24  E(vib)   ...       0.01 
freq.    1205.74  E(vib)   ...       0.01 
freq.    1281.95  E(vib)   ...       0.01 
freq.    1406.91  E(vib)   ...       0.00 
freq.    1434.23  E(vib)   ...       0.00 
freq.    1435.81  E(vib)   ...       0.00 
freq.    1442.17  E(vib)   ...       0.00 
freq.    1448.06  E(vib)   ...       0.00 
freq.    1448.90  E(vib)   ...       0.00 
freq.    1456.51  E(vib)   ...       0.00 
freq.    1495.79  E(vib)   ...       0.00 
freq.    1514.82  E(vib)   ...       0.00 
freq.    1661.99  E(vib)   ...       0.00 
freq.    1672.37  E(vib)   ...       0.00 
freq.    3102.64  E(vib)   ...       0.00 
freq.    3102.90  E(vib)   ...       0.00 
freq.    3222.24  E(vib)   ...       0.00 
freq.    3222.33  E(vib)   ...       0.00 
freq.    3233.34  E(vib)   ...       0.00 
freq.    3233.43  E(vib)   ...       0.00 
freq.    3300.75  E(vib)   ...       0.00 
freq.    3300.96  E(vib)   ...       0.00 
freq.    3319.01  E(vib)   ...       0.00 

------------
INNER ENERGY
------------

The inner energy is: U= E(el) + E(ZPE) + E(vib) + E(rot) + E(trans)
    E(el)   - is the total energy from the electronic structure calculation
              = E(kin-el) + E(nuc-el) + E(el-el) + E(nuc-nuc)
    E(ZPE)  - the the zero temperature vibrational energy from the frequency calculation
    E(vib)  - the the finite temperature correction to E(ZPE) due to population
              of excited vibrational states
    E(rot)  - is the rotational thermal energy
    E(trans)- is the translational thermal energy

Summary of contributions to the inner energy U:
Electronic energy                ...   -305.01597824 Eh
Zero point energy                ...      0.14145439 Eh      88.76 kcal/mol
Thermal vibrational correction   ...      0.00449172 Eh       2.82 kcal/mol
Thermal rotational correction    ...      0.00141627 Eh       0.89 kcal/mol
Thermal translational correction ...      0.00141627 Eh       0.89 kcal/mol
-----------------------------------------------------------------------
Total thermal energy                   -304.86719959 Eh


Summary of corrections to the electronic energy:
(perhaps to be used in another calculation)
Total thermal correction                  0.00732426 Eh       4.60 kcal/mol
Non-thermal (ZPE) correction              0.14145439 Eh      88.76 kcal/mol
-----------------------------------------------------------------------
Total correction                          0.14877865 Eh      93.36 kcal/mol


--------
ENTHALPY
--------

The enthalpy is H = U + kB*T
                kB is Boltzmann's constant
Total free energy                 ...   -304.86719959 Eh 
Thermal Enthalpy correction       ...      0.00094421 Eh       0.59 kcal/mol
-----------------------------------------------------------------------
Total Enthalpy                    ...   -304.86625538 Eh


Note: Only C1 symmetry has been detected, increase convergence thresholds 
      if your molecule has a higher symmetry. Symmetry factor of 1.0 is   
      used for the rotational entropy correction. 
 

Note: Rotational entropy computed according to Herzberg 
Infrared and Raman Spectra, Chapter V,1, Van Nostrand Reinhold, 1945 
Point Group:  C1, Symmetry Number:   1  
Rotational constants in cm-1:     0.228143     0.068765     0.053940 

Vibrational entropy computed according to the QRRHO of S. Grimme
Chem.Eur.J. 2012 18 9955


-------
ENTROPY
-------

The entropy contributions are T*S = T*(S(el)+S(vib)+S(rot)+S(trans))
     S(el)   - electronic entropy
     S(vib)  - vibrational entropy
     S(rot)  - rotational entropy
     S(trans)- translational entropy
The entropies will be listed as multiplied by the temperature to get
units of energy

Electronic entropy                ...      0.00000000 Eh      0.00 kcal/mol
Vibrational entropy               ...      0.00803633 Eh      5.04 kcal/mol
Rotational entropy                ...      0.01285073 Eh      8.06 kcal/mol
Translational entropy             ...      0.01883016 Eh     11.82 kcal/mol
-----------------------------------------------------------------------
Final entropy term                ...      0.03971721 Eh     24.92 kcal/mol

In case the symmetry of your molecule has not been determined correctly
or in case you have a reason to use a different symmetry number we print 
out the resulting rotational entropy values for sn=1,12 :
 --------------------------------------------------------
|  sn= 1 | S(rot)=       0.01285073 Eh      8.06 kcal/mol|
|  sn= 2 | S(rot)=       0.01219627 Eh      7.65 kcal/mol|
|  sn= 3 | S(rot)=       0.01181344 Eh      7.41 kcal/mol|
|  sn= 4 | S(rot)=       0.01154181 Eh      7.24 kcal/mol|
|  sn= 5 | S(rot)=       0.01133113 Eh      7.11 kcal/mol|
|  sn= 6 | S(rot)=       0.01115898 Eh      7.00 kcal/mol|
|  sn= 7 | S(rot)=       0.01101344 Eh      6.91 kcal/mol|
|  sn= 8 | S(rot)=       0.01088736 Eh      6.83 kcal/mol|
|  sn= 9 | S(rot)=       0.01077615 Eh      6.76 kcal/mol|
|  sn=10 | S(rot)=       0.01067667 Eh      6.70 kcal/mol|
|  sn=11 | S(rot)=       0.01058668 Eh      6.64 kcal/mol|
|  sn=12 | S(rot)=       0.01050453 Eh      6.59 kcal/mol|
 --------------------------------------------------------


-------------------
GIBBS FREE ENERGY
-------------------

The Gibbs free energy is G = H - T*S

Total enthalpy                    ...   -304.86625538 Eh 
Total entropy correction          ...     -0.03971721 Eh    -24.92 kcal/mol
-----------------------------------------------------------------------
Final Gibbs free energy         ...   -304.90597259 Eh

For completeness - the Gibbs free energy minus the electronic energy
G-E(el)                           ...      0.11000565 Eh     69.03 kcal/mol


Timings for individual modules:

Sum of individual times         ...     3543.070 sec (=  59.051 min)
GTO integral calculation        ...        6.676 sec (=   0.111 min)   0.2 %
SCF iterations                  ...     2420.809 sec (=  40.347 min)  68.3 %
SCF Gradient evaluation         ...      719.506 sec (=  11.992 min)  20.3 %
Geometry relaxation             ...        1.221 sec (=   0.020 min)   0.0 %
Analytical frequency calculation...      394.858 sec (=   6.581 min)  11.1 %
                             ****ORCA TERMINATED NORMALLY****
TOTAL RUN TIME: 0 days 0 hours 59 minutes 6 seconds 301 msec
