
                                 *****************
                                 * O   R   C   A *
                                 *****************

                                            #,                                       
                                            ###                                      
                                            ####                                     
                                            #####                                    
                                            ######                                   
                                           ########,                                 
                                     ,,################,,,,,                         
                               ,,#################################,,                 
                          ,,##########################################,,             
                       ,#########################################, ''#####,          
                    ,#############################################,,   '####,        
                  ,##################################################,,,,####,       
                ,###########''''           ''''###############################       
              ,#####''   ,,,,##########,,,,          '''####'''          '####       
            ,##' ,,,,###########################,,,                        '##       
           ' ,,###''''                  '''############,,,                           
         ,,##''                                '''############,,,,        ,,,,,,###''
      ,#''                                            '''#######################'''  
     '                                                          ''''####''''         
             ,#######,   #######,   ,#######,      ##                                
            ,#'     '#,  ##    ##  ,#'     '#,    #''#        ######   ,####,        
            ##       ##  ##   ,#'  ##            #'  '#       #        #'  '#        
            ##       ##  #######   ##           ,######,      #####,   #    #        
            '#,     ,#'  ##    ##  '#,     ,#' ,#      #,         ##   #,  ,#        
             '#######'   ##     ##  '#######'  #'      '#     #####' # '####'        



                  #######################################################
                  #                        -***-                        #
                  #          Department of theory and spectroscopy      #
                  #    Directorship and core code : Frank Neese         #
                  #        Max Planck Institute fuer Kohlenforschung    #
                  #                Kaiser Wilhelm Platz 1               #
                  #                 D-45470 Muelheim/Ruhr               #
                  #                      Germany                        #
                  #                                                     #
                  #                  All rights reserved                #
                  #                        -***-                        #
                  #######################################################


                         Program Version 5.0.4 -  RELEASE  -


 With contributions from (in alphabetic order):
   Daniel Aravena         : Magnetic Suceptibility
   Michael Atanasov       : Ab Initio Ligand Field Theory (pilot matlab implementation)
   Alexander A. Auer      : GIAO ZORA, VPT2 properties, NMR spectrum
   Ute Becker             : Parallelization
   Giovanni Bistoni       : ED, misc. LED, open-shell LED, HFLD
   Martin Brehm           : Molecular dynamics
   Dmytro Bykov           : SCF Hessian
   Vijay G. Chilkuri      : MRCI spin determinant printing, contributions to CSF-ICE
   Dipayan Datta          : RHF DLPNO-CCSD density
   Achintya Kumar Dutta   : EOM-CC, STEOM-CC
   Dmitry Ganyushin       : Spin-Orbit,Spin-Spin,Magnetic field MRCI
   Miquel Garcia          : C-PCM and meta-GGA Hessian, CC/C-PCM, Gaussian charge scheme
   Yang Guo               : DLPNO-NEVPT2, F12-NEVPT2, CIM, IAO-localization
   Andreas Hansen         : Spin unrestricted coupled pair/coupled cluster methods
   Benjamin Helmich-Paris : MC-RPA, TRAH-SCF, COSX integrals
   Lee Huntington         : MR-EOM, pCC
   Robert Izsak           : Overlap fitted RIJCOSX, COSX-SCS-MP3, EOM
   Marcus Kettner         : VPT2
   Christian Kollmar      : KDIIS, OOCD, Brueckner-CCSD(T), CCSD density, CASPT2, CASPT2-K
   Simone Kossmann        : Meta GGA functionals, TD-DFT gradient, OOMP2, MP2 Hessian
   Martin Krupicka        : Initial AUTO-CI
   Lucas Lang             : DCDCAS
   Marvin Lechner         : AUTO-CI (C++ implementation), FIC-MRCC
   Dagmar Lenk            : GEPOL surface, SMD
   Dimitrios Liakos       : Extrapolation schemes; Compound Job, initial MDCI parallelization
   Dimitrios Manganas     : Further ROCIS development; embedding schemes
   Dimitrios Pantazis     : SARC Basis sets
   Anastasios Papadopoulos: AUTO-CI, single reference methods and gradients
   Taras Petrenko         : DFT Hessian,TD-DFT gradient, ASA, ECA, R-Raman, ABS, FL, XAS/XES, NRVS
   Peter Pinski           : DLPNO-MP2, DLPNO-MP2 Gradient
   Christoph Reimann      : Effective Core Potentials
   Marius Retegan         : Local ZFS, SOC
   Christoph Riplinger    : Optimizer, TS searches, QM/MM, DLPNO-CCSD(T), (RO)-DLPNO pert. Triples
   Tobias Risthaus        : Range-separated hybrids, TD-DFT gradient, RPA, STAB
   Michael Roemelt        : Original ROCIS implementation
   Masaaki Saitow         : Open-shell DLPNO-CCSD energy and density
   Barbara Sandhoefer     : DKH picture change effects
   Avijit Sen             : IP-ROCIS
   Kantharuban Sivalingam : CASSCF convergence, NEVPT2, FIC-MRCI
   Bernardo de Souza      : ESD, SOC TD-DFT
   Georgi Stoychev        : AutoAux, RI-MP2 NMR, DLPNO-MP2 response
   Willem Van den Heuvel  : Paramagnetic NMR
   Boris Wezisla          : Elementary symmetry handling
   Frank Wennmohs         : Technical directorship


 We gratefully acknowledge several colleagues who have allowed us to
 interface, adapt or use parts of their codes:
   Stefan Grimme, W. Hujo, H. Kruse, P. Pracht,  : VdW corrections, initial TS optimization,
                  C. Bannwarth, S. Ehlert          DFT functionals, gCP, sTDA/sTD-DF
   Ed Valeev, F. Pavosevic, A. Kumar             : LibInt (2-el integral package), F12 methods
   Garnet Chan, S. Sharma, J. Yang, R. Olivares  : DMRG
   Ulf Ekstrom                                   : XCFun DFT Library
   Mihaly Kallay                                 : mrcc  (arbitrary order and MRCC methods)
   Jiri Pittner, Ondrej Demel                    : Mk-CCSD
   Frank Weinhold                                : gennbo (NPA and NBO analysis)
   Christopher J. Cramer and Donald G. Truhlar   : smd solvation model
   Lars Goerigk                                  : TD-DFT with DH, B97 family of functionals
   V. Asgeirsson, H. Jonsson                     : NEB implementation
   FAccTs GmbH                                   : IRC, NEB, NEB-TS, DLPNO-Multilevel, CI-OPT
                                                   MM, QMMM, 2- and 3-layer-ONIOM, Crystal-QMMM,
                                                   LR-CPCM, SF, NACMEs, symmetry and pop. for TD-DFT,
                                                   nearIR, NL-DFT gradient (VV10), updates on ESD,
                                                   ML-optimized integration grids
   S Lehtola, MJT Oliveira, MAL Marques          : LibXC Library
   Liviu Ungur et al                             : ANISO software


 Your calculation uses the libint2 library for the computation of 2-el integrals
 For citations please refer to: http://libint.valeyev.net

 Your ORCA version has been built with support for libXC version: 5.1.0
 For citations please refer to: https://tddft.org/programs/libxc/

 This ORCA versions uses:
   CBLAS   interface :  Fast vector & matrix operations
   LAPACKE interface :  Fast linear algebra routines
   SCALAPACK package :  Parallel linear algebra routines
   Shared memory     :  Shared parallel matrices
   BLAS/LAPACK       :  OpenBLAS 0.3.15  USE64BITINT DYNAMIC_ARCH NO_AFFINITY SkylakeX SINGLE_THREADED
        Core in use  :  SkylakeX
   Copyright (c) 2011-2014, The OpenBLAS Project




***************************************
The coordinates will be read from file: 1_prot_aq_2.xyz
***************************************


Your calculation utilizes the atom-pairwise dispersion correction
based on tight binding partial charges (D4)
Cite in your paper:
E.Caldeweyher, C.Bannwarth, S.Grimme, J.Chem.Phys., (2017), 147, 034112.
E.Caldeweyher, S.Ehlert, A.Hansen, H.Neugebauer, S.Grimme, J.Chem.Phys., (2018), in progress.
   

XCFun DFT library Copyright 2009-2010 Ulf Ekstrom and contributors.
See http://admol.org/xcfun for more information.
This is free software; see the source code for copying conditions.
There is ABSOLUTELY NO WARRANTY; not even for MERCHANTABILITY or FITNESS FOR A PARTICULAR PURPOSE.
For details see the documentation.
Scientific users of this library should cite U. Ekstrom, L. Visscher, R. Bast, A. J. Thorvaldsen and K. Ruud;
J.Chem.Theor.Comp. 2010, DOI: 10.1021/ct100117s
XCFun Version 0.99 

================================================================================

----- Orbital basis set information -----
Your calculation utilizes the basis: def2-SVP
   F. Weigend and R. Ahlrichs, Phys. Chem. Chem. Phys. 7, 3297 (2005).

----- AuxJ basis set information -----
Your calculation utilizes the auxiliary basis: def2/J
   F. Weigend, Phys. Chem. Chem. Phys. 8, 1057 (2006).

================================================================================
                                        WARNINGS
                       Please study these warnings very carefully!
================================================================================


WARNING: Geometry Optimization
  ===> : Switching off AutoStart
         For restart on a previous wavefunction, please use MOREAD

INFO   : the flag for use of the SHARK integral package has been found!

================================================================================
                                       INPUT FILE
================================================================================
NAME = 1_prot_aq_2.inp
|  1> # ORCA 5.0.4 - /users/bwb16179/postgrad/2024_03/DFT_Crest_Conformers/Opt/prot/1_prot_aq_2.inp # write input file
|  2> # Basic Mode
|  3> #
|  4> ! Opt Freq wB97X Def2-SVP D4 SlowConv TightSCF Defgrid2 Def2/J RIJCOSX CPCM(Water)
|  5> 
|  6> 
|  7> 
|  8> %maxcore 4500
|  9> 
| 10> %geom
| 11> Maxiter 150
| 12> END
| 13> 
| 14> * xyzfile 1 1 1_prot_aq_2.xyz
| 15> 
| 16>                          ****END OF INPUT****
================================================================================

                       *****************************
                       * Geometry Optimization Run *
                       *****************************

Geometry optimization settings:
Update method            Update   .... BFGS
Choice of coordinates    CoordSys .... Z-matrix Internals
Initial Hessian          InHess   .... Almoef's Model

Convergence Tolerances:
Energy Change            TolE     ....  5.0000e-06 Eh
Max. Gradient            TolMAXG  ....  3.0000e-04 Eh/bohr
RMS Gradient             TolRMSG  ....  1.0000e-04 Eh/bohr
Max. Displacement        TolMAXD  ....  4.0000e-03 bohr
RMS Displacement         TolRMSD  ....  2.0000e-03 bohr
Strict Convergence                ....  False
------------------------------------------------------------------------------
                        ORCA OPTIMIZATION COORDINATE SETUP
------------------------------------------------------------------------------

The optimization will be done in new redundant internal coordinates
Making redundant internal coordinates   ...  (new redundants) done
Evaluating the initial hessian          ...  (Almloef) done
Evaluating the coordinates              ...  done
Calculating the B-matrix                .... done
Calculating the G-matrix                .... done
Diagonalizing the G-matrix              .... done
The first mode is                       ....   33
The number of degrees of freedom        ....   42

    -----------------------------------------------------------------
                    Redundant Internal Coordinates


    -----------------------------------------------------------------
         Definition                    Initial Value    Approx d2E/dq
    -----------------------------------------------------------------
      1. B(C   1,N   0)                  1.3318         0.692925   
      2. B(N   2,C   1)                  1.3295         0.698895   
      3. B(H   3,C   1)                  1.0732         0.383071   
      4. B(C   4,N   2)                  1.3612         0.622095   
      5. B(C   5,C   4)                  1.3627         0.690710   
      6. B(C   5,N   0)                  1.3600         0.624885   
      7. B(C   6,N   0)                  1.4392         0.467046   
      8. B(C   7,N   2)                  1.4380         0.469111   
      9. B(H   8,C   6)                  1.0874         0.363508   
     10. B(H   9,C   6)                  1.0899         0.360220   
     11. B(H  10,C   6)                  1.0909         0.358975   
     12. B(H  11,C   7)                  1.0903         0.359654   
     13. B(H  12,C   7)                  1.0906         0.359265   
     14. B(H  13,C   7)                  1.0874         0.363543   
     15. B(H  14,C   4)                  1.0710         0.386120   
     16. B(H  15,C   5)                  1.0710         0.386074   
     17. A(C   1,N   0,C   6)          125.9333         0.415445   
     18. A(C   5,N   0,C   6)          126.1388         0.407897   
     19. A(C   1,N   0,C   5)          107.9262         0.437681   
     20. A(N   0,C   1,N   2)          109.4491         0.446627   
     21. A(N   2,C   1,H   3)          125.4311         0.361721   
     22. A(N   0,C   1,H   3)          125.1197         0.361192   
     23. A(C   1,N   2,C   7)          126.6753         0.416406   
     24. A(C   1,N   2,C   4)          107.9909         0.438005   
     25. A(C   4,N   2,C   7)          125.3337         0.407892   
     26. A(N   2,C   4,C   5)          107.2731         0.439963   
     27. A(C   5,C   4,H  14)          130.1094         0.363744   
     28. A(N   2,C   4,H  14)          122.6175         0.355106   
     29. A(N   0,C   5,C   4)          107.3607         0.440319   
     30. A(N   0,C   5,H  15)          122.7759         0.355369   
     31. A(C   4,C   5,H  15)          129.8634         0.363736   
     32. A(N   0,C   6,H  10)          110.4199         0.334308   
     33. A(H   8,C   6,H   9)          109.0285         0.291286   
     34. A(N   0,C   6,H   9)          110.3865         0.334500   
     35. A(N   0,C   6,H   8)          109.4898         0.335006   
     36. A(H   9,C   6,H  10)          108.6202         0.290712   
     37. A(H   8,C   6,H  10)          108.8613         0.291127   
     38. A(H  12,C   7,H  13)          109.0888         0.291168   
     39. A(H  11,C   7,H  13)          109.1357         0.291218   
     40. A(N   2,C   7,H  13)          110.0021         0.335257   
     41. A(H  11,C   7,H  12)          108.4266         0.290677   
     42. A(N   2,C   7,H  12)          110.0965         0.334598   
     43. A(N   2,C   7,H  11)          110.0583         0.334658   
     44. D(H   3,C   1,N   0,C   6)     -0.4646         0.039653   
     45. D(N   2,C   1,N   0,C   6)    179.5935         0.039653   
     46. D(N   2,C   1,N   0,C   5)      0.0478         0.039653   
     47. D(H   3,C   1,N   0,C   5)    179.9897         0.039653   
     48. D(C   7,N   2,C   1,N   0)   -179.9393         0.040408   
     49. D(C   4,N   2,C   1,N   0)     -0.0367         0.040408   
     50. D(C   4,N   2,C   1,H   3)   -179.9783         0.040408   
     51. D(C   7,N   2,C   1,H   3)      0.1191         0.040408   
     52. D(H  14,C   4,N   2,C   1)    179.9661         0.031354   
     53. D(H  14,C   4,N   2,C   7)     -0.1297         0.031354   
     54. D(C   5,C   4,N   2,C   7)    179.9154         0.031354   
     55. D(C   5,C   4,N   2,C   1)      0.0112         0.031354   
     56. D(H  15,C   5,N   0,C   1)    179.9863         0.031658   
     57. D(C   4,C   5,N   0,C   6)   -179.5845         0.031658   
     58. D(C   4,C   5,N   0,C   1)     -0.0400         0.031658   
     59. D(H  15,C   5,C   4,H  14)      0.0386         0.033526   
     60. D(H  15,C   5,C   4,N   2)    179.9889         0.033526   
     61. D(N   0,C   5,C   4,H  14)   -179.9327         0.033526   
     62. D(N   0,C   5,C   4,N   2)      0.0177         0.033526   
     63. D(H  15,C   5,N   0,C   6)      0.4418         0.031658   
     64. D(H  10,C   6,N   0,C   5)    113.1173         0.018632   
     65. D(H  10,C   6,N   0,C   1)    -66.3475         0.018632   
     66. D(H   9,C   6,N   0,C   5)   -126.7621         0.018632   
     67. D(H   9,C   6,N   0,C   1)     53.7731         0.018632   
     68. D(H   8,C   6,N   0,C   5)     -6.7295         0.018632   
     69. D(H   8,C   6,N   0,C   1)    173.8057         0.018632   
     70. D(H  12,C   7,N   2,C   4)    -61.7063         0.018801   
     71. D(H  12,C   7,N   2,C   1)    118.1801         0.018801   
     72. D(H  11,C   7,N   2,C   4)     57.7598         0.018801   
     73. D(H  13,C   7,N   2,C   1)     -2.0699         0.018801   
     74. D(H  11,C   7,N   2,C   1)   -122.3538         0.018801   
     75. D(H  13,C   7,N   2,C   4)    178.0437         0.018801   
    -----------------------------------------------------------------

Number of atoms                         .... 16
Number of degrees of freedom            .... 75

         *************************************************************
         *                GEOMETRY OPTIMIZATION CYCLE   1            *
         *************************************************************
---------------------------------
CARTESIAN COORDINATES (ANGSTROEM)
---------------------------------
  N     -1.087601   -0.100159    0.003138
  C     -0.001962   -0.871620    0.002491
  N      1.085052   -0.106149    0.000659
  H     -0.007169   -1.944773    0.004214
  C      0.683398    1.194421   -0.000713
  C     -0.679298    1.197060    0.000593
  C     -2.451080   -0.560831   -0.003216
  C      2.451343   -0.554614   -0.001780
  H     -3.121358    0.287993    0.109664
  H     -2.619946   -1.258491    0.816941
  H     -2.677584   -1.066513   -0.942865
  H      2.979101   -0.150560    0.862540
  H      2.956658   -0.211833   -0.905459
  H      2.486350   -1.640839    0.034961
  H      1.374979    2.012207   -0.001772
  H     -1.364199    2.020491    0.000297

----------------------------
CARTESIAN COORDINATES (A.U.)
----------------------------
  NO LB      ZA    FRAG     MASS         X           Y           Z
   0 N     7.0000    0    14.007   -2.055269   -0.189273    0.005930
   1 C     6.0000    0    12.011   -0.003708   -1.647124    0.004707
   2 N     7.0000    0    14.007    2.050450   -0.200592    0.001245
   3 H     1.0000    0     1.008   -0.013548   -3.675089    0.007963
   4 C     6.0000    0    12.011    1.291435    2.257129   -0.001347
   5 C     6.0000    0    12.011   -1.283687    2.262115    0.001120
   6 C     6.0000    0    12.011   -4.631870   -1.059818   -0.006077
   7 C     6.0000    0    12.011    4.632367   -1.048069   -0.003364
   8 H     1.0000    0     1.008   -5.898511    0.544227    0.207236
   9 H     1.0000    0     1.008   -4.950981   -2.378202    1.543795
  10 H     1.0000    0     1.008   -5.059901   -2.015418   -1.781756
  11 H     1.0000    0     1.008    5.629685   -0.284517    1.629963
  12 H     1.0000    0     1.008    5.587274   -0.400307   -1.711069
  13 H     1.0000    0     1.008    4.698521   -3.100736    0.066066
  14 H     1.0000    0     1.008    2.598334    3.802521   -0.003349
  15 H     1.0000    0     1.008   -2.577963    3.818176    0.000561

--------------------------------
INTERNAL COORDINATES (ANGSTROEM)
--------------------------------
 N      0   0   0     0.000000000000     0.00000000     0.00000000
 C      1   0   0     1.331827531585     0.00000000     0.00000000
 N      2   1   0     1.329492139766   109.44913409     0.00000000
 H      2   1   3     1.073167065323   125.11970546   179.94185178
 C      3   2   1     1.361179726429   107.99091742   359.96328772
 C      1   2   3     1.359961315426   107.92618094     0.04781789
 C      1   2   3     1.439212706367   125.93329334   179.59352075
 C      3   2   1     1.438012135152   126.67533050   180.06071959
 H      7   1   2     1.087435711150   109.48981471   173.80570572
 H      7   1   2     1.089909110940   110.38647038    53.77313889
 H      7   1   2     1.090851926090   110.41990136   293.65248375
 H      8   3   2     1.090337690511   110.05830713   237.64615830
 H      8   3   2     1.090631648466   110.09653412   118.18008339
 H      8   3   2     1.087409518271   110.00212921   357.93008333
 H      5   3   2     1.071008779154   122.61746135   179.96607310
 H      6   1   2     1.071041512894   122.77593748   179.98628827

---------------------------
INTERNAL COORDINATES (A.U.)
---------------------------
 N      0   0   0     0.000000000000     0.00000000     0.00000000
 C      1   0   0     2.516789292312     0.00000000     0.00000000
 N      2   1   0     2.512376041359   109.44913409     0.00000000
 H      2   1   3     2.027991849404   125.11970546   179.94185178
 C      3   2   1     2.572256901996   107.99091742   359.96328772
 C      1   2   3     2.569954438882   107.92618094     0.04781789
 C      1   2   3     2.719717863493   125.93329334   179.59352075
 C      3   2   1     2.717449112692   126.67533050   180.06071959
 H      7   1   2     2.054955682320   109.48981471   173.80570572
 H      7   1   2     2.059629730541   110.38647038    53.77313889
 H      7   1   2     2.061411392970   110.41990136   293.65248375
 H      8   3   2     2.060439628557   110.05830713   237.64615830
 H      8   3   2     2.060995128588   110.09653412   118.18008339
 H      8   3   2     2.054906184952   110.00212921   357.93008333
 H      5   3   2     2.023913279626   122.61746135   179.96607310
 H      6   1   2     2.023975137431   122.77593748   179.98628827

---------------------
BASIS SET INFORMATION
---------------------
There are 3 groups of distinct atoms

 Group   1 Type N   : 7s4p1d contracted to 3s2p1d pattern {511/31/1}
 Group   2 Type C   : 7s4p1d contracted to 3s2p1d pattern {511/31/1}
 Group   3 Type H   : 4s1p contracted to 2s1p pattern {31/1}

Atom   0N    basis set group =>   1
Atom   1C    basis set group =>   2
Atom   2N    basis set group =>   1
Atom   3H    basis set group =>   3
Atom   4C    basis set group =>   2
Atom   5C    basis set group =>   2
Atom   6C    basis set group =>   2
Atom   7C    basis set group =>   2
Atom   8H    basis set group =>   3
Atom   9H    basis set group =>   3
Atom  10H    basis set group =>   3
Atom  11H    basis set group =>   3
Atom  12H    basis set group =>   3
Atom  13H    basis set group =>   3
Atom  14H    basis set group =>   3
Atom  15H    basis set group =>   3
---------------------------------
AUXILIARY/J BASIS SET INFORMATION
---------------------------------
There are 3 groups of distinct atoms

 Group   1 Type N   : 12s5p4d2f1g contracted to 6s4p3d1f1g pattern {711111/2111/211/2/1}
 Group   2 Type C   : 12s5p4d2f1g contracted to 6s4p3d1f1g pattern {711111/2111/211/2/1}
 Group   3 Type H   : 5s2p1d contracted to 3s1p1d pattern {311/2/1}

Atom   0N    basis set group =>   1
Atom   1C    basis set group =>   2
Atom   2N    basis set group =>   1
Atom   3H    basis set group =>   3
Atom   4C    basis set group =>   2
Atom   5C    basis set group =>   2
Atom   6C    basis set group =>   2
Atom   7C    basis set group =>   2
Atom   8H    basis set group =>   3
Atom   9H    basis set group =>   3
Atom  10H    basis set group =>   3
Atom  11H    basis set group =>   3
Atom  12H    basis set group =>   3
Atom  13H    basis set group =>   3
Atom  14H    basis set group =>   3
Atom  15H    basis set group =>   3
------------------------------------------------------------------------------
                           ORCA GTO INTEGRAL CALCULATION
                           -- RI-GTO INTEGRALS CHOSEN --
------------------------------------------------------------------------------
------------------------------------------------------------------------------
                   ___                                                        
                  /   \      - P O W E R E D   B Y -                         
                 /     \                                                     
                 |  |  |   _    _      __       _____    __    __             
                 |  |  |  | |  | |    /  \     |  _  \  |  |  /  |          
                  \  \/   | |  | |   /    \    | | | |  |  | /  /          
                 / \  \   | |__| |  /  /\  \   | |_| |  |  |/  /          
                |  |  |   |  __  | /  /__\  \  |    /   |      \           
                |  |  |   | |  | | |   __   |  |    \   |  |\   \          
                \     /   | |  | | |  |  |  |  | |\  \  |  | \   \       
                 \___/    |_|  |_| |__|  |__|  |_| \__\ |__|  \__/        
                                                                              
                      - O R C A' S   B I G   F R I E N D -                    
                                      &                                       
                       - I N T E G R A L  F E E D E R -                       
                                                                              
 v1 FN, 2020, v2 2021                                                         
------------------------------------------------------------------------------


Reading SHARK input file 1_prot_aq_2.SHARKINP.tmp ... ok
----------------------
SHARK INTEGRAL PACKAGE
----------------------

Number of atoms                             ...     16
Number of basis functions                   ...    143
Number of shells                            ...     69
Maximum angular momentum                    ...      2
Integral batch strategy                     ... SHARK/LIBINT Hybrid
RI-J (if used) integral strategy            ... SPLIT-RIJ (Revised 2003 algorithm where possible)
Printlevel                                  ...      1
Contraction scheme used                     ... SEGMENTED contraction
Coulomb Range Separation                    ... NOT USED
Exchange Range Separation                   ... Long Range
   Mu parameter                             ...  0.300000
   Scaling (regular/separated)              ...  0.157706  0.842294
Finite Nucleus Model                        ... NOT USED
Auxiliary Coulomb fitting basis             ... AVAILABLE
   # of basis functions in Aux-J            ...    442
   # of shells in Aux-J                     ...    150
   Maximum angular momentum in Aux-J        ...      4
Auxiliary J/K fitting basis                 ... NOT available
Auxiliary Correlation fitting basis         ... NOT available
Auxiliary 'external' fitting basis          ... NOT available
Integral threshold                          ...     2.500000e-11
Primitive cut-off                           ...     2.500000e-12
Primitive pair pre-selection threshold      ...     2.500000e-12

Calculating pre-screening integrals         ... done (  0.0 sec) Dimension = 69
Organizing shell pair data                  ... done (  0.0 sec)
Shell pair information
Total number of shell pairs                 ...      2415
Shell pairs after pre-screening             ...      2299
Total number of primitive shell pairs       ...      8503
Primitive shell pairs kept                  ...      6165
          la=0 lb=0:    749 shell pairs
          la=1 lb=0:    852 shell pairs
          la=1 lb=1:    256 shell pairs
          la=2 lb=0:    260 shell pairs
          la=2 lb=1:    155 shell pairs
          la=2 lb=2:     27 shell pairs

Calculating one electron integrals          ... done (  0.0 sec)
Calculating RI/J V-Matrix + Cholesky decomp.... done (  0.0 sec)
Calculating Nuclear repulsion               ... done (  0.0 sec) ENN=    309.610997715918 Eh

SHARK setup successfully completed in   0.2 seconds

Maximum memory used throughout the entire GTOINT-calculation: 18.0 MB
-------------------------------------------------------------------------------
                                 ORCA SCF
-------------------------------------------------------------------------------

------------
SCF SETTINGS
------------
Hamiltonian:
 Density Functional     Method          .... DFT(GTOs)
 Exchange Functional    Exchange        .... WB97X
 Correlation Functional Correlation     .... WB97X
 Gradients option       PostSCFGGA      .... off
 Hybrid DFT is turned on
   Fraction HF Exchange ScalHFX         ....  0.157706
   Scaling of DF-GGA-X  ScalDFX         ....  0.000000
   Scaling of DF-GGA-C  ScalDFC         ....  1.000000
   Scaling of DF-LDA-C  ScalLDAC        ....  1.000000
   Perturbative correction              ....  0.000000
   Density functional embedding theory  .... OFF
 Long-range corrected/Screened/Range-Separated Hybrid DFT is turned on
   Amount of maximum screened exact exchange              ....  0.842294
   Range separation parameter mu (erf(mu*r12)/r12)        ....  0.300000
 RI-approximation to the Coulomb term is turned on
   Number of AuxJ basis functions       .... 442
   RIJ-COSX (HFX calculated with COS-X)).... on


General Settings:
 Integral files         IntName         .... 1_prot_aq_2
 Hartree-Fock type      HFTyp           .... RHF
 Total Charge           Charge          ....    1
 Multiplicity           Mult            ....    1
 Number of Electrons    NEL             ....   52
 Basis Dimension        Dim             ....  143
 Nuclear Repulsion      ENuc            ....    309.6109977159 Eh

Convergence Acceleration:
 DIIS                   CNVDIIS         .... on
   Start iteration      DIISMaxIt       ....     0
   Startup error        DIISStart       ....  0.200000
   # of expansion vecs  DIISMaxEq       ....     5
   Bias factor          DIISBfac        ....   1.050
   Max. coefficient     DIISMaxC        ....  10.000
 Trust-Rad. Augm. Hess. CNVTRAH         .... auto
   Auto Start mean grad. ratio tolernc. ....  1.125000
   Auto Start start iteration           ....    20
   Auto Start num. interpolation iter.  ....    10
   Max. Number of Micro iterations      ....    16
   Max. Number of Macro iterations      .... Maxiter - #DIIS iter
   Number of Davidson start vectors     ....     2
   Converg. threshold I  (grad. norm)   ....   1.000e-05
   Converg. threshold II (energy diff.) ....   1.000e-08
   Grad. Scal. Fac. for Micro threshold ....   0.100
   Minimum threshold for Micro iter.    ....   0.010
   NR start threshold (gradient norm)   ....   0.001
   Initial trust radius                 ....   0.400
   Minimum AH scaling param. (alpha)    ....   1.000
   Maximum AH scaling param. (alpha)    .... 1000.000
   Orbital update algorithm             .... Taylor
   White noise on init. David. guess    .... on
   Maximum white noise                  ....   0.010
   Quad. conv. algorithm                .... NR
 SOSCF                  CNVSOSCF        .... on
   Start iteration      SOSCFMaxIt      ....   150
   Startup grad/error   SOSCFStart      ....  0.001000
 Level Shifting         CNVShift        .... on
   Level shift para.    LevelShift      ....    0.2500
   Turn off err/grad.   ShiftErr        ....    0.0000
 Zerner damping         CNVZerner       .... off
 Static damping         CNVDamp         .... on
   Fraction old density DampFac         ....    0.8500
   Max. Damping (<1)    DampMax         ....    0.9800
   Min. Damping (>=0)   DampMin         ....    0.0000
   Turn off err/grad.   DampErr         ....    0.0300
 Fernandez-Rico         CNVRico         .... off

SCF Procedure:
 Maximum # iterations   MaxIter         ....   125
 SCF integral mode      SCFMode         .... Direct
   Integral package                     .... SHARK and LIBINT hybrid scheme
 Reset frequency        DirectResetFreq ....    20
 Integral Threshold     Thresh          ....  2.500e-11 Eh
 Primitive CutOff       TCut            ....  2.500e-12 Eh

Convergence Tolerance:
 Convergence Check Mode ConvCheckMode   .... Total+1el-Energy
 Convergence forced     ConvForced      .... 0
 Energy Change          TolE            ....  1.000e-08 Eh
 1-El. energy change                    ....  1.000e-05 Eh
 Orbital Gradient       TolG            ....  1.000e-05
 Orbital Rotation angle TolX            ....  1.000e-05
 DIIS Error             TolErr          ....  5.000e-07


Diagonalization of the overlap matrix:
Smallest eigenvalue                        ... 1.586e-03
Time for diagonalization                   ...    0.004 sec
Threshold for overlap eigenvalues          ... 1.000e-08
Number of eigenvalues below threshold      ... 0
Time for construction of square roots      ...    0.002 sec
Total time needed                          ...    0.006 sec

Time for model grid setup =    0.174 sec

------------------------------
INITIAL GUESS: MODEL POTENTIAL
------------------------------
Loading Hartree-Fock densities                     ... done
Calculating cut-offs                               ... done
Initializing the effective Hamiltonian             ... done
Setting up the integral package (SHARK)            ... done
Starting the Coulomb interaction                   ... done (   0.1 sec)
Reading the grid                                   ... done
Mapping shells                                     ... done
Starting the XC term evaluation                    ... done (   0.2 sec)
  promolecular density results
     # of electrons  =     52.995724902
     EX              =    -41.413350272
     EC              =     -1.763119750
     EX+EC           =    -43.176470022
Transforming the Hamiltonian                       ... done (   0.0 sec)
Diagonalizing the Hamiltonian                      ... done (   0.0 sec)
Back transforming the eigenvectors                 ... done (   0.0 sec)
Now organizing SCF variables                       ... done
                      ------------------
                      INITIAL GUESS DONE (   0.5 sec)
                      ------------------
-------------------
DFT GRID GENERATION
-------------------

General Integration Accuracy     IntAcc      ... 4.388
Radial Grid Type                 RadialGrid  ... OptM3 with GC (2021)
Angular Grid (max. ang.)         AngularGrid ... 4 (Lebedev-302)
Angular grid pruning method      GridPruning ... 4 (adaptive)
Weight generation scheme         WeightScheme... Becke
Basis function cutoff            BFCut       ... 1.0000e-11
Integration weight cutoff        WCut        ... 1.0000e-14
Angular grids for H and He will be reduced by one unit
Partially contracted basis set               ... off
Rotationally invariant grid construction     ... off

Total number of grid points                  ...    71143
Total number of batches                      ...     1118
Average number of points per batch           ...       63
Average number of grid points per atom       ...     4446
Time for grid setup =    0.709 sec

--------------------
COSX GRID GENERATION
--------------------

GRIDX 1
-------
General Integration Accuracy     IntAcc      ... 3.816
Radial Grid Type                 RadialGrid  ... OptM3 with GC (2021)
Angular Grid (max. ang.)         AngularGrid ... 1 (Lebedev-50)
Angular grid pruning method      GridPruning ... 4 (adaptive)
Weight generation scheme         WeightScheme... Becke
Basis function cutoff            BFCut       ... 1.0000e-11
Integration weight cutoff        WCut        ... 1.0000e-14
Angular grids for H and He will be reduced by one unit
Partially contracted basis set               ... on
Rotationally invariant grid construction     ... off

Total number of grid points                  ...     9121
Total number of batches                      ...      150
Average number of points per batch           ...       60
Average number of grid points per atom       ...      570
UseSFitting                                  ... on

GRIDX 2
-------
General Integration Accuracy     IntAcc      ... 4.020
Radial Grid Type                 RadialGrid  ... OptM3 with GC (2021)
Angular Grid (max. ang.)         AngularGrid ... 2 (Lebedev-110)
Angular grid pruning method      GridPruning ... 4 (adaptive)
Weight generation scheme         WeightScheme... Becke
Basis function cutoff            BFCut       ... 1.0000e-11
Integration weight cutoff        WCut        ... 1.0000e-14
Angular grids for H and He will be reduced by one unit
Partially contracted basis set               ... on
Rotationally invariant grid construction     ... off

Total number of grid points                  ...    19490
Total number of batches                      ...      313
Average number of points per batch           ...       62
Average number of grid points per atom       ...     1218
UseSFitting                                  ... on

GRIDX 3
-------
General Integration Accuracy     IntAcc      ... 4.338
Radial Grid Type                 RadialGrid  ... OptM3 with GC (2021)
Angular Grid (max. ang.)         AngularGrid ... 3 (Lebedev-194)
Angular grid pruning method      GridPruning ... 4 (adaptive)
Weight generation scheme         WeightScheme... Becke
Basis function cutoff            BFCut       ... 1.0000e-11
Integration weight cutoff        WCut        ... 1.0000e-14
Angular grids for H and He will be reduced by one unit
Partially contracted basis set               ... on
Rotationally invariant grid construction     ... off

Total number of grid points                  ...    42711
Total number of batches                      ...      675
Average number of points per batch           ...       63
Average number of grid points per atom       ...     2669
UseSFitting                                  ... on

Time for X-Grid setup             =    0.904 sec


--------------------
CPCM SOLVATION MODEL
--------------------
CPCM parameters:
  Epsilon                                         ...      80.4000
  Refrac                                          ...       1.3300
  Rsolv                                           ...       1.3000
  Surface type                                    ... GAUSSIAN VDW
  Epsilon function type                           ...         CPCM
Radii:
 Radius for N  used is    3.5149 Bohr (=   1.8600 Ang.)
 Radius for C  used is    3.8550 Bohr (=   2.0400 Ang.)
 Radius for H  used is    2.4944 Bohr (=   1.3200 Ang.)
Calculating surface                               ...        done! (  0.0s)
GEPOL surface points                              ...          902
GEPOL Volume                                      ...     887.6089
GEPOL Surface-area                                ...     523.5521
Calculating surface distance matrix               ...        done! (  0.0s)
Performing Cholesky decomposition & store         ...        done! (  0.0s)
Overall time for CPCM initialization              ...                 0.0s
--------------
SCF ITERATIONS
--------------
ITER       Energy         Delta-E        Max-DP      RMS-DP      [F,P]     Damp
               ***  Starting incremental Fock matrix formation  ***
  0   -304.9384130241   0.000000000000 0.02280513  0.00064301  0.1029890 0.8500
  1   -304.9526975691  -0.014284544991 0.02082239  0.00060175  0.0839342 0.8500
                               ***Turning on DIIS***
  2   -304.9638050014  -0.011107432306 0.01657868  0.00049399  0.0654900 0.8500
  3   -304.9722623366  -0.008457335135 0.01098065  0.00036444  0.0505678 0.8500
  4   -304.9788988730  -0.006636536391 0.00766011  0.00028474  0.0406457 0.8500
  5   -304.9841888057  -0.005289932745 0.00595022  0.00023553  0.0337799 0.8500
  6   -304.9885169685  -0.004328162760 0.03260135  0.00132839  0.0285007 0.0000
  7   -305.0114211350  -0.022904166545 0.00099137  0.00004181  0.0010655 0.0000
                      *** Initiating the SOSCF procedure ***
                           *** Shutting down DIIS ***
                      *** Re-Reading the Fockian *** 
                      *** Removing any level shift *** 
ITER      Energy       Delta-E        Grad      Rot      Max-DP    RMS-DP
  8   -305.01143153  -0.0000103914  0.000231  0.000231  0.000744  0.000019
               *** Restarting incremental Fock matrix formation ***
  9   -305.01149750  -0.0000659766  0.000173  0.000247  0.000282  0.000012
 10   -305.01149790  -0.0000004015  0.000065  0.000119  0.000209  0.000006
 11   -305.01149802  -0.0000001190  0.000009  0.000011  0.000037  0.000001
 12   -305.01149803  -0.0000000022  0.000006  0.000011  0.000012  0.000000
                  ***Gradient check signals convergence***
              ***Rediagonalizing the Fockian in SOSCF/NRSCF***

               *****************************************************
               *                     SUCCESS                       *
               *           SCF CONVERGED AFTER  13 CYCLES          *
               *****************************************************

Old exchange energy                            =    -13.503642773 Eh
New exchange energy                            =    -13.503678557 Eh
Exchange energy change after final integration =     -0.000035784 Eh
Total energy after final integration           =   -305.011533812 Eh
Final COS-X integration done in                =    17.134 sec

----------------
TOTAL SCF ENERGY
----------------

Total Energy       :         -305.01153381 Eh           -8299.78579 eV

Components:
Nuclear Repulsion  :          309.61099772 Eh            8424.94356 eV
Electronic Energy  :         -614.62253153 Eh          -16724.72935 eV
One Electron Energy:        -1012.61344226 Eh          -27554.61261 eV
Two Electron Energy:          397.99091073 Eh           10829.88326 eV
Max COSX asymmetry :            0.00000268 Eh               0.00007 eV
CPCM Dielectric    :           -0.08468346 Eh              -2.30435 eV

Virial components:
Potential Energy   :         -606.70620272 Eh          -16509.31509 eV
Kinetic Energy     :          301.69466891 Eh            8209.52931 eV
Virial Ratio       :            2.01099411


DFT components:
N(Alpha)           :       26.000007301612 electrons
N(Beta)            :       26.000007301612 electrons
N(Total)           :       52.000014603224 electrons
E(XC)              :      -30.487048811756 Eh       
DFET-embed. en.    :        0.000000000000 Eh       
CPCM Solvation Model Properties:
Surface-charge          :           -1.01100410
Charge-correction       :            0.00166508 Eh               0.04531 eV
Free-energy (cav+disp)  :  This term is not implemented in the current solvation scheme

---------------
SCF CONVERGENCE
---------------

  Last Energy change         ...   -2.3236e-09  Tolerance :   1.0000e-08
  Last MAX-Density change    ...    3.9968e-15  Tolerance :   1.0000e-07
  Last RMS-Density change    ...    5.6459e-17  Tolerance :   5.0000e-09
  Last Orbital Gradient      ...    2.1447e-06  Tolerance :   1.0000e-05
  Last Orbital Rotation      ...    2.8970e-06  Tolerance :   1.0000e-05

             **** THE GBW FILE WAS UPDATED (1_prot_aq_2.gbw) ****
             **** DENSITY 1_prot_aq_2.scfp WAS UPDATED ****
             **** ENERGY FILE WAS UPDATED (1_prot_aq_2.en.tmp) ****
             **** THE GBW FILE WAS UPDATED (1_prot_aq_2.gbw) ****
             **** DENSITY 1_prot_aq_2.scfp WAS UPDATED ****
----------------
ORBITAL ENERGIES
----------------

  NO   OCC          E(Eh)            E(eV) 
   0   2.0000     -14.518033      -395.0558 
   1   2.0000     -14.516722      -395.0201 
   2   2.0000     -10.382665      -282.5267 
   3   2.0000     -10.332956      -281.1740 
   4   2.0000     -10.330820      -281.1159 
   5   2.0000     -10.324636      -280.9476 
   6   2.0000     -10.324097      -280.9330 
   7   2.0000      -1.225095       -33.3365 
   8   2.0000      -1.104430       -30.0531 
   9   2.0000      -0.943115       -25.6635 
  10   2.0000      -0.907168       -24.6853 
  11   2.0000      -0.843345       -22.9486 
  12   2.0000      -0.778369       -21.1805 
  13   2.0000      -0.743208       -20.2237 
  14   2.0000      -0.689946       -18.7744 
  15   2.0000      -0.646397       -17.5894 
  16   2.0000      -0.607423       -16.5288 
  17   2.0000      -0.597337       -16.2544 
  18   2.0000      -0.588726       -16.0201 
  19   2.0000      -0.583075       -15.8663 
  20   2.0000      -0.569852       -15.5065 
  21   2.0000      -0.523115       -14.2347 
  22   2.0000      -0.521209       -14.1828 
  23   2.0000      -0.516474       -14.0540 
  24   2.0000      -0.421798       -11.4777 
  25   2.0000      -0.374814       -10.1992 
  26   0.0000       0.057218         1.5570 
  27   0.0000       0.095899         2.6096 
  28   0.0000       0.155964         4.2440 
  29   0.0000       0.163722         4.4551 
  30   0.0000       0.183972         5.0061 
  31   0.0000       0.186363         5.0712 
  32   0.0000       0.211874         5.7654 
  33   0.0000       0.226546         6.1646 
  34   0.0000       0.230873         6.2824 
  35   0.0000       0.236615         6.4386 
  36   0.0000       0.241196         6.5633 
  37   0.0000       0.244072         6.6415 
  38   0.0000       0.256257         6.9731 
  39   0.0000       0.310206         8.4411 
  40   0.0000       0.322901         8.7866 
  41   0.0000       0.333530         9.0758 
  42   0.0000       0.385963        10.5026 
  43   0.0000       0.437219        11.8973 
  44   0.0000       0.447713        12.1829 
  45   0.0000       0.462558        12.5868 
  46   0.0000       0.470178        12.7942 
  47   0.0000       0.510010        13.8781 
  48   0.0000       0.516793        14.0627 
  49   0.0000       0.549139        14.9428 
  50   0.0000       0.580514        15.7966 
  51   0.0000       0.591148        16.0859 
  52   0.0000       0.600692        16.3457 
  53   0.0000       0.635279        17.2868 
  54   0.0000       0.667102        18.1528 
  55   0.0000       0.684454        18.6250 
  56   0.0000       0.706431        19.2230 
  57   0.0000       0.713708        19.4210 
  58   0.0000       0.728834        19.8326 
  59   0.0000       0.740457        20.1489 
  60   0.0000       0.752744        20.4832 
  61   0.0000       0.760233        20.6870 
  62   0.0000       0.764182        20.7944 
  63   0.0000       0.767608        20.8877 
  64   0.0000       0.772101        21.0099 
  65   0.0000       0.789094        21.4723 
  66   0.0000       0.806108        21.9353 
  67   0.0000       0.815107        22.1802 
  68   0.0000       0.861941        23.4546 
  69   0.0000       0.911089        24.7920 
  70   0.0000       0.927615        25.2417 
  71   0.0000       0.944828        25.7101 
  72   0.0000       0.979888        26.6641 
  73   0.0000       1.023860        27.8606 
  74   0.0000       1.050915        28.5969 
  75   0.0000       1.181773        32.1577 
  76   0.0000       1.196427        32.5564 
  77   0.0000       1.216649        33.1067 
  78   0.0000       1.256019        34.1780 
  79   0.0000       1.275874        34.7183 
  80   0.0000       1.304520        35.4978 
  81   0.0000       1.308506        35.6063 
  82   0.0000       1.330214        36.1970 
  83   0.0000       1.389487        37.8099 
  84   0.0000       1.426585        38.8194 
  85   0.0000       1.507320        41.0162 
  86   0.0000       1.536840        41.8195 
  87   0.0000       1.621287        44.1175 
  88   0.0000       1.624512        44.2052 
  89   0.0000       1.638697        44.5912 
  90   0.0000       1.650728        44.9186 
  91   0.0000       1.685268        45.8585 
  92   0.0000       1.742868        47.4258 
  93   0.0000       1.817276        49.4506 
  94   0.0000       1.828382        49.7528 
  95   0.0000       1.840217        50.0749 
  96   0.0000       1.846928        50.2575 
  97   0.0000       1.864741        50.7422 
  98   0.0000       1.868336        50.8400 
  99   0.0000       1.908309        51.9277 
 100   0.0000       1.911550        52.0159 
 101   0.0000       1.914335        52.0917 
 102   0.0000       1.923988        52.3544 
 103   0.0000       1.959058        53.3087 
 104   0.0000       1.986875        54.0656 
 105   0.0000       2.036249        55.4092 
 106   0.0000       2.070473        56.3404 
 107   0.0000       2.081123        56.6302 
 108   0.0000       2.120535        57.7027 
 109   0.0000       2.136312        58.1320 
 110   0.0000       2.152454        58.5712 
 111   0.0000       2.155953        58.6665 
 112   0.0000       2.189571        59.5812 
 113   0.0000       2.248389        61.1818 
 114   0.0000       2.302154        62.6448 
 115   0.0000       2.380101        64.7658 
 116   0.0000       2.388763        65.0015 
 117   0.0000       2.427921        66.0671 
 118   0.0000       2.446768        66.5799 
 119   0.0000       2.496111        67.9226 
 120   0.0000       2.508124        68.2495 
 121   0.0000       2.545117        69.2562 
 122   0.0000       2.551125        69.4196 
 123   0.0000       2.569223        69.9121 
 124   0.0000       2.675414        72.8017 
 125   0.0000       2.688618        73.1610 
 126   0.0000       2.784087        75.7589 
 127   0.0000       2.825758        76.8928 
 128   0.0000       2.827823        76.9490 
 129   0.0000       2.882300        78.4314 
 130   0.0000       2.891538        78.6827 
 131   0.0000       2.897750        78.8518 
 132   0.0000       2.913854        79.2900 
 133   0.0000       2.920066        79.4590 
 134   0.0000       3.027075        82.3709 
 135   0.0000       3.036072        82.6157 
 136   0.0000       3.057887        83.2093 
 137   0.0000       3.059830        83.2622 
 138   0.0000       3.074968        83.6741 
 139   0.0000       3.258246        88.6614 
 140   0.0000       3.479893        94.6927 
 141   0.0000       3.588162        97.6388 
 142   0.0000       3.621372        98.5425 

                    ********************************
                    * MULLIKEN POPULATION ANALYSIS *
                    ********************************

-----------------------
MULLIKEN ATOMIC CHARGES
-----------------------
   0 N :   -0.204699
   1 C :    0.230635
   2 N :   -0.195951
   3 H :    0.126073
   4 C :    0.065026
   5 C :    0.070809
   6 C :    0.083187
   7 C :    0.083161
   8 H :    0.090641
   9 H :    0.092633
  10 H :    0.094020
  11 H :    0.092990
  12 H :    0.093411
  13 H :    0.089878
  14 H :    0.092410
  15 H :    0.095773
Sum of atomic charges:    1.0000000

--------------------------------
MULLIKEN REDUCED ORBITAL CHARGES
--------------------------------
  0 N s       :     3.391870  s :     3.391870
      pz      :     1.464377  p :     3.778203
      px      :     1.162741
      py      :     1.151085
      dz2     :     0.002400  d :     0.034625
      dxz     :     0.005812
      dyz     :     0.006934
      dx2y2   :     0.008400
      dxy     :     0.011079
  1 C s       :     3.090604  s :     3.090604
      pz      :     0.935585  p :     2.611411
      px      :     0.766550
      py      :     0.909276
      dz2     :     0.005181  d :     0.067350
      dxz     :     0.016334
      dyz     :     0.006550
      dx2y2   :     0.016776
      dxy     :     0.022508
  2 N s       :     3.389371  s :     3.389371
      pz      :     1.457446  p :     3.771642
      px      :     1.160639
      py      :     1.153557
      dz2     :     0.002388  d :     0.034938
      dxz     :     0.006213
      dyz     :     0.006813
      dx2y2   :     0.008668
      dxy     :     0.010856
  3 H s       :     0.849004  s :     0.849004
      pz      :     0.004404  p :     0.024923
      px      :     0.001302
      py      :     0.019217
  4 C s       :     3.141034  s :     3.141034
      pz      :     1.037874  p :     2.745765
      px      :     0.912900
      py      :     0.794991
      dz2     :     0.004121  d :     0.048175
      dxz     :     0.007310
      dyz     :     0.008099
      dx2y2   :     0.015817
      dxy     :     0.012827
  5 C s       :     3.133252  s :     3.133252
      pz      :     1.030817  p :     2.747205
      px      :     0.919000
      py      :     0.797389
      dz2     :     0.004107  d :     0.048734
      dxz     :     0.007561
      dyz     :     0.008218
      dx2y2   :     0.015843
      dxy     :     0.013005
  6 C s       :     3.002294  s :     3.002294
      pz      :     1.076817  p :     2.877164
      px      :     0.754768
      py      :     1.045579
      dz2     :     0.007371  d :     0.037355
      dxz     :     0.005480
      dyz     :     0.006798
      dx2y2   :     0.008932
      dxy     :     0.008773
  7 C s       :     3.003810  s :     3.003810
      pz      :     1.076768  p :     2.875576
      px      :     0.753820
      py      :     1.044989
      dz2     :     0.007304  d :     0.037452
      dxz     :     0.009192
      dyz     :     0.003142
      dx2y2   :     0.011503
      dxy     :     0.006310
  8 H s       :     0.885115  s :     0.885115
      pz      :     0.005183  p :     0.024244
      px      :     0.007818
      py      :     0.011242
  9 H s       :     0.883281  s :     0.883281
      pz      :     0.011622  p :     0.024086
      px      :     0.002941
      py      :     0.009523
 10 H s       :     0.881981  s :     0.881981
      pz      :     0.013563  p :     0.023999
      px      :     0.003183
      py      :     0.007254
 11 H s       :     0.882982  s :     0.882982
      pz      :     0.012345  p :     0.024027
      px      :     0.005638
      py      :     0.006044
 12 H s       :     0.882585  s :     0.882585
      pz      :     0.012983  p :     0.024004
      px      :     0.005367
      py      :     0.005654
 13 H s       :     0.885860  s :     0.885860
      pz      :     0.005039  p :     0.024261
      px      :     0.002548
      py      :     0.016674
 14 H s       :     0.882402  s :     0.882402
      pz      :     0.004904  p :     0.025189
      px      :     0.008733
      py      :     0.011551
 15 H s       :     0.879121  s :     0.879121
      pz      :     0.004806  p :     0.025106
      px      :     0.008653
      py      :     0.011647


                     *******************************
                     * LOEWDIN POPULATION ANALYSIS *
                     *******************************

----------------------
LOEWDIN ATOMIC CHARGES
----------------------
   0 N :    0.103617
   1 C :    0.131865
   2 N :    0.108361
   3 H :    0.065260
   4 C :    0.019418
   5 C :    0.024105
   6 C :    0.054521
   7 C :    0.055052
   8 H :    0.054960
   9 H :    0.053707
  10 H :    0.053070
  11 H :    0.053536
  12 H :    0.053376
  13 H :    0.054573
  14 H :    0.057140
  15 H :    0.057439

-------------------------------
LOEWDIN REDUCED ORBITAL CHARGES
-------------------------------
  0 N s       :     3.038104  s :     3.038104
      pz      :     1.388344  p :     3.779617
      px      :     1.189050
      py      :     1.202224
      dz2     :     0.004433  d :     0.078662
      dxz     :     0.009552
      dyz     :     0.013099
      dx2y2   :     0.022892
      dxy     :     0.028686
  1 C s       :     2.833301  s :     2.833301
      pz      :     0.959562  p :     2.878360
      px      :     0.893655
      py      :     1.025143
      dz2     :     0.011042  d :     0.156473
      dxz     :     0.033764
      dyz     :     0.010204
      dx2y2   :     0.041859
      dxy     :     0.059604
  2 N s       :     3.037863  s :     3.037863
      pz      :     1.381526  p :     3.774567
      px      :     1.189592
      py      :     1.203449
      dz2     :     0.004417  d :     0.079209
      dxz     :     0.009977
      dyz     :     0.013112
      dx2y2   :     0.023303
      dxy     :     0.028399
  3 H s       :     0.858522  s :     0.858522
      pz      :     0.014814  p :     0.076218
      px      :     0.007208
      py      :     0.054196
  4 C s       :     2.848135  s :     2.848135
      pz      :     1.032097  p :     3.013717
      px      :     1.049519
      py      :     0.932101
      dz2     :     0.008783  d :     0.118730
      dxz     :     0.014338
      dyz     :     0.015646
      dx2y2   :     0.044429
      dxy     :     0.035533
  5 C s       :     2.848687  s :     2.848687
      pz      :     1.023508  p :     3.007404
      px      :     1.051150
      py      :     0.932746
      dz2     :     0.008775  d :     0.119804
      dxz     :     0.014884
      dyz     :     0.015904
      dx2y2   :     0.044362
      dxy     :     0.035879
  6 C s       :     2.820382  s :     2.820382
      pz      :     1.101817  p :     3.030975
      px      :     0.855537
      py      :     1.073621
      dz2     :     0.018205  d :     0.094122
      dxz     :     0.012993
      dyz     :     0.018497
      dx2y2   :     0.021190
      dxy     :     0.023238
  7 C s       :     2.820287  s :     2.820287
      pz      :     1.101557  p :     3.030226
      px      :     0.856166
      py      :     1.072503
      dz2     :     0.018114  d :     0.094435
      dxz     :     0.024713
      dyz     :     0.006964
      dx2y2   :     0.029482
      dxy     :     0.015162
  8 H s       :     0.877256  s :     0.877256
      pz      :     0.014167  p :     0.067784
      px      :     0.022544
      py      :     0.031072
  9 H s       :     0.878810  s :     0.878810
      pz      :     0.031487  p :     0.067483
      px      :     0.009719
      py      :     0.026278
 10 H s       :     0.879656  s :     0.879656
      pz      :     0.036857  p :     0.067274
      px      :     0.010456
      py      :     0.019960
 11 H s       :     0.879198  s :     0.879198
      pz      :     0.033435  p :     0.067266
      px      :     0.017150
      py      :     0.016681
 12 H s       :     0.879415  s :     0.879415
      pz      :     0.035212  p :     0.067209
      px      :     0.016454
      py      :     0.015543
 13 H s       :     0.877552  s :     0.877552
      pz      :     0.013778  p :     0.067875
      px      :     0.008508
      py      :     0.045589
 14 H s       :     0.867908  s :     0.867908
      pz      :     0.016261  p :     0.074953
      px      :     0.025290
      py      :     0.033401
 15 H s       :     0.867791  s :     0.867791
      pz      :     0.016012  p :     0.074770
      px      :     0.025005
      py      :     0.033753


                      *****************************
                      * MAYER POPULATION ANALYSIS *
                      *****************************

  NA   - Mulliken gross atomic population
  ZA   - Total nuclear charge
  QA   - Mulliken gross atomic charge
  VA   - Mayer's total valence
  BVA  - Mayer's bonded valence
  FA   - Mayer's free valence

  ATOM       NA         ZA         QA         VA         BVA        FA
  0 N      7.2047     7.0000    -0.2047     3.5241     3.5241    -0.0000
  1 C      5.7694     6.0000     0.2306     3.8508     3.8508     0.0000
  2 N      7.1960     7.0000    -0.1960     3.5305     3.5305     0.0000
  3 H      0.8739     1.0000     0.1261     0.9965     0.9965     0.0000
  4 C      5.9350     6.0000     0.0650     3.8580     3.8580    -0.0000
  5 C      5.9292     6.0000     0.0708     3.8608     3.8608     0.0000
  6 C      5.9168     6.0000     0.0832     3.8546     3.8546     0.0000
  7 C      5.9168     6.0000     0.0832     3.8576     3.8576    -0.0000
  8 H      0.9094     1.0000     0.0906     0.9977     0.9977     0.0000
  9 H      0.9074     1.0000     0.0926     0.9932     0.9932     0.0000
 10 H      0.9060     1.0000     0.0940     0.9920     0.9920     0.0000
 11 H      0.9070     1.0000     0.0930     0.9920     0.9920    -0.0000
 12 H      0.9066     1.0000     0.0934     0.9917     0.9917    -0.0000
 13 H      0.9101     1.0000     0.0899     0.9972     0.9972     0.0000
 14 H      0.9076     1.0000     0.0924     0.9980     0.9980    -0.0000
 15 H      0.9042     1.0000     0.0958     0.9968     0.9968    -0.0000

  Mayer bond orders larger than 0.100000
B(  0-N ,  1-C ) :   1.3496 B(  0-N ,  5-C ) :   1.1940 B(  0-N ,  6-C ) :   0.9025 
B(  1-C ,  2-N ) :   1.3603 B(  1-C ,  3-H ) :   0.9738 B(  2-N ,  4-C ) :   1.1892 
B(  2-N ,  7-C ) :   0.9065 B(  4-C ,  5-C ) :   1.5926 B(  4-C , 14-H ) :   0.9908 
B(  5-C , 15-H ) :   0.9879 B(  6-C ,  8-H ) :   0.9727 B(  6-C ,  9-H ) :   0.9736 
B(  6-C , 10-H ) :   0.9742 B(  7-C , 11-H ) :   0.9730 B(  7-C , 12-H ) :   0.9732 
B(  7-C , 13-H ) :   0.9717 

-------
TIMINGS
-------

Total SCF time: 0 days 0 hours 1 min 52 sec 

Total time                  ....     112.571 sec
Sum of individual times     ....     112.248 sec  ( 99.7%)

Fock matrix formation       ....     110.021 sec  ( 97.7%)
  Split-RI-J                ....       3.956 sec  (  3.6% of F)
  Chain of spheres X        ....      86.307 sec  ( 78.4% of F)
  XC integration            ....      13.148 sec  ( 12.0% of F)
    Basis function eval.    ....       4.789 sec  ( 36.4% of XC)
    Density eval.           ....       2.592 sec  ( 19.7% of XC)
    XC-Functional eval.     ....       2.285 sec  ( 17.4% of XC)
    XC-Potential eval.      ....       3.038 sec  ( 23.1% of XC)
Diagonalization             ....       0.036 sec  (  0.0%)
Density matrix formation    ....       0.004 sec  (  0.0%)
Population analysis         ....       0.006 sec  (  0.0%)
Initial guess               ....       0.368 sec  (  0.3%)
Orbital Transformation      ....       0.000 sec  (  0.0%)
Orbital Orthonormalization  ....       0.000 sec  (  0.0%)
DIIS solution               ....       0.012 sec  (  0.0%)
SOSCF solution              ....       0.014 sec  (  0.0%)
Grid generation             ....       1.787 sec  (  1.6%)

Maximum memory used throughout the entire SCF-calculation: 64.7 MB


-------------------------------------------------------------------------------
                          DFT DISPERSION CORRECTION                            
                                                                               
                                 DFTD4 V2.5                                    
-------------------------------------------------------------------------------
The WB97X functional is recognized
Active option DFTDOPT                   ...         5   

Starting D4
-------------------------   ----------------
Dispersion correction           -0.001655747
-------------------------   ----------------


-------------------------   --------------------
FINAL SINGLE POINT ENERGY      -305.013189559071
-------------------------   --------------------

------------------------------------------------------------------------------
                         ORCA SCF GRADIENT CALCULATION
------------------------------------------------------------------------------

 ... reading COSX grid (gridx3)
Gradient of the Kohn-Sham DFT energy:
Kohn-Sham wavefunction type      ... RKS
Hartree-Fock exchange scaling    ...    0.158
Number of operators              ...    1
Number of atoms                  ...   16
Basis set dimensions             ...  143
Integral neglect threshold       ... 2.5e-11
Integral primitive cutoff        ... 2.5e-12
SHARK Integral package           ... ON

Nuc. rep. gradient       (SHARK) ... done (  0.0 sec)
HCore & Overlap gradient (SHARK) ... done (  0.2 sec)
RI-J gradient            (SHARK) ... done (  1.0 sec)
COSX-gradient                    ... done ( 18.7 sec)
Exchange-correlation gradient    ... done
Dispersion correction            ... Starting D4


------------------- 
Dispersion Gradient 
------------------- 
   1  :   -0.000008145    0.000002827    0.000000056
   2  :   -0.000000094    0.000014692   -0.000000022
   3  :    0.000008114    0.000002750    0.000000034
   4  :   -0.000000224   -0.000002599   -0.000000011
   5  :    0.000002009   -0.000000988    0.000000026
   6  :   -0.000001917   -0.000000860    0.000000014
   7  :   -0.000030390   -0.000007444   -0.000000123
   8  :    0.000030546   -0.000006883   -0.000000048
   9  :   -0.000006745   -0.000001628    0.000000038
  10  :   -0.000007461   -0.000001738    0.000000354
  11  :   -0.000007277   -0.000001656   -0.000000315
  12  :    0.000006722   -0.000001575    0.000000155
  13  :    0.000006746   -0.000001570   -0.000000164
  14  :    0.000007975   -0.000002055    0.000000022
  15  :    0.000003134    0.000004277   -0.000000005
  16  :   -0.000002994    0.000004449   -0.000000011

  |G| =    0.000052190

done

------------------
CARTESIAN GRADIENT
------------------

   1   N   :   -0.011293138    0.004551142   -0.000462034
   2   C   :    0.000823319   -0.001783978   -0.000104413
   3   N   :    0.011325424    0.004154226   -0.000068628
   4   H   :   -0.000336054    0.012883666   -0.000086623
   5   C   :    0.011551098   -0.005734403    0.000104290
   6   C   :   -0.012364072   -0.006203594    0.000156719
   7   C   :    0.009754521    0.007195422    0.001141095
   8   C   :   -0.011234064    0.002527718    0.000403351
   9   H   :    0.001966069   -0.005702785   -0.001015939
  10   H   :   -0.000265798    0.002721429   -0.004715266
  11   H   :    0.000051656    0.001545494    0.004945600
  12   H   :   -0.000772028   -0.002071306   -0.005059364
  13   H   :   -0.000724733   -0.001725554    0.005082151
  14   H   :    0.001297956    0.006060525   -0.000304016
  15   H   :   -0.009072560   -0.009388745   -0.000022346
  16   H   :    0.009302612   -0.009249858   -0.000074490

Difference to translation invariance:
           :    0.0000102063   -0.0002205989   -0.0000799129

Difference to rotation invariance:
           :   -0.0001225382   -0.0003532511   -0.0014839798

Norm of the cartesian gradient     ...    0.0404662847
RMS gradient                       ...    0.0058408051
MAX gradient                       ...    0.0128836659

-------
TIMINGS
-------

Total SCF gradient time            ...       25.488 sec

One electron gradient       ....       0.171 sec  (  0.7%)
RI-J Coulomb gradient       ....       0.995 sec  (  3.9%)
COSX gradient               ....      18.719 sec  ( 73.4%)
XC gradient                 ....       4.398 sec  ( 17.3%)
CPCM gradient               ....       0.401 sec  (  1.6%)
   A-Matrix (El+Nuc)        ....       0.040 sec  (  0.2%)
   Potential                ....       0.361 sec  (  1.4%)

Maximum memory used throughout the entire SCFGRAD-calculation: 51.9 MB
------------------------------------------------------------------------------
                         ORCA GEOMETRY RELAXATION STEP
------------------------------------------------------------------------------

Reading the OPT-File                    .... done
Getting information on internals        .... done
Copying old internal coords+grads       .... done
Making the new internal coordinates     .... (new redundants).... done
Validating the new internal coordinates .... (new redundants).... done
Calculating the B-matrix                .... done
Calculating the G,G- and P matrices     .... done
Transforming gradient to internals      .... done
Projecting the internal gradient        .... done
Number of atoms                         ....  16
Number of internal coordinates          ....  75
Current Energy                          ....  -305.013189559 Eh
Current gradient norm                   ....     0.040466285 Eh/bohr
Maximum allowed component of the step   ....  0.300
Current trust radius                    ....  0.300
Evaluating the initial hessian          ....  (Almloef) done
Projecting the Hessian                  .... done
Forming the augmented Hessian           .... done
Diagonalizing the augmented Hessian     .... done
Last element of RFO vector              ....  0.995795003
Lowest eigenvalues of augmented Hessian:
 -0.003572554  0.018634471  0.018800704  0.027192752  0.028499504
Length of the computed step             ....  0.091996410
The final length of the internal step   ....  0.091996410
Converting the step to cartesian space:
 Initial RMS(Int)=    0.0106228304
Transforming coordinates:
 Iter   0:  RMS(Cart)=    0.0179944226 RMS(Int)=    0.7254929398
 Iter   1:  RMS(Cart)=    0.0000865985 RMS(Int)=    0.0000378906
 Iter   2:  RMS(Cart)=    0.0000008882 RMS(Int)=    0.0000005095
 Iter   3:  RMS(Cart)=    0.0000000088 RMS(Int)=    0.0000000059
done
Storing new coordinates                 .... done

                                .--------------------.
          ----------------------|Geometry convergence|-------------------------
          Item                value                   Tolerance       Converged
          ---------------------------------------------------------------------
          RMS gradient        0.0046269613            0.0001000000      NO
          MAX gradient        0.0154908410            0.0003000000      NO
          RMS step            0.0106228304            0.0020000000      NO
          MAX step            0.0334826148            0.0040000000      NO
          ........................................................
          Max(Bonds)      0.0177      Max(Angles)    0.58
          Max(Dihed)        0.44      Max(Improp)    0.00
          ---------------------------------------------------------------------

The optimization has not yet converged - more geometry cycles are needed


    ---------------------------------------------------------------------------
                         Redundant Internal Coordinates
                            (Angstroem and degrees)

        Definition                    Value    dE/dq     Step     New-Value
    ----------------------------------------------------------------------------
     1. B(C   1,N   0)                1.3318 -0.001468  0.0010    1.3329   
     2. B(N   2,C   1)                1.3295 -0.002187  0.0016    1.3311   
     3. B(H   3,C   1)                1.0732 -0.012896  0.0176    1.0908   
     4. B(C   4,N   2)                1.3612 -0.014754  0.0125    1.3737   
     5. B(C   5,C   4)                1.3627  0.000913 -0.0006    1.3621   
     6. B(C   5,N   0)                1.3600 -0.015491  0.0131    1.3730   
     7. B(C   6,N   0)                1.4392 -0.012749  0.0143    1.4535   
     8. B(C   7,N   2)                1.4380 -0.012389  0.0139    1.4519   
     9. B(H   8,C   6)                1.0874 -0.005776  0.0083    1.0958   
    10. B(H   9,C   6)                1.0899 -0.005237  0.0076    1.0975   
    11. B(H  10,C   6)                1.0909 -0.004993  0.0073    1.0981   
    12. B(H  11,C   7)                1.0903 -0.005139  0.0075    1.0978   
    13. B(H  12,C   7)                1.0906 -0.005074  0.0074    1.0980   
    14. B(H  13,C   7)                1.0874 -0.006058  0.0087    1.0961   
    15. B(H  14,C   4)                1.0710 -0.013020  0.0177    1.0887   
    16. B(H  15,C   5)                1.0710 -0.013046  0.0177    1.0888   
    17. A(C   1,N   0,C   6)          125.93  0.003222   -0.43    125.50   
    18. A(C   5,N   0,C   6)          126.14  0.000817   -0.10    126.04   
    19. A(C   1,N   0,C   5)          107.93 -0.004039    0.53    108.46   
    20. A(N   0,C   1,N   2)          109.45  0.004018   -0.57    108.88   
    21. A(N   2,C   1,H   3)          125.43 -0.001621    0.22    125.65   
    22. A(N   0,C   1,H   3)          125.12 -0.002397    0.34    125.46   
    23. A(C   1,N   2,C   7)          126.68  0.004022   -0.54    126.14   
    24. A(C   1,N   2,C   4)          107.99 -0.004436    0.58    108.57   
    25. A(C   4,N   2,C   7)          125.33  0.000415   -0.05    125.29   
    26. A(N   2,C   4,C   5)          107.27  0.002431   -0.30    106.97   
    27. A(C   5,C   4,H  14)          130.11 -0.002123    0.29    130.40   
    28. A(N   2,C   4,H  14)          122.62 -0.000308    0.01    122.63   
    29. A(N   0,C   5,C   4)          107.36  0.002026   -0.25    107.11   
    30. A(N   0,C   5,H  15)          122.78  0.000225   -0.07    122.71   
    31. A(C   4,C   5,H  15)          129.86 -0.002251    0.32    130.18   
    32. A(N   0,C   6,H  10)          110.42  0.000868   -0.12    110.30   
    33. A(H   8,C   6,H   9)          109.03 -0.001344    0.15    109.17   
    34. A(N   0,C   6,H   9)          110.39  0.001065   -0.18    110.21   
    35. A(N   0,C   6,H   8)          109.49  0.002663   -0.53    108.96   
    36. A(H   9,C   6,H  10)          108.62 -0.001802    0.47    109.09   
    37. A(H   8,C   6,H  10)          108.86 -0.001552    0.24    109.10   
    38. A(H  12,C   7,H  13)          109.09 -0.001400    0.21    109.30   
    39. A(H  11,C   7,H  13)          109.14 -0.001362    0.17    109.31   
    40. A(N   2,C   7,H  13)          110.00  0.001683   -0.35    109.65   
    41. A(H  11,C   7,H  12)          108.43 -0.002349    0.55    108.97   
    42. A(N   2,C   7,H  12)          110.10  0.001536   -0.25    109.85   
    43. A(N   2,C   7,H  11)          110.06  0.001783   -0.30    109.75   
    44. D(H   3,C   1,N   0,C   6)     -0.46  0.000061   -0.09     -0.55   
    45. D(N   2,C   1,N   0,C   6)    179.59  0.000057   -0.09    179.51   
    46. D(N   2,C   1,N   0,C   5)      0.05  0.000032   -0.05     -0.00   
    47. D(H   3,C   1,N   0,C   5)    179.99  0.000036   -0.05    179.94   
    48. D(C   7,N   2,C   1,N   0)   -179.94  0.000004   -0.01   -179.95   
    49. D(C   4,N   2,C   1,N   0)     -0.04 -0.000011    0.02     -0.02   
    50. D(C   4,N   2,C   1,H   3)   -179.98 -0.000015    0.02   -179.96   
    51. D(C   7,N   2,C   1,H   3)      0.12  0.000000   -0.01      0.11   
    52. D(H  14,C   4,N   2,C   1)    179.97  0.000019   -0.03    179.93   
    53. D(H  14,C   4,N   2,C   7)     -0.13  0.000008   -0.01     -0.14   
    54. D(C   5,C   4,N   2,C   7)    179.92 -0.000024    0.05    179.96   
    55. D(C   5,C   4,N   2,C   1)      0.01 -0.000013    0.02      0.03   
    56. D(H  15,C   5,N   0,C   1)    179.99 -0.000028    0.05    180.04   
    57. D(C   4,C   5,N   0,C   6)   -179.58 -0.000076    0.10   -179.48   
    58. D(C   4,C   5,N   0,C   1)     -0.04 -0.000037    0.06      0.02   
    59. D(H  15,C   5,C   4,H  14)      0.04 -0.000014    0.02      0.06   
    60. D(H  15,C   5,C   4,N   2)    179.99  0.000023   -0.04    179.95   
    61. D(N   0,C   5,C   4,H  14)   -179.93 -0.000004    0.01   -179.92   
    62. D(N   0,C   5,C   4,N   2)      0.02  0.000033   -0.05     -0.03   
    63. D(H  15,C   5,N   0,C   6)      0.44 -0.000066    0.09      0.53   
    64. D(H  10,C   6,N   0,C   5)    113.12  0.000539   -0.44    112.68   
    65. D(H  10,C   6,N   0,C   1)    -66.35  0.000527   -0.40    -66.75   
    66. D(H   9,C   6,N   0,C   5)   -126.76 -0.000460   -0.06   -126.82   
    67. D(H   9,C   6,N   0,C   1)     53.77 -0.000471   -0.01     53.76   
    68. D(H   8,C   6,N   0,C   5)     -6.73  0.000231   -0.32     -7.05   
    69. D(H   8,C   6,N   0,C   1)    173.81  0.000220   -0.28    173.52   
    70. D(H  12,C   7,N   2,C   4)    -61.71  0.000386   -0.16    -61.87   
    71. D(H  12,C   7,N   2,C   1)    118.18  0.000365   -0.13    118.05   
    72. D(H  11,C   7,N   2,C   4)     57.76 -0.000436    0.17     57.93   
    73. D(H  13,C   7,N   2,C   1)     -2.07  0.000055   -0.01     -2.08   
    74. D(H  11,C   7,N   2,C   1)   -122.35 -0.000458    0.20   -122.16   
    75. D(H  13,C   7,N   2,C   4)    178.04  0.000077   -0.04    178.01   
    ----------------------------------------------------------------------------

         *************************************************************
         *                GEOMETRY OPTIMIZATION CYCLE   2            *
         *************************************************************
---------------------------------
CARTESIAN COORDINATES (ANGSTROEM)
---------------------------------
  N     -1.084305   -0.099607    0.003331
  C     -0.000907   -0.875972    0.003241
  N      1.082820   -0.103180    0.000345
  H     -0.003973   -1.966781    0.006134
  C      0.683054    1.211054   -0.001907
  C     -0.679061    1.212272    0.000434
  C     -2.459706   -0.569733   -0.004122
  C      2.460719   -0.560729   -0.001787
  H     -3.130038    0.288879    0.114772
  H     -2.624487   -1.272819    0.822366
  H     -2.685173   -1.072787   -0.953865
  H      2.987820   -0.154827    0.871499
  H      2.965823   -0.218269   -0.914620
  H      2.485442   -1.655915    0.036726
  H      1.389430    2.039471   -0.003380
  H     -1.380777    2.044734    0.000527

----------------------------
CARTESIAN COORDINATES (A.U.)
----------------------------
  NO LB      ZA    FRAG     MASS         X           Y           Z
   0 N     7.0000    0    14.007   -2.049040   -0.188230    0.006294
   1 C     6.0000    0    12.011   -0.001714   -1.655348    0.006124
   2 N     7.0000    0    14.007    2.046234   -0.194982    0.000651
   3 H     1.0000    0     1.008   -0.007508   -3.716677    0.011592
   4 C     6.0000    0    12.011    1.290785    2.288560   -0.003604
   5 C     6.0000    0    12.011   -1.283240    2.290863    0.000819
   6 C     6.0000    0    12.011   -4.648170   -1.076639   -0.007789
   7 C     6.0000    0    12.011    4.650085   -1.059624   -0.003377
   8 H     1.0000    0     1.008   -5.914915    0.545902    0.216888
   9 H     1.0000    0     1.008   -4.959561   -2.405279    1.554046
  10 H     1.0000    0     1.008   -5.074241   -2.027273   -1.802543
  11 H     1.0000    0     1.008    5.646162   -0.292581    1.646894
  12 H     1.0000    0     1.008    5.604594   -0.412469   -1.728382
  13 H     1.0000    0     1.008    4.696805   -3.129226    0.069401
  14 H     1.0000    0     1.008    2.625642    3.854041   -0.006387
  15 H     1.0000    0     1.008   -2.609291    3.863987    0.000996

--------------------------------
INTERNAL COORDINATES (ANGSTROEM)
--------------------------------
 N      0   0   0     0.000000000000     0.00000000     0.00000000
 C      1   0   0     1.332852039285     0.00000000     0.00000000
 N      2   1   0     1.331044949301   108.88231257     0.00000000
 H      2   1   3     1.090816811782   125.46424311   179.94107602
 C      3   2   1     1.373691472153   108.57350798     0.00000000
 C      5   3   2     1.362117674770   106.96986948     0.03165143
 C      1   2   3     1.453547705374   125.50304076   179.50596574
 C      3   2   1     1.451881863971   126.13848153   180.05168000
 H      7   1   2     1.095762401395   108.95770718   173.52480653
 H      7   1   2     1.097526515968   110.20623367    53.75974561
 H      7   1   2     1.098139788369   110.29638689   293.25385425
 H      8   3   2     1.097825122120   109.75384034   237.84367397
 H      8   3   2     1.098031681853   109.84646211   118.04973280
 H      8   3   2     1.096141801714   109.64679269   357.92485929
 H      5   3   2     1.088689185215   122.62761133   179.93195496
 H      6   5   3     1.088759749633   130.18009571   179.94845177

---------------------------
INTERNAL COORDINATES (A.U.)
---------------------------
 N      0   0   0     0.000000000000     0.00000000     0.00000000
 C      1   0   0     2.518725331288     0.00000000     0.00000000
 N      2   1   0     2.515310426118   108.88231257     0.00000000
 H      2   1   3     2.061345036545   125.46424311   179.94107602
 C      3   2   1     2.595900674872   108.57350798     0.00000000
 C      5   3   2     2.574029367490   106.96986948     0.03165143
 C      1   2   3     2.746807085746   125.50304076   179.50596574
 C      3   2   1     2.743659101712   126.13848153   180.05168000
 H      7   1   2     2.070690846484   108.95770718   173.52480653
[...]
     37      -0.012103  -0.294137   0.468591  -0.136796  -0.257756  -0.144003
     38      -0.259625  -0.170856  -0.094333  -0.127869  -0.220593  -0.220181
     39      -0.265129  -0.144105  -0.397202   0.104074   0.370645   0.396970
     40      -0.002483   0.018248  -0.053066   0.009374   0.014614  -0.007764
     41      -0.081142  -0.540576   0.424154  -0.033853   0.059343   0.072426
     42       0.056321  -0.011089  -0.013318   0.008603  -0.035188  -0.145170
     43      -0.014123   0.024936   0.018237  -0.027744  -0.061998   0.034777
     44       0.001705  -0.001794  -0.002362   0.001909   0.006004  -0.004383
     45       0.058114  -0.011183  -0.005202   0.036177   0.040108  -0.143374
     46       0.009297   0.016945   0.009386  -0.012367  -0.059155  -0.032539
     47      -0.002135  -0.001512  -0.000622   0.000746   0.006748   0.003366
                 36         37         38         39         40         41    
      0      -0.127090   0.234361  -0.232999   0.000254   0.000774   0.000375
      1       0.138428  -0.074554   0.012990  -0.000269   0.000310   0.000072
      2      -0.010905   0.009329  -0.004794   0.000015   0.000288  -0.000460
      3       0.002555  -0.071804   0.433111  -0.001046   0.000869   0.000146
      4      -0.192883   0.121893   0.024718  -0.000123  -0.000170  -0.000179
      5       0.017839  -0.010670  -0.005736   0.000050   0.000030   0.000045
      6       0.122264  -0.145164  -0.305113  -0.000756  -0.000345  -0.000084
      7       0.148447  -0.070144  -0.044798   0.000183  -0.000217   0.000046
      8      -0.015615   0.006400   0.003598  -0.000164  -0.000032   0.000157
      9      -0.016562   0.098980  -0.556260   0.001162  -0.000942   0.000004
     10      -0.237082   0.171499   0.034911   0.000311  -0.000948   0.003108
     11       0.019503  -0.014806  -0.003184  -0.000210   0.000361  -0.000296
     12       0.173481   0.329821   0.125850  -0.000463  -0.000239   0.000039
     13      -0.054444  -0.027002  -0.066554   0.000545   0.000172   0.000030
     14       0.003495  -0.000390   0.005304  -0.000030  -0.000045   0.000039
     15      -0.168584  -0.353566   0.011702   0.000183   0.000485   0.000065
     16      -0.042410  -0.049475   0.054318   0.000114   0.000534  -0.000052
     17       0.005302   0.007992  -0.004848   0.000003  -0.000064  -0.000063
     18       0.037198  -0.041267   0.028572   0.002423  -0.046615  -0.012924
     19       0.000456   0.015025   0.006923   0.000628  -0.012624   0.029812
     20      -0.002588  -0.006304   0.005106   0.000316  -0.006464   0.086336
     21      -0.037836   0.030370   0.043753   0.046604   0.002559   0.000251
     22       0.001991   0.018206   0.002889  -0.011619  -0.000617  -0.004613
     23       0.000933  -0.000494   0.002900   0.004779   0.000262  -0.026788
     24       0.299213  -0.203792   0.141664  -0.016333   0.310616   0.364473
     25       0.049074  -0.082495   0.082294   0.019689  -0.368363  -0.435372
     26       0.211589  -0.056434   0.035819   0.015138  -0.283965  -0.324810
     27      -0.298105   0.070694   0.056222  -0.001103   0.023085   0.004356
     28      -0.055513   0.029225   0.000210  -0.025231   0.467060   0.124848
     29      -0.140178   0.028626  -0.003272   0.013111  -0.242675  -0.055550
     30       0.144704  -0.146592   0.156898  -0.010620   0.205163  -0.222156
     31      -0.263437   0.014689   0.033282  -0.002395   0.046526  -0.045375
     32      -0.016616   0.031433  -0.044271  -0.031822   0.600130  -0.643254
     33      -0.212880   0.111251   0.211866  -0.247084  -0.013481   0.086407
     34      -0.212231   0.001887  -0.063286  -0.184379  -0.009741   0.065084
     35       0.153559  -0.032458  -0.056384  -0.528958  -0.028309   0.183095
     36      -0.284291   0.133515   0.213678  -0.284930  -0.015499  -0.087486
     37      -0.105361  -0.017166  -0.077291  -0.221602  -0.011723  -0.069470
     38      -0.205232   0.046901   0.074991   0.443558   0.023681   0.133633
     39       0.374579  -0.108551   0.007457  -0.005840  -0.000413  -0.000382
     40       0.001993   0.017768   0.004789   0.540360   0.028287   0.058357
     41       0.072961  -0.013153  -0.006261   0.030431   0.001580   0.000936
     42      -0.005910  -0.101552  -0.232416   0.001607  -0.001440  -0.000594
     43       0.134175   0.441909   0.247365   0.000379  -0.001159  -0.000663
     44      -0.013992  -0.039704  -0.024202  -0.000160   0.000239   0.000149
     45      -0.014872   0.174955  -0.183232   0.001717  -0.001377  -0.000640
     46       0.125268   0.496234  -0.085932  -0.001362   0.000145  -0.000000
     47      -0.010736  -0.051411   0.010893   0.000003   0.000229   0.000497
                 42         43         44         45         46         47    
      0      -0.000087   0.000124   0.000292   0.000082   0.003519   0.000933
      1      -0.000021   0.000065   0.000321   0.000996  -0.003384   0.002647
      2       0.000093   0.000006  -0.000150  -0.000118   0.000221  -0.000302
      3      -0.000105   0.000122  -0.000258  -0.002017   0.000034   0.000005
      4      -0.000050  -0.000121   0.000212   0.000041   0.092950   0.012856
      5      -0.000127   0.000134  -0.000137   0.000014  -0.008720  -0.001209
      6      -0.000257  -0.000373  -0.000115   0.000034  -0.003573  -0.000913
      7       0.000175   0.000415   0.000067  -0.001018  -0.003330   0.002670
      8       0.000459  -0.000083  -0.000036   0.000079   0.000377  -0.000205
      9       0.000193   0.000868  -0.000779  -0.000422   0.000261   0.000047
     10       0.001116   0.003536  -0.002330  -0.000425  -0.983629  -0.120303
     11       0.000083  -0.000706   0.000830   0.000071   0.092545   0.011333
     12      -0.000069  -0.000049   0.000023   0.039956   0.006943  -0.049801
     13       0.000047   0.000494   0.000029   0.048523   0.003843  -0.047721
     14       0.000153  -0.000127   0.000031  -0.004699  -0.000390   0.004737
     15      -0.000059  -0.000054   0.000040   0.039859  -0.006958   0.049724
     16       0.000037   0.000015   0.000444  -0.048663   0.003907  -0.047911
     17       0.000040  -0.000005   0.000099   0.003674  -0.000232   0.003521
     18       0.003825  -0.000045   0.025688   0.000311  -0.000280  -0.000008
     19      -0.008900   0.000002  -0.086154  -0.000498   0.000649  -0.000364
     20      -0.025410  -0.000185   0.034275   0.000073   0.000124   0.000157
     21       0.000939  -0.028175   0.000000   0.000341   0.000117  -0.000030
     22      -0.015164  -0.091066  -0.000091   0.000574   0.000004  -0.000549
     23      -0.091159   0.014872   0.000120  -0.000058  -0.000162  -0.000009
     24      -0.107471  -0.000098  -0.256395  -0.002355   0.000041  -0.000908
     25       0.128505   0.000130   0.303746   0.001419  -0.002287  -0.000462
     26       0.095897   0.000093   0.239995   0.001670  -0.001232   0.000291
     27      -0.001188  -0.000039   0.033810  -0.001045  -0.001253  -0.001185
     28      -0.035745  -0.000820   0.741263   0.001307  -0.001668   0.001666
     29       0.015818   0.000382  -0.383887  -0.000752   0.001095  -0.000847
     30       0.065212   0.000616  -0.086782  -0.000913  -0.001111  -0.000480
     31       0.013297   0.000128  -0.027447  -0.000244  -0.000297  -0.000349
     32       0.189140   0.001610  -0.262389  -0.001251  -0.001371  -0.000462
     33       0.292988   0.085590  -0.000363  -0.001254   0.001544   0.000661
     34       0.221168   0.059358  -0.000263  -0.000377   0.000051  -0.000193
     35       0.621596   0.192531  -0.000777  -0.001850   0.001482   0.000766
     36      -0.298052   0.263066   0.000504  -0.002003   0.001297   0.000949
     37      -0.237098   0.202829   0.000490  -0.000739  -0.000516  -0.000274
     38       0.456132  -0.414486  -0.000909   0.002386  -0.000155  -0.000676
     39      -0.001175  -0.006018   0.000017  -0.001091   0.001409   0.001334
     40       0.193567   0.811440   0.000892  -0.001908   0.003279   0.002976
     41       0.003013   0.046005   0.000008  -0.000141   0.000015   0.000138
     42      -0.000075  -0.003824   0.000564  -0.464050  -0.057127   0.464254
     43      -0.000396  -0.003401   0.000558  -0.527366  -0.064320   0.519276
     44      -0.000745   0.000638   0.000037   0.051486   0.006249  -0.050726
     45       0.000368  -0.000658   0.003206  -0.463268   0.057428  -0.463645
     46      -0.000237   0.000605  -0.002784   0.528914  -0.064988   0.520991
     47      -0.000394  -0.000016  -0.000079  -0.039216   0.004842  -0.038542


-----------
IR SPECTRUM
-----------

 Mode   freq       eps      Int      T**2         TX        TY        TZ
       cm**-1   L/(mol*cm) km/mol    a.u.
----------------------------------------------------------------------------
  6:     54.63   0.000001    0.00  0.000005  (-0.000947  0.000200 -0.002001)
  7:     69.72   0.000011    0.06  0.000051  (-0.000439 -0.000327 -0.007137)
  8:    185.58   0.001408    7.11  0.002367  ( 0.004013 -0.004853 -0.048243)
  9:    276.67   0.000113    0.57  0.000127  ( 0.002262  0.011040 -0.000169)
 10:    281.16   0.000102    0.52  0.000113  ( 0.000861 -0.010295  0.002528)
 11:    423.28   0.000050    0.25  0.000037  (-0.005885  0.000319 -0.001537)
 12:    624.87   0.000268    1.35  0.000134  ( 0.000417  0.010038 -0.005740)
 13:    645.35   0.010156   51.33  0.004911  (-0.003837  0.006726  0.069651)
 14:    647.78   0.000156    0.79  0.000075  (-0.000598  0.001588 -0.008495)
 15:    740.80   0.000982    4.96  0.000414  ( 0.017577  0.000661  0.010216)
 16:    768.36   0.010259   51.84  0.004167  (-0.001981 -0.005172 -0.064311)
 17:    886.39   0.005764   29.13  0.002029  (-0.003467 -0.004920 -0.044643)
 18:    911.88   0.000026    0.13  0.000009  ( 0.002589  0.000393 -0.001409)
 19:   1050.96   0.001454    7.35  0.000432  ( 0.020771  0.000241 -0.000566)
 20:   1055.92   0.000584    2.95  0.000173  (-0.000933  0.012861 -0.002541)
 21:   1097.04   0.003315   16.75  0.000943  ( 0.004845  0.030153 -0.003222)
 22:   1103.49   0.002548   12.88  0.000721  ( 0.026778 -0.001599  0.000987)
 23:   1119.44   0.000269    1.36  0.000075  ( 0.002276 -0.008181  0.001708)
 24:   1142.02   0.000470    2.37  0.000128  ( 0.010698  0.000496  0.003700)
 25:   1148.82   0.000708    3.58  0.000192  (-0.010699 -0.000402 -0.008807)
 26:   1206.96   0.022470  113.55  0.005810  ( 0.076220  0.000402 -0.000081)
 27:   1284.53   0.000281    1.42  0.000068  (-0.008241  0.000431  0.000481)
 28:   1409.65   0.000066    0.33  0.000015  ( 0.000891 -0.003562 -0.001060)
 29:   1433.50   0.002021   10.21  0.000440  (-0.019442  0.003397  0.007104)
 30:   1436.67   0.002784   14.07  0.000605  ( 0.024276  0.000423 -0.003906)
 31:   1444.82   0.001569    7.93  0.000339  ( 0.000797 -0.002198 -0.018262)
 32:   1447.09   0.002781   14.05  0.000600  ( 0.002853 -0.001962  0.024244)
 33:   1449.56   0.006033   30.49  0.001299  (-0.000600 -0.019436 -0.030342)
 34:   1456.62   0.008706   44.00  0.001865  (-0.001544 -0.040677  0.014429)
 35:   1495.91   0.000180    0.91  0.000038  (-0.005530  0.000136 -0.002645)
 36:   1515.27   0.001343    6.79  0.000277  ( 0.001711 -0.016445  0.001800)
 37:   1660.33   0.003102   15.68  0.000583  (-0.013056  0.020169 -0.002404)
 38:   1670.97   0.026069  131.74  0.004869  ( 0.069660  0.003954  0.000697)
 39:   3102.62   0.002539   12.83  0.000255  ( 0.015589 -0.003294  0.001237)
 40:   3105.50   0.002176   10.99  0.000219  (-0.014253 -0.003740 -0.001222)
 41:   3221.95   0.000022    0.11  0.000002  (-0.000681  0.000286  0.001255)
 42:   3222.08   0.000053    0.27  0.000005  ( 0.000116 -0.000345 -0.002231)
 43:   3233.20   0.000010    0.05  0.000001  (-0.000898  0.000404  0.000081)
 44:   3237.64   0.000001    0.01  0.000000  ( 0.000365  0.000065  0.000010)
 45:   3300.70   0.005427   27.43  0.000513  (-0.022650 -0.000006  0.000281)
 46:   3301.70   0.012211   61.71  0.001154  (-0.000122 -0.033814  0.003278)
 47:   3318.81   0.002531   12.79  0.000238  ( 0.000096  0.015368 -0.001332)

* The epsilon (eps) is given for a Dirac delta lineshape.
** The dipole moment derivative (T) already includes vibrational overlap.

The first frequency considered to be a vibration is 6
The total number of vibrations considered is 42


--------------------------
THERMOCHEMISTRY AT 298.15K
--------------------------

Temperature         ... 298.15 K
Pressure            ... 1.00 atm
Total Mass          ... 97.14 AMU

Throughout the following assumptions are being made:
  (1) The electronic state is orbitally nondegenerate
  (2) There are no thermally accessible electronically excited states
  (3) Hindered rotations indicated by low frequency modes are not
      treated as such but are treated as vibrations and this may
      cause some error
  (4) All equations used are the standard statistical mechanics
      equations for an ideal gas
  (5) All vibrations are strictly harmonic

freq.      54.63  E(vib)   ...       0.52 
freq.      69.72  E(vib)   ...       0.50 
freq.     185.58  E(vib)   ...       0.37 
freq.     276.67  E(vib)   ...       0.28 
freq.     281.16  E(vib)   ...       0.28 
freq.     423.28  E(vib)   ...       0.18 
freq.     624.87  E(vib)   ...       0.09 
freq.     645.35  E(vib)   ...       0.09 
freq.     647.78  E(vib)   ...       0.09 
freq.     740.80  E(vib)   ...       0.06 
freq.     768.36  E(vib)   ...       0.06 
freq.     886.39  E(vib)   ...       0.04 
freq.     911.88  E(vib)   ...       0.03 
freq.    1050.96  E(vib)   ...       0.02 
freq.    1055.92  E(vib)   ...       0.02 
freq.    1097.04  E(vib)   ...       0.02 
freq.    1103.49  E(vib)   ...       0.02 
freq.    1119.44  E(vib)   ...       0.01 
freq.    1142.02  E(vib)   ...       0.01 
freq.    1148.82  E(vib)   ...       0.01 
freq.    1206.96  E(vib)   ...       0.01 
freq.    1284.53  E(vib)   ...       0.01 
freq.    1409.65  E(vib)   ...       0.00 
freq.    1433.50  E(vib)   ...       0.00 
freq.    1436.67  E(vib)   ...       0.00 
freq.    1444.82  E(vib)   ...       0.00 
freq.    1447.09  E(vib)   ...       0.00 
freq.    1449.56  E(vib)   ...       0.00 
freq.    1456.62  E(vib)   ...       0.00 
freq.    1495.91  E(vib)   ...       0.00 
freq.    1515.27  E(vib)   ...       0.00 
freq.    1660.33  E(vib)   ...       0.00 
freq.    1670.97  E(vib)   ...       0.00 
freq.    3102.62  E(vib)   ...       0.00 
freq.    3105.50  E(vib)   ...       0.00 
freq.    3221.95  E(vib)   ...       0.00 
freq.    3222.08  E(vib)   ...       0.00 
freq.    3233.20  E(vib)   ...       0.00 
freq.    3237.64  E(vib)   ...       0.00 
freq.    3300.70  E(vib)   ...       0.00 
freq.    3301.70  E(vib)   ...       0.00 
freq.    3318.81  E(vib)   ...       0.00 

------------
INNER ENERGY
------------

The inner energy is: U= E(el) + E(ZPE) + E(vib) + E(rot) + E(trans)
    E(el)   - is the total energy from the electronic structure calculation
              = E(kin-el) + E(nuc-el) + E(el-el) + E(nuc-nuc)
    E(ZPE)  - the the zero temperature vibrational energy from the frequency calculation
    E(vib)  - the the finite temperature correction to E(ZPE) due to population
              of excited vibrational states
    E(rot)  - is the rotational thermal energy
    E(trans)- is the translational thermal energy

Summary of contributions to the inner energy U:
Electronic energy                ...   -305.01576351 Eh
Zero point energy                ...      0.14167981 Eh      88.91 kcal/mol
Thermal vibrational correction   ...      0.00435932 Eh       2.74 kcal/mol
Thermal rotational correction    ...      0.00141627 Eh       0.89 kcal/mol
Thermal translational correction ...      0.00141627 Eh       0.89 kcal/mol
-----------------------------------------------------------------------
Total thermal energy                   -304.86689184 Eh


Summary of corrections to the electronic energy:
(perhaps to be used in another calculation)
Total thermal correction                  0.00719186 Eh       4.51 kcal/mol
Non-thermal (ZPE) correction              0.14167981 Eh      88.91 kcal/mol
-----------------------------------------------------------------------
Total correction                          0.14887167 Eh      93.42 kcal/mol


--------
ENTHALPY
--------

The enthalpy is H = U + kB*T
                kB is Boltzmann's constant
Total free energy                 ...   -304.86689184 Eh 
Thermal Enthalpy correction       ...      0.00094421 Eh       0.59 kcal/mol
-----------------------------------------------------------------------
Total Enthalpy                    ...   -304.86594763 Eh


Note: Only C1 symmetry has been detected, increase convergence thresholds 
      if your molecule has a higher symmetry. Symmetry factor of 1.0 is   
      used for the rotational entropy correction. 
 

Note: Rotational entropy computed according to Herzberg 
Infrared and Raman Spectra, Chapter V,1, Van Nostrand Reinhold, 1945 
Point Group:  C1, Symmetry Number:   1  
Rotational constants in cm-1:     0.228180     0.068797     0.053970 

Vibrational entropy computed according to the QRRHO of S. Grimme
Chem.Eur.J. 2012 18 9955


-------
ENTROPY
-------

The entropy contributions are T*S = T*(S(el)+S(vib)+S(rot)+S(trans))
     S(el)   - electronic entropy
     S(vib)  - vibrational entropy
     S(rot)  - rotational entropy
     S(trans)- translational entropy
The entropies will be listed as multiplied by the temperature to get
units of energy

Electronic entropy                ...      0.00000000 Eh      0.00 kcal/mol
Vibrational entropy               ...      0.00749596 Eh      4.70 kcal/mol
Rotational entropy                ...      0.01285017 Eh      8.06 kcal/mol
Translational entropy             ...      0.01883016 Eh     11.82 kcal/mol
-----------------------------------------------------------------------
Final entropy term                ...      0.03917629 Eh     24.58 kcal/mol

In case the symmetry of your molecule has not been determined correctly
or in case you have a reason to use a different symmetry number we print 
out the resulting rotational entropy values for sn=1,12 :
 --------------------------------------------------------
|  sn= 1 | S(rot)=       0.01285017 Eh      8.06 kcal/mol|
|  sn= 2 | S(rot)=       0.01219571 Eh      7.65 kcal/mol|
|  sn= 3 | S(rot)=       0.01181288 Eh      7.41 kcal/mol|
|  sn= 4 | S(rot)=       0.01154125 Eh      7.24 kcal/mol|
|  sn= 5 | S(rot)=       0.01133057 Eh      7.11 kcal/mol|
|  sn= 6 | S(rot)=       0.01115842 Eh      7.00 kcal/mol|
|  sn= 7 | S(rot)=       0.01101288 Eh      6.91 kcal/mol|
|  sn= 8 | S(rot)=       0.01088680 Eh      6.83 kcal/mol|
|  sn= 9 | S(rot)=       0.01077559 Eh      6.76 kcal/mol|
|  sn=10 | S(rot)=       0.01067611 Eh      6.70 kcal/mol|
|  sn=11 | S(rot)=       0.01058612 Eh      6.64 kcal/mol|
|  sn=12 | S(rot)=       0.01050397 Eh      6.59 kcal/mol|
 --------------------------------------------------------


-------------------
GIBBS FREE ENERGY
-------------------

The Gibbs free energy is G = H - T*S

Total enthalpy                    ...   -304.86594763 Eh 
Total entropy correction          ...     -0.03917629 Eh    -24.58 kcal/mol
-----------------------------------------------------------------------
Final Gibbs free energy         ...   -304.90512392 Eh

For completeness - the Gibbs free energy minus the electronic energy
G-E(el)                           ...      0.11063959 Eh     69.43 kcal/mol


Timings for individual modules:

Sum of individual times         ...     4545.743 sec (=  75.762 min)
GTO integral calculation        ...        8.937 sec (=   0.149 min)   0.2 %
SCF iterations                  ...     3109.460 sec (=  51.824 min)  68.4 %
SCF Gradient evaluation         ...     1046.336 sec (=  17.439 min)  23.0 %
Geometry relaxation             ...        1.735 sec (=   0.029 min)   0.0 %
Analytical frequency calculation...      379.275 sec (=   6.321 min)   8.3 %
                             ****ORCA TERMINATED NORMALLY****
TOTAL RUN TIME: 0 days 1 hours 15 minutes 50 seconds 513 msec
