
                                 *****************
                                 * O   R   C   A *
                                 *****************

                                            #,                                       
                                            ###                                      
                                            ####                                     
                                            #####                                    
                                            ######                                   
                                           ########,                                 
                                     ,,################,,,,,                         
                               ,,#################################,,                 
                          ,,##########################################,,             
                       ,#########################################, ''#####,          
                    ,#############################################,,   '####,        
                  ,##################################################,,,,####,       
                ,###########''''           ''''###############################       
              ,#####''   ,,,,##########,,,,          '''####'''          '####       
            ,##' ,,,,###########################,,,                        '##       
           ' ,,###''''                  '''############,,,                           
         ,,##''                                '''############,,,,        ,,,,,,###''
      ,#''                                            '''#######################'''  
     '                                                          ''''####''''         
             ,#######,   #######,   ,#######,      ##                                
            ,#'     '#,  ##    ##  ,#'     '#,    #''#        ######   ,####,        
            ##       ##  ##   ,#'  ##            #'  '#       #        #'  '#        
            ##       ##  #######   ##           ,######,      #####,   #    #        
            '#,     ,#'  ##    ##  '#,     ,#' ,#      #,         ##   #,  ,#        
             '#######'   ##     ##  '#######'  #'      '#     #####' # '####'        



                  #######################################################
                  #                        -***-                        #
                  #          Department of theory and spectroscopy      #
                  #    Directorship and core code : Frank Neese         #
                  #        Max Planck Institute fuer Kohlenforschung    #
                  #                Kaiser Wilhelm Platz 1               #
                  #                 D-45470 Muelheim/Ruhr               #
                  #                      Germany                        #
                  #                                                     #
                  #                  All rights reserved                #
                  #                        -***-                        #
                  #######################################################


                         Program Version 5.0.4 -  RELEASE  -


 With contributions from (in alphabetic order):
   Daniel Aravena         : Magnetic Suceptibility
   Michael Atanasov       : Ab Initio Ligand Field Theory (pilot matlab implementation)
   Alexander A. Auer      : GIAO ZORA, VPT2 properties, NMR spectrum
   Ute Becker             : Parallelization
   Giovanni Bistoni       : ED, misc. LED, open-shell LED, HFLD
   Martin Brehm           : Molecular dynamics
   Dmytro Bykov           : SCF Hessian
   Vijay G. Chilkuri      : MRCI spin determinant printing, contributions to CSF-ICE
   Dipayan Datta          : RHF DLPNO-CCSD density
   Achintya Kumar Dutta   : EOM-CC, STEOM-CC
   Dmitry Ganyushin       : Spin-Orbit,Spin-Spin,Magnetic field MRCI
   Miquel Garcia          : C-PCM and meta-GGA Hessian, CC/C-PCM, Gaussian charge scheme
   Yang Guo               : DLPNO-NEVPT2, F12-NEVPT2, CIM, IAO-localization
   Andreas Hansen         : Spin unrestricted coupled pair/coupled cluster methods
   Benjamin Helmich-Paris : MC-RPA, TRAH-SCF, COSX integrals
   Lee Huntington         : MR-EOM, pCC
   Robert Izsak           : Overlap fitted RIJCOSX, COSX-SCS-MP3, EOM
   Marcus Kettner         : VPT2
   Christian Kollmar      : KDIIS, OOCD, Brueckner-CCSD(T), CCSD density, CASPT2, CASPT2-K
   Simone Kossmann        : Meta GGA functionals, TD-DFT gradient, OOMP2, MP2 Hessian
   Martin Krupicka        : Initial AUTO-CI
   Lucas Lang             : DCDCAS
   Marvin Lechner         : AUTO-CI (C++ implementation), FIC-MRCC
   Dagmar Lenk            : GEPOL surface, SMD
   Dimitrios Liakos       : Extrapolation schemes; Compound Job, initial MDCI parallelization
   Dimitrios Manganas     : Further ROCIS development; embedding schemes
   Dimitrios Pantazis     : SARC Basis sets
   Anastasios Papadopoulos: AUTO-CI, single reference methods and gradients
   Taras Petrenko         : DFT Hessian,TD-DFT gradient, ASA, ECA, R-Raman, ABS, FL, XAS/XES, NRVS
   Peter Pinski           : DLPNO-MP2, DLPNO-MP2 Gradient
   Christoph Reimann      : Effective Core Potentials
   Marius Retegan         : Local ZFS, SOC
   Christoph Riplinger    : Optimizer, TS searches, QM/MM, DLPNO-CCSD(T), (RO)-DLPNO pert. Triples
   Tobias Risthaus        : Range-separated hybrids, TD-DFT gradient, RPA, STAB
   Michael Roemelt        : Original ROCIS implementation
   Masaaki Saitow         : Open-shell DLPNO-CCSD energy and density
   Barbara Sandhoefer     : DKH picture change effects
   Avijit Sen             : IP-ROCIS
   Kantharuban Sivalingam : CASSCF convergence, NEVPT2, FIC-MRCI
   Bernardo de Souza      : ESD, SOC TD-DFT
   Georgi Stoychev        : AutoAux, RI-MP2 NMR, DLPNO-MP2 response
   Willem Van den Heuvel  : Paramagnetic NMR
   Boris Wezisla          : Elementary symmetry handling
   Frank Wennmohs         : Technical directorship


 We gratefully acknowledge several colleagues who have allowed us to
 interface, adapt or use parts of their codes:
   Stefan Grimme, W. Hujo, H. Kruse, P. Pracht,  : VdW corrections, initial TS optimization,
                  C. Bannwarth, S. Ehlert          DFT functionals, gCP, sTDA/sTD-DF
   Ed Valeev, F. Pavosevic, A. Kumar             : LibInt (2-el integral package), F12 methods
   Garnet Chan, S. Sharma, J. Yang, R. Olivares  : DMRG
   Ulf Ekstrom                                   : XCFun DFT Library
   Mihaly Kallay                                 : mrcc  (arbitrary order and MRCC methods)
   Jiri Pittner, Ondrej Demel                    : Mk-CCSD
   Frank Weinhold                                : gennbo (NPA and NBO analysis)
   Christopher J. Cramer and Donald G. Truhlar   : smd solvation model
   Lars Goerigk                                  : TD-DFT with DH, B97 family of functionals
   V. Asgeirsson, H. Jonsson                     : NEB implementation
   FAccTs GmbH                                   : IRC, NEB, NEB-TS, DLPNO-Multilevel, CI-OPT
                                                   MM, QMMM, 2- and 3-layer-ONIOM, Crystal-QMMM,
                                                   LR-CPCM, SF, NACMEs, symmetry and pop. for TD-DFT,
                                                   nearIR, NL-DFT gradient (VV10), updates on ESD,
                                                   ML-optimized integration grids
   S Lehtola, MJT Oliveira, MAL Marques          : LibXC Library
   Liviu Ungur et al                             : ANISO software


 Your calculation uses the libint2 library for the computation of 2-el integrals
 For citations please refer to: http://libint.valeyev.net

 Your ORCA version has been built with support for libXC version: 5.1.0
 For citations please refer to: https://tddft.org/programs/libxc/

 This ORCA versions uses:
   CBLAS   interface :  Fast vector & matrix operations
   LAPACKE interface :  Fast linear algebra routines
   SCALAPACK package :  Parallel linear algebra routines
   Shared memory     :  Shared parallel matrices
   BLAS/LAPACK       :  OpenBLAS 0.3.15  USE64BITINT DYNAMIC_ARCH NO_AFFINITY SkylakeX SINGLE_THREADED
        Core in use  :  SkylakeX
   Copyright (c) 2011-2014, The OpenBLAS Project




***************************************
The coordinates will be read from file: 2_deprot_aq_2.xyz
***************************************


Your calculation utilizes the atom-pairwise dispersion correction
based on tight binding partial charges (D4)
Cite in your paper:
E.Caldeweyher, C.Bannwarth, S.Grimme, J.Chem.Phys., (2017), 147, 034112.
E.Caldeweyher, S.Ehlert, A.Hansen, H.Neugebauer, S.Grimme, J.Chem.Phys., (2018), in progress.
   

XCFun DFT library Copyright 2009-2010 Ulf Ekstrom and contributors.
See http://admol.org/xcfun for more information.
This is free software; see the source code for copying conditions.
There is ABSOLUTELY NO WARRANTY; not even for MERCHANTABILITY or FITNESS FOR A PARTICULAR PURPOSE.
For details see the documentation.
Scientific users of this library should cite U. Ekstrom, L. Visscher, R. Bast, A. J. Thorvaldsen and K. Ruud;
J.Chem.Theor.Comp. 2010, DOI: 10.1021/ct100117s
XCFun Version 0.99 

================================================================================

----- Orbital basis set information -----
Your calculation utilizes the basis: def2-SVP
   F. Weigend and R. Ahlrichs, Phys. Chem. Chem. Phys. 7, 3297 (2005).

----- AuxJ basis set information -----
Your calculation utilizes the auxiliary basis: def2/J
   F. Weigend, Phys. Chem. Chem. Phys. 8, 1057 (2006).

================================================================================
                                        WARNINGS
                       Please study these warnings very carefully!
================================================================================


WARNING: Geometry Optimization
  ===> : Switching off AutoStart
         For restart on a previous wavefunction, please use MOREAD

INFO   : the flag for use of the SHARK integral package has been found!

================================================================================
                                       INPUT FILE
================================================================================
NAME = 2_deprot_aq_2.inp
|  1> # ORCA 5.0.4 - /users/bwb16179/postgrad/2024_03/DFT_Crest_Conformers/Opt/deprot/2_deprot_aq_2.inp # write input file
|  2> # Basic Mode
|  3> #
|  4> ! Opt Freq wB97X Def2-SVP D4 SlowConv TightSCF Defgrid2 Def2/J RIJCOSX CPCM(Water)
|  5> 
|  6> 
|  7> 
|  8> %maxcore 4500
|  9> 
| 10> %geom
| 11> Maxiter 150
| 12> END
| 13> 
| 14> * xyzfile 0 1 2_deprot_aq_2.xyz
| 15> 
| 16>                          ****END OF INPUT****
================================================================================

                       *****************************
                       * Geometry Optimization Run *
                       *****************************

Geometry optimization settings:
Update method            Update   .... BFGS
Choice of coordinates    CoordSys .... Z-matrix Internals
Initial Hessian          InHess   .... Almoef's Model

Convergence Tolerances:
Energy Change            TolE     ....  5.0000e-06 Eh
Max. Gradient            TolMAXG  ....  3.0000e-04 Eh/bohr
RMS Gradient             TolRMSG  ....  1.0000e-04 Eh/bohr
Max. Displacement        TolMAXD  ....  4.0000e-03 bohr
RMS Displacement         TolRMSD  ....  2.0000e-03 bohr
Strict Convergence                ....  False
------------------------------------------------------------------------------
                        ORCA OPTIMIZATION COORDINATE SETUP
------------------------------------------------------------------------------

The optimization will be done in new redundant internal coordinates
Making redundant internal coordinates   ...  (new redundants) done
Evaluating the initial hessian          ...  (Almloef) done
Evaluating the coordinates              ...  done
Calculating the B-matrix                .... done
Calculating the G-matrix                .... done
Diagonalizing the G-matrix              .... done
The first mode is                       ....   41
The number of degrees of freedom        ....   57

    -----------------------------------------------------------------
                    Redundant Internal Coordinates


    -----------------------------------------------------------------
         Definition                    Initial Value    Approx d2E/dq
    -----------------------------------------------------------------
      1. B(C   1,N   0)                  1.3563         0.633331   
      2. B(N   2,C   1)                  1.3576         0.630294   
      3. B(C   3,N   2)                  1.3818         0.576724   
      4. B(C   4,C   3)                  1.3606         0.696046   
      5. B(C   4,N   0)                  1.3804         0.579593   
      6. B(C   5,N   0)                  1.4326         0.478617   
      7. B(C   6,N   2)                  1.4339         0.476224   
      8. B(H   7,C   5)                  1.0933         0.355698   
      9. B(H   8,C   5)                  1.0883         0.362408   
     10. B(H   9,C   5)                  1.0934         0.355612   
     11. B(H  10,C   6)                  1.0935         0.355544   
     12. B(H  11,C   6)                  1.0935         0.355467   
     13. B(H  12,C   6)                  1.0884         0.362223   
     14. B(C  13,C   3)                  1.4899         0.432808   
     15. B(C  14,C   4)                  1.4864         0.438508   
     16. B(H  15,C  14)                  1.0910         0.358829   
     17. B(H  16,C  14)                  1.0867         0.364488   
     18. B(H  17,C  14)                  1.0910         0.358780   
     19. B(H  18,C  13)                  1.0907         0.359180   
     20. B(H  19,C  13)                  1.0904         0.359584   
     21. B(H  20,C  13)                  1.0863         0.365032   
     22. A(C   1,N   0,C   5)          123.4763         0.410644   
     23. A(C   4,N   0,C   5)          124.4025         0.404253   
     24. A(C   1,N   0,C   4)          112.1212         0.424886   
     25. A(N   0,C   1,N   2)          103.3815         0.431322   
     26. A(C   3,N   2,C   6)          125.3408         0.403542   
     27. A(C   1,N   2,C   6)          122.4888         0.409930   
     28. A(C   1,N   2,C   3)          112.1703         0.424144   
     29. A(N   2,C   3,C  13)          124.5229         0.399364   
     30. A(C   4,C   3,C  13)          129.4407         0.415546   
     31. A(N   2,C   3,C   4)          106.0363         0.434600   
     32. A(N   0,C   4,C   3)          106.2907         0.434989   
     33. A(N   0,C   4,C  14)          123.1143         0.400634   
     34. A(C   3,C   4,C  14)          130.5950         0.416515   
     35. A(H   8,C   5,H   9)          109.1937         0.290559   
     36. A(H   7,C   5,H   9)          108.5450         0.289708   
     37. A(N   0,C   5,H   9)          110.9857         0.335145   
     38. A(H   7,C   5,H   8)          109.2137         0.290570   
     39. A(N   0,C   5,H   8)          107.8954         0.336202   
     40. A(N   0,C   5,H   7)          110.9764         0.335159   
     41. A(H  10,C   6,H  11)          108.9292         0.289670   
     42. A(N   2,C   6,H  11)          111.1767         0.334844   
     43. A(H  11,C   6,H  12)          108.9902         0.290517   
     44. A(H  10,C   6,H  12)          109.0217         0.290526   
     45. A(N   2,C   6,H  12)          107.5048         0.335894   
     46. A(N   2,C   6,H  10)          111.1647         0.334856   
     47. A(H  19,C  13,H  20)          108.3597         0.291396   
     48. A(H  18,C  13,H  20)          108.3393         0.291345   
     49. A(C   3,C  13,H  20)          110.9659         0.333040   
     50. A(H  18,C  13,H  19)          107.9586         0.290657   
     51. A(C   3,C  13,H  19)          110.5247         0.332211   
     52. A(C   3,C  13,H  18)          110.5952         0.332149   
     53. A(H  16,C  14,H  17)          108.6051         0.291225   
     54. A(H  15,C  14,H  17)          107.9264         0.290510   
     55. A(C   4,C  14,H  17)          110.8608         0.332809   
     56. A(H  15,C  14,H  16)          108.6418         0.291232   
     57. A(C   4,C  14,H  16)          109.8690         0.333681   
     58. A(C   4,C  14,H  15)          110.8654         0.332816   
     59. D(N   2,C   1,N   0,C   4)     -0.0024         0.029522   
     60. D(N   2,C   1,N   0,C   5)    179.9847         0.029522   
     61. D(C   3,N   2,C   1,N   0)     -0.0124         0.029218   
     62. D(C   6,N   2,C   1,N   0)    179.9748         0.029218   
     63. D(C  13,C   3,N   2,C   1)    179.9135         0.026658   
     64. D(C   4,C   3,N   2,C   6)   -179.9643         0.026658   
     65. D(C  13,C   3,N   2,C   6)     -0.0734         0.026658   
     66. D(C   4,C   3,N   2,C   1)      0.0225         0.026658   
     67. D(N   0,C   4,C   3,C  13)   -179.9061         0.034090   
     68. D(N   0,C   4,C   3,N   2)     -0.0224         0.034090   
     69. D(C  14,C   4,N   0,C   5)      0.0435         0.026941   
     70. D(C   3,C   4,N   0,C   5)   -179.9708         0.026941   
     71. D(C  14,C   4,N   0,C   1)   -179.9695         0.026941   
     72. D(C  14,C   4,C   3,N   2)    179.9617         0.034090   
     73. D(C  14,C   4,C   3,C  13)      0.0781         0.034090   
     74. D(C   3,C   4,N   0,C   1)      0.0161         0.026941   
     75. D(H   9,C   5,N   0,C   4)     60.6904         0.019590   
     76. D(H   9,C   5,N   0,C   1)   -119.2951         0.019590   
     77. D(H   8,C   5,N   0,C   4)   -179.7137         0.019590   
     78. D(H   8,C   5,N   0,C   1)      0.3008         0.019590   
     79. D(H   7,C   5,N   0,C   4)    -60.0989         0.019590   
     80. D(H   7,C   5,N   0,C   1)    119.9156         0.019590   
     81. D(H  12,C   6,N   2,C   3)    179.8616         0.019390   
     82. D(H  12,C   6,N   2,C   1)     -0.1239         0.019390   
     83. D(H  11,C   6,N   2,C   3)    -60.9224         0.019390   
     84. D(H  11,C   6,N   2,C   1)    119.0920         0.019390   
     85. D(H  10,C   6,N   2,C   3)     60.6144         0.019390   
     86. D(H  10,C   6,N   2,C   1)   -119.3712         0.019390   
     87. D(H  19,C  13,C   3,N   2)    122.4401         0.013831   
     88. D(H  18,C  13,C   3,C   4)     61.8023         0.013831   
     89. D(H  18,C  13,C   3,N   2)   -118.0621         0.013831   
     90. D(H  20,C  13,C   3,C   4)   -177.9361         0.013831   
     91. D(H  20,C  13,C   3,N   2)      2.1995         0.013831   
     92. D(H  19,C  13,C   3,C   4)    -57.6956         0.013831   
     93. D(H  17,C  14,C   4,C   3)   -119.6832         0.014190   
     94. D(H  17,C  14,C   4,N   0)     60.2986         0.014190   
     95. D(H  16,C  14,C   4,C   3)      0.3665         0.014190   
     96. D(H  16,C  14,C   4,N   0)   -179.6517         0.014190   
     97. D(H  15,C  14,C   4,C   3)    120.4648         0.014190   
     98. D(H  15,C  14,C   4,N   0)    -59.5534         0.014190   
    -----------------------------------------------------------------

Number of atoms                         .... 21
Number of degrees of freedom            .... 98

         *************************************************************
         *                GEOMETRY OPTIMIZATION CYCLE   1            *
         *************************************************************
---------------------------------
CARTESIAN COORDINATES (ANGSTROEM)
---------------------------------
  N     -1.061351   -0.668602    0.000059
  C      0.002192   -1.510292    0.000129
  N      1.068198   -0.669608   -0.000273
  C      0.685238    0.658057   -0.000865
  C     -0.675365    0.656780   -0.000321
  C     -2.422504   -1.115219    0.000077
  C      2.421935   -1.142376    0.000179
  H     -2.953137   -0.753415    0.884914
  H     -2.417376   -2.203454    0.005592
  H     -2.950303   -0.762736   -0.890281
  H      2.959448   -0.799818    0.888663
  H      2.958442   -0.805117   -0.891007
  H      2.388773   -2.230266    0.003102
  C      1.630686    1.809595    0.000447
  C     -1.643620    1.784519    0.000186
  H     -2.289242    1.742740   -0.878237
  H     -1.108814    2.730490   -0.006463
  H     -2.279385    1.750317    0.886140
  H      1.501643    2.410930    0.901204
  H      1.451148    2.452634   -0.861654
  H      2.660797    1.466799   -0.037001

----------------------------
CARTESIAN COORDINATES (A.U.)
----------------------------
  NO LB      ZA    FRAG     MASS         X           Y           Z
   0 N     7.0000    0    14.007   -2.005664   -1.263474    0.000111
   1 C     6.0000    0    12.011    0.004142   -2.854039    0.000245
   2 N     7.0000    0    14.007    2.018603   -1.265376   -0.000517
   3 C     6.0000    0    12.011    1.294912    1.243547   -0.001635
   4 C     6.0000    0    12.011   -1.276256    1.241135   -0.000607
   5 C     6.0000    0    12.011   -4.577868   -2.107459    0.000146
   6 C     6.0000    0    12.011    4.576794   -2.158777    0.000339
   7 H     1.0000    0     1.008   -5.580620   -1.423747    1.672245
   8 H     1.0000    0     1.008   -4.568178   -4.163925    0.010568
   9 H     1.0000    0     1.008   -5.575264   -1.441362   -1.682387
  10 H     1.0000    0     1.008    5.592546   -1.511437    1.679329
  11 H     1.0000    0     1.008    5.590645   -1.521450   -1.683760
  12 H     1.0000    0     1.008    4.514127   -4.214593    0.005861
  13 C     6.0000    0    12.011    3.081549    3.419638    0.000846
  14 C     6.0000    0    12.011   -3.105993    3.372251    0.000352
  15 H     1.0000    0     1.008   -4.326040    3.293302   -1.659627
  16 H     1.0000    0     1.008   -2.095355    5.159878   -0.012214
  17 H     1.0000    0     1.008   -4.307413    3.307620    1.674562
  18 H     1.0000    0     1.008    2.837693    4.555998    1.703028
  19 H     1.0000    0     1.008    2.742272    4.634806   -1.628290
  20 H     1.0000    0     1.008    5.028177    2.771848   -0.069921

--------------------------------
INTERNAL COORDINATES (ANGSTROEM)
--------------------------------
 N      0   0   0     0.000000000000     0.00000000     0.00000000
 C      1   0   0     1.356306903451     0.00000000     0.00000000
 N      2   1   0     1.357615426862   103.38146615     0.00000000
 C      3   2   1     1.381793787187   112.17032724     0.00000000
 C      4   3   2     1.360603977433   106.03626884     0.00000000
 C      1   2   3     1.432551067968   123.47625581   179.98467630
 C      3   2   1     1.433915128552   122.48883048   179.97484675
 H      6   1   2     1.093348164055   110.97637907   119.91558497
 H      6   1   2     1.088260915275   107.89535439     0.30080540
 H      6   1   2     1.093413921136   110.98573227   240.70494045
 H      7   3   2     1.093466310155   111.16465612   240.62880614
 H      7   3   2     1.093524820871   111.17670469   119.09198916
 H      7   3   2     1.088399913057   107.50478997   359.87606045
 C      4   3   2     1.489937114634   124.52287965   179.91349588
 C      5   4   3     1.486375273486   130.59502512   179.96174824
 H     15   5   4     1.090962865405   110.86543709   120.46482257
 H     15   5   4     1.086703153302   109.86900795     0.36646760
 H     15   5   4     1.090999611011   110.86076295   240.31680371
 H     14   4   3     1.090696159639   110.59521174   241.93793560
 H     14   4   3     1.090390665341   110.52474287   122.44008446
 H     14   4   3     1.086296822449   110.96593146     2.19954276

---------------------------
INTERNAL COORDINATES (A.U.)
---------------------------
 N      0   0   0     0.000000000000     0.00000000     0.00000000
 C      1   0   0     2.563048601069     0.00000000     0.00000000
 N      2   1   0     2.565521351957   103.38146615     0.00000000
 C      3   2   1     2.611211831337   112.17032724     0.00000000
 C      4   3   2     2.571168894072   106.03626884     0.00000000
 C      1   2   3     2.707129191315   123.47625581   179.98467630
 C      3   2   1     2.709706892250   122.48883048   179.97484675
 H      6   1   2     2.066128599090   110.97637907   119.91558497
 H      6   1   2     2.056515092120   107.89535439     0.30080540
 H      6   1   2     2.066252861965   110.98573227   240.70494045
 H      7   3   2     2.066351862862   111.16465612   240.62880614
 H      7   3   2     2.066462432092   111.17670469   119.09198916
 H      7   3   2     2.056777759861   107.50478997   359.87606045
 C      4   3   2     2.815573103423   124.52287965   179.91349588
 C      5   4   3     2.808842199122   130.59502512   179.96174824
 H     15   5   4     2.061621037893   110.86543709   120.46482257
 H     15   5   4     2.053571348609   109.86900795     0.36646760
 H     15   5   4     2.061690477026   110.86076295   240.31680371
 H     14   4   3     2.061117037037   110.59521174   241.93793560
 H     14   4   3     2.060539736478   110.52474287   122.44008446
 H     14   4   3     2.052803494578   110.96593146     2.19954276

---------------------
BASIS SET INFORMATION
---------------------
There are 3 groups of distinct atoms

 Group   1 Type N   : 7s4p1d contracted to 3s2p1d pattern {511/31/1}
 Group   2 Type C   : 7s4p1d contracted to 3s2p1d pattern {511/31/1}
 Group   3 Type H   : 4s1p contracted to 2s1p pattern {31/1}

Atom   0N    basis set group =>   1
Atom   1C    basis set group =>   2
Atom   2N    basis set group =>   1
Atom   3C    basis set group =>   2
Atom   4C    basis set group =>   2
Atom   5C    basis set group =>   2
Atom   6C    basis set group =>   2
Atom   7H    basis set group =>   3
Atom   8H    basis set group =>   3
Atom   9H    basis set group =>   3
Atom  10H    basis set group =>   3
Atom  11H    basis set group =>   3
Atom  12H    basis set group =>   3
Atom  13C    basis set group =>   2
Atom  14C    basis set group =>   2
Atom  15H    basis set group =>   3
Atom  16H    basis set group =>   3
Atom  17H    basis set group =>   3
Atom  18H    basis set group =>   3
Atom  19H    basis set group =>   3
Atom  20H    basis set group =>   3
---------------------------------
AUXILIARY/J BASIS SET INFORMATION
---------------------------------
There are 3 groups of distinct atoms

 Group   1 Type N   : 12s5p4d2f1g contracted to 6s4p3d1f1g pattern {711111/2111/211/2/1}
 Group   2 Type C   : 12s5p4d2f1g contracted to 6s4p3d1f1g pattern {711111/2111/211/2/1}
 Group   3 Type H   : 5s2p1d contracted to 3s1p1d pattern {311/2/1}

Atom   0N    basis set group =>   1
Atom   1C    basis set group =>   2
Atom   2N    basis set group =>   1
Atom   3C    basis set group =>   2
Atom   4C    basis set group =>   2
Atom   5C    basis set group =>   2
Atom   6C    basis set group =>   2
Atom   7H    basis set group =>   3
Atom   8H    basis set group =>   3
Atom   9H    basis set group =>   3
Atom  10H    basis set group =>   3
Atom  11H    basis set group =>   3
Atom  12H    basis set group =>   3
Atom  13C    basis set group =>   2
Atom  14C    basis set group =>   2
Atom  15H    basis set group =>   3
Atom  16H    basis set group =>   3
Atom  17H    basis set group =>   3
Atom  18H    basis set group =>   3
Atom  19H    basis set group =>   3
Atom  20H    basis set group =>   3
------------------------------------------------------------------------------
                           ORCA GTO INTEGRAL CALCULATION
                           -- RI-GTO INTEGRALS CHOSEN --
------------------------------------------------------------------------------
------------------------------------------------------------------------------
                   ___                                                        
                  /   \      - P O W E R E D   B Y -                         
                 /     \                                                     
                 |  |  |   _    _      __       _____    __    __             
                 |  |  |  | |  | |    /  \     |  _  \  |  |  /  |          
                  \  \/   | |  | |   /    \    | | | |  |  | /  /          
                 / \  \   | |__| |  /  /\  \   | |_| |  |  |/  /          
                |  |  |   |  __  | /  /__\  \  |    /   |      \           
                |  |  |   | |  | | |   __   |  |    \   |  |\   \          
                \     /   | |  | | |  |  |  |  | |\  \  |  | \   \       
                 \___/    |_|  |_| |__|  |__|  |_| \__\ |__|  \__/        
                                                                              
                      - O R C A' S   B I G   F R I E N D -                    
                                      &                                       
                       - I N T E G R A L  F E E D E R -                       
                                                                              
 v1 FN, 2020, v2 2021                                                         
------------------------------------------------------------------------------


Reading SHARK input file 2_deprot_aq_2.SHARKINP.tmp ... ok
----------------------
SHARK INTEGRAL PACKAGE
----------------------

Number of atoms                             ...     21
Number of basis functions                   ...    186
Number of shells                            ...     90
Maximum angular momentum                    ...      2
Integral batch strategy                     ... SHARK/LIBINT Hybrid
RI-J (if used) integral strategy            ... SPLIT-RIJ (Revised 2003 algorithm where possible)
Printlevel                                  ...      1
Contraction scheme used                     ... SEGMENTED contraction
Coulomb Range Separation                    ... NOT USED
Exchange Range Separation                   ... Long Range
   Mu parameter                             ...  0.300000
   Scaling (regular/separated)              ...  0.157706  0.842294
Finite Nucleus Model                        ... NOT USED
Auxiliary Coulomb fitting basis             ... AVAILABLE
   # of basis functions in Aux-J            ...    573
   # of shells in Aux-J                     ...    195
   Maximum angular momentum in Aux-J        ...      4
Auxiliary J/K fitting basis                 ... NOT available
Auxiliary Correlation fitting basis         ... NOT available
Auxiliary 'external' fitting basis          ... NOT available
Integral threshold                          ...     2.500000e-11
Primitive cut-off                           ...     2.500000e-12
Primitive pair pre-selection threshold      ...     2.500000e-12

Calculating pre-screening integrals         ... done (  0.0 sec) Dimension = 90
Organizing shell pair data                  ... done (  0.0 sec)
Shell pair information
Total number of shell pairs                 ...      4095
Shell pairs after pre-screening             ...      3795
Total number of primitive shell pairs       ...     14349
Primitive shell pairs kept                  ...      9737
          la=0 lb=0:   1251 shell pairs
          la=1 lb=0:   1405 shell pairs
          la=1 lb=1:    417 shell pairs
          la=2 lb=0:    427 shell pairs
          la=2 lb=1:    252 shell pairs
          la=2 lb=2:     43 shell pairs

Calculating one electron integrals          ... done (  0.0 sec)
Calculating RI/J V-Matrix + Cholesky decomp.... done (  0.0 sec)
Calculating Nuclear repulsion               ... done (  0.0 sec) ENN=    462.243884261253 Eh

SHARK setup successfully completed in   0.2 seconds

Maximum memory used throughout the entire GTOINT-calculation: 26.5 MB
-------------------------------------------------------------------------------
                                 ORCA SCF
-------------------------------------------------------------------------------

------------
SCF SETTINGS
------------
Hamiltonian:
 Density Functional     Method          .... DFT(GTOs)
 Exchange Functional    Exchange        .... WB97X
 Correlation Functional Correlation     .... WB97X
 Gradients option       PostSCFGGA      .... off
 Hybrid DFT is turned on
   Fraction HF Exchange ScalHFX         ....  0.157706
   Scaling of DF-GGA-X  ScalDFX         ....  0.000000
   Scaling of DF-GGA-C  ScalDFC         ....  1.000000
   Scaling of DF-LDA-C  ScalLDAC        ....  1.000000
   Perturbative correction              ....  0.000000
   Density functional embedding theory  .... OFF
 Long-range corrected/Screened/Range-Separated Hybrid DFT is turned on
   Amount of maximum screened exact exchange              ....  0.842294
   Range separation parameter mu (erf(mu*r12)/r12)        ....  0.300000
 RI-approximation to the Coulomb term is turned on
   Number of AuxJ basis functions       .... 573
   RIJ-COSX (HFX calculated with COS-X)).... on


General Settings:
 Integral files         IntName         .... 2_deprot_aq_2
 Hartree-Fock type      HFTyp           .... RHF
 Total Charge           Charge          ....    0
 Multiplicity           Mult            ....    1
 Number of Electrons    NEL             ....   68
 Basis Dimension        Dim             ....  186
 Nuclear Repulsion      ENuc            ....    462.2438842613 Eh

Convergence Acceleration:
 DIIS                   CNVDIIS         .... on
   Start iteration      DIISMaxIt       ....     0
   Startup error        DIISStart       ....  0.200000
   # of expansion vecs  DIISMaxEq       ....     5
   Bias factor          DIISBfac        ....   1.050
   Max. coefficient     DIISMaxC        ....  10.000
 Trust-Rad. Augm. Hess. CNVTRAH         .... auto
   Auto Start mean grad. ratio tolernc. ....  1.125000
   Auto Start start iteration           ....    20
   Auto Start num. interpolation iter.  ....    10
   Max. Number of Micro iterations      ....    16
   Max. Number of Macro iterations      .... Maxiter - #DIIS iter
   Number of Davidson start vectors     ....     2
   Converg. threshold I  (grad. norm)   ....   1.000e-05
   Converg. threshold II (energy diff.) ....   1.000e-08
   Grad. Scal. Fac. for Micro threshold ....   0.100
   Minimum threshold for Micro iter.    ....   0.010
   NR start threshold (gradient norm)   ....   0.001
   Initial trust radius                 ....   0.400
   Minimum AH scaling param. (alpha)    ....   1.000
   Maximum AH scaling param. (alpha)    .... 1000.000
   Orbital update algorithm             .... Taylor
   White noise on init. David. guess    .... on
   Maximum white noise                  ....   0.010
   Quad. conv. algorithm                .... NR
 SOSCF                  CNVSOSCF        .... on
   Start iteration      SOSCFMaxIt      ....   150
   Startup grad/error   SOSCFStart      ....  0.001000
 Level Shifting         CNVShift        .... on
   Level shift para.    LevelShift      ....    0.2500
   Turn off err/grad.   ShiftErr        ....    0.0000
 Zerner damping         CNVZerner       .... off
 Static damping         CNVDamp         .... on
   Fraction old density DampFac         ....    0.8500
   Max. Damping (<1)    DampMax         ....    0.9800
   Min. Damping (>=0)   DampMin         ....    0.0000
   Turn off err/grad.   DampErr         ....    0.0300
 Fernandez-Rico         CNVRico         .... off

SCF Procedure:
 Maximum # iterations   MaxIter         ....   125
 SCF integral mode      SCFMode         .... Direct
   Integral package                     .... SHARK and LIBINT hybrid scheme
 Reset frequency        DirectResetFreq ....    20
 Integral Threshold     Thresh          ....  2.500e-11 Eh
 Primitive CutOff       TCut            ....  2.500e-12 Eh

Convergence Tolerance:
 Convergence Check Mode ConvCheckMode   .... Total+1el-Energy
 Convergence forced     ConvForced      .... 0
 Energy Change          TolE            ....  1.000e-08 Eh
 1-El. energy change                    ....  1.000e-05 Eh
 Orbital Gradient       TolG            ....  1.000e-05
 Orbital Rotation angle TolX            ....  1.000e-05
 DIIS Error             TolErr          ....  5.000e-07


Diagonalization of the overlap matrix:
Smallest eigenvalue                        ... 9.486e-04
Time for diagonalization                   ...    0.006 sec
Threshold for overlap eigenvalues          ... 1.000e-08
Number of eigenvalues below threshold      ... 0
Time for construction of square roots      ...    0.007 sec
Total time needed                          ...    0.013 sec

Time for model grid setup =    0.290 sec

------------------------------
INITIAL GUESS: MODEL POTENTIAL
------------------------------
Loading Hartree-Fock densities                     ... done
Calculating cut-offs                               ... done
Initializing the effective Hamiltonian             ... done
Setting up the integral package (SHARK)            ... done
Starting the Coulomb interaction                   ... done (   0.3 sec)
Reading the grid                                   ... done
Mapping shells                                     ... done
Starting the XC term evaluation                    ... done (   0.4 sec)
  promolecular density results
     # of electrons  =     67.994688723
     EX              =    -52.478611348
     EC              =     -2.253159011
     EX+EC           =    -54.731770359
Transforming the Hamiltonian                       ... done (   0.0 sec)
Diagonalizing the Hamiltonian                      ... done (   0.0 sec)
Back transforming the eigenvectors                 ... done (   0.0 sec)
Now organizing SCF variables                       ... done
                      ------------------
                      INITIAL GUESS DONE (   0.9 sec)
                      ------------------
-------------------
DFT GRID GENERATION
-------------------

General Integration Accuracy     IntAcc      ... 4.388
Radial Grid Type                 RadialGrid  ... OptM3 with GC (2021)
Angular Grid (max. ang.)         AngularGrid ... 4 (Lebedev-302)
Angular grid pruning method      GridPruning ... 4 (adaptive)
Weight generation scheme         WeightScheme... Becke
Basis function cutoff            BFCut       ... 1.0000e-11
Integration weight cutoff        WCut        ... 1.0000e-14
Angular grids for H and He will be reduced by one unit
Partially contracted basis set               ... off
Rotationally invariant grid construction     ... off

Total number of grid points                  ...    92513
Total number of batches                      ...     1457
Average number of points per batch           ...       63
Average number of grid points per atom       ...     4405
Time for grid setup =    1.129 sec

--------------------
COSX GRID GENERATION
--------------------

GRIDX 1
-------
General Integration Accuracy     IntAcc      ... 3.816
Radial Grid Type                 RadialGrid  ... OptM3 with GC (2021)
Angular Grid (max. ang.)         AngularGrid ... 1 (Lebedev-50)
Angular grid pruning method      GridPruning ... 4 (adaptive)
Weight generation scheme         WeightScheme... Becke
Basis function cutoff            BFCut       ... 1.0000e-11
Integration weight cutoff        WCut        ... 1.0000e-14
Angular grids for H and He will be reduced by one unit
Partially contracted basis set               ... on
Rotationally invariant grid construction     ... off

Total number of grid points                  ...    11848
Total number of batches                      ...      198
Average number of points per batch           ...       59
Average number of grid points per atom       ...      564
UseSFitting                                  ... on

GRIDX 2
-------
General Integration Accuracy     IntAcc      ... 4.020
Radial Grid Type                 RadialGrid  ... OptM3 with GC (2021)
Angular Grid (max. ang.)         AngularGrid ... 2 (Lebedev-110)
Angular grid pruning method      GridPruning ... 4 (adaptive)
Weight generation scheme         WeightScheme... Becke
Basis function cutoff            BFCut       ... 1.0000e-11
Integration weight cutoff        WCut        ... 1.0000e-14
Angular grids for H and He will be reduced by one unit
Partially contracted basis set               ... on
Rotationally invariant grid construction     ... off

Total number of grid points                  ...    25084
Total number of batches                      ...      404
Average number of points per batch           ...       62
Average number of grid points per atom       ...     1194
UseSFitting                                  ... on

GRIDX 3
-------
General Integration Accuracy     IntAcc      ... 4.338
Radial Grid Type                 RadialGrid  ... OptM3 with GC (2021)
Angular Grid (max. ang.)         AngularGrid ... 3 (Lebedev-194)
Angular grid pruning method      GridPruning ... 4 (adaptive)
Weight generation scheme         WeightScheme... Becke
Basis function cutoff            BFCut       ... 1.0000e-11
Integration weight cutoff        WCut        ... 1.0000e-14
Angular grids for H and He will be reduced by one unit
Partially contracted basis set               ... on
Rotationally invariant grid construction     ... off

Total number of grid points                  ...    54810
Total number of batches                      ...      867
Average number of points per batch           ...       63
Average number of grid points per atom       ...     2610
UseSFitting                                  ... on

Time for X-Grid setup             =    1.425 sec


--------------------
CPCM SOLVATION MODEL
--------------------
CPCM parameters:
  Epsilon                                         ...      80.4000
  Refrac                                          ...       1.3300
  Rsolv                                           ...       1.3000
  Surface type                                    ... GAUSSIAN VDW
  Epsilon function type                           ...         CPCM
Radii:
 Radius for N  used is    3.5149 Bohr (=   1.8600 Ang.)
 Radius for C  used is    3.8550 Bohr (=   2.0400 Ang.)
 Radius for H  used is    2.4944 Bohr (=   1.3200 Ang.)
Calculating surface                               ...        done! (  0.0s)
GEPOL surface points                              ...         1155
GEPOL Volume                                      ...    1158.2635
GEPOL Surface-area                                ...     656.5134
Calculating surface distance matrix               ...        done! (  0.0s)
Performing Cholesky decomposition & store         ...        done! (  0.0s)
Overall time for CPCM initialization              ...                 0.1s
--------------
SCF ITERATIONS
--------------
ITER       Energy         Delta-E        Max-DP      RMS-DP      [F,P]     Damp
               ***  Starting incremental Fock matrix formation  ***
  0   -382.8909711129   0.000000000000 0.03942233  0.00082066  0.1521760 0.8500
  1   -382.9272127555  -0.036241642617 0.04202753  0.00077648  0.1235785 0.8500
                               ***Turning on DIIS***
  2   -382.9553847801  -0.028172024639 0.03688230  0.00064101  0.0959087 0.8500
  3   -382.9767234192  -0.021338639018 0.02978649  0.00046766  0.0735888 0.8500
  4   -382.9933649802  -0.016641561065 0.02441724  0.00036128  0.0589597 0.8500
  5   -383.0065629899  -0.013198009649 0.02050265  0.00029699  0.0489102 0.8500
  6   -383.0173114085  -0.010748418638 0.01743283  0.00025064  0.0412058 0.8500
  7   -383.0262051670  -0.008893758497 0.01499316  0.00021562  0.0349246 0.8500
  8   -383.0336360696  -0.007430902574 0.08625281  0.00123704  0.0295489 0.0000
  9   -383.0735923549  -0.039956285355 0.00134820  0.00004097  0.0011338 0.0000
                      *** Initiating the SOSCF procedure ***
                           *** Shutting down DIIS ***
                      *** Re-Reading the Fockian *** 
                      *** Removing any level shift *** 
ITER      Energy       Delta-E        Grad      Rot      Max-DP    RMS-DP
 10   -383.07360833  -0.0000159795  0.000281  0.000281  0.000549  0.000020
               *** Restarting incremental Fock matrix formation ***
 11   -383.07371533  -0.0001069972  0.000241  0.000550  0.000624  0.000018
 12   -383.07371615  -0.0000008149  0.000084  0.000342  0.000316  0.000012
 13   -383.07371637  -0.0000002256  0.000029  0.000030  0.000189  0.000004
 14   -383.07371640  -0.0000000302  0.000008  0.000018  0.000078  0.000001
 15   -383.07371641  -0.0000000093  0.000003  0.000010  0.000021  0.000000
                  ***Gradient check signals convergence***
              ***Rediagonalizing the Fockian in SOSCF/NRSCF***

               *****************************************************
               *                     SUCCESS                       *
               *           SCF CONVERGED AFTER  16 CYCLES          *
               *****************************************************

Old exchange energy                            =    -17.426362614 Eh
New exchange energy                            =    -17.426345821 Eh
Exchange energy change after final integration =      0.000016793 Eh
Total energy after final integration           =   -383.073699619 Eh
Final COS-X integration done in                =    33.618 sec

----------------
TOTAL SCF ENERGY
----------------

Total Energy       :         -383.07369962 Eh          -10423.96531 eV

Components:
Nuclear Repulsion  :          462.24388426 Eh           12578.29556 eV
Electronic Energy  :         -845.31758388 Eh          -23002.26087 eV
One Electron Energy:        -1432.44992797 Eh          -38978.94419 eV
Two Electron Energy:          587.13234408 Eh           15976.68332 eV
Max COSX asymmetry :            0.00000291 Eh               0.00008 eV
CPCM Dielectric    :           -0.01649320 Eh              -0.44880 eV

Virial components:
Potential Energy   :         -761.88312602 Eh          -20731.89385 eV
Kinetic Energy     :          378.80942640 Eh           10307.92854 eV
Virial Ratio       :            2.01125704


DFT components:
N(Alpha)           :       34.000025390667 electrons
N(Beta)            :       34.000025390667 electrons
N(Total)           :       68.000050781333 electrons
E(XC)              :      -38.776577214251 Eh       
DFET-embed. en.    :        0.000000000000 Eh       
CPCM Solvation Model Properties:
Surface-charge          :           -0.02230784
Charge-correction       :           -0.00050776 Eh              -0.01382 eV
Free-energy (cav+disp)  :  This term is not implemented in the current solvation scheme

---------------
SCF CONVERGENCE
---------------

  Last Energy change         ...   -4.9687e-10  Tolerance :   1.0000e-08
  Last MAX-Density change    ...    3.9968e-15  Tolerance :   1.0000e-07
  Last RMS-Density change    ...    4.8641e-17  Tolerance :   5.0000e-09
  Last Orbital Gradient      ...    1.0879e-06  Tolerance :   1.0000e-05
  Last Orbital Rotation      ...    3.0992e-06  Tolerance :   1.0000e-05

             **** THE GBW FILE WAS UPDATED (2_deprot_aq_2.gbw) ****
             **** DENSITY 2_deprot_aq_2.scfp WAS UPDATED ****
             **** ENERGY FILE WAS UPDATED (2_deprot_aq_2.en.tmp) ****
             **** THE GBW FILE WAS UPDATED (2_deprot_aq_2.gbw) ****
             **** DENSITY 2_deprot_aq_2.scfp WAS UPDATED ****
----------------
ORBITAL ENERGIES
----------------

  NO   OCC          E(Eh)            E(eV) 
   0   2.0000     -14.442604      -393.0032 
   1   2.0000     -14.441839      -392.9824 
   2   2.0000     -10.295026      -280.1419 
   3   2.0000     -10.294875      -280.1378 
   4   2.0000     -10.287892      -279.9478 
   5   2.0000     -10.286340      -279.9055 
   6   2.0000     -10.268872      -279.4302 
   7   2.0000     -10.268258      -279.4135 
   8   2.0000     -10.267896      -279.4037 
   9   2.0000      -1.145961       -31.1832 
  10   2.0000      -1.038091       -28.2479 
  11   2.0000      -0.916102       -24.9284 
  12   2.0000      -0.872631       -23.7455 
  13   2.0000      -0.853687       -23.2300 
  14   2.0000      -0.786528       -21.4025 
  15   2.0000      -0.776572       -21.1316 
  16   2.0000      -0.683189       -18.5905 
  17   2.0000      -0.678139       -18.4531 
  18   2.0000      -0.612955       -16.6794 
  19   2.0000      -0.597557       -16.2603 
  20   2.0000      -0.554111       -15.0781 
  21   2.0000      -0.548490       -14.9252 
  22   2.0000      -0.530091       -14.4245 
  23   2.0000      -0.526685       -14.3318 
  24   2.0000      -0.524987       -14.2856 
  25   2.0000      -0.509926       -13.8758 
  26   2.0000      -0.505564       -13.7571 
  27   2.0000      -0.494846       -13.4655 
  28   2.0000      -0.473284       -12.8787 
  29   2.0000      -0.471057       -12.8181 
  30   2.0000      -0.468268       -12.7422 
  31   2.0000      -0.363485        -9.8909 
  32   2.0000      -0.317714        -8.6454 
  33   2.0000      -0.299767        -8.1571 
  34   0.0000       0.131480         3.5778 
  35   0.0000       0.137552         3.7430 
  36   0.0000       0.148041         4.0284 
  37   0.0000       0.165533         4.5044 
  38   0.0000       0.194769         5.2999 
  39   0.0000       0.206962         5.6317 
  40   0.0000       0.209462         5.6998 
  41   0.0000       0.218652         5.9498 
  42   0.0000       0.234775         6.3885 
  43   0.0000       0.242444         6.5972 
  44   0.0000       0.243376         6.6226 
  45   0.0000       0.250337         6.8120 
  46   0.0000       0.252875         6.8811 
  47   0.0000       0.262925         7.1546 
  48   0.0000       0.290676         7.9097 
  49   0.0000       0.310681         8.4541 
  50   0.0000       0.313411         8.5283 
  51   0.0000       0.339836         9.2474 
  52   0.0000       0.369449        10.0532 
  53   0.0000       0.378489        10.2992 
  54   0.0000       0.394322        10.7300 
  55   0.0000       0.454439        12.3659 
  56   0.0000       0.485538        13.2122 
  57   0.0000       0.489584        13.3222 
  58   0.0000       0.496513        13.5108 
  59   0.0000       0.497710        13.5434 
  60   0.0000       0.543665        14.7939 
  61   0.0000       0.551533        15.0080 
  62   0.0000       0.567246        15.4355 
  63   0.0000       0.578622        15.7451 
  64   0.0000       0.589670        16.0457 
  65   0.0000       0.619832        16.8665 
  66   0.0000       0.623480        16.9657 
  67   0.0000       0.663763        18.0619 
  68   0.0000       0.668423        18.1887 
  69   0.0000       0.673078        18.3154 
  70   0.0000       0.691168        18.8076 
  71   0.0000       0.731064        19.8933 
  72   0.0000       0.737891        20.0790 
  73   0.0000       0.748345        20.3635 
  74   0.0000       0.752446        20.4751 
  75   0.0000       0.756826        20.5943 
  76   0.0000       0.759888        20.6776 
  77   0.0000       0.773380        21.0447 
  78   0.0000       0.776996        21.1431 
  79   0.0000       0.780482        21.2380 
  80   0.0000       0.791263        21.5314 
  81   0.0000       0.791969        21.5506 
  82   0.0000       0.793894        21.6030 
  83   0.0000       0.804821        21.9003 
  84   0.0000       0.805783        21.9265 
  85   0.0000       0.820225        22.3194 
  86   0.0000       0.835713        22.7409 
  87   0.0000       0.837145        22.7799 
  88   0.0000       0.845149        22.9977 
  89   0.0000       0.856285        23.3007 
  90   0.0000       0.863889        23.5076 
  91   0.0000       0.952847        25.9283 
  92   0.0000       0.988007        26.8850 
  93   0.0000       1.018699        27.7202 
  94   0.0000       1.032557        28.0973 
  95   0.0000       1.049868        28.5684 
  96   0.0000       1.077084        29.3089 
  97   0.0000       1.123581        30.5742 
  98   0.0000       1.134612        30.8744 
  99   0.0000       1.219767        33.1915 
 100   0.0000       1.229475        33.4557 
 101   0.0000       1.271034        34.5866 
 102   0.0000       1.297097        35.2958 
 103   0.0000       1.324082        36.0301 
 104   0.0000       1.335538        36.3418 
 105   0.0000       1.341626        36.5075 
 106   0.0000       1.395088        37.9623 
 107   0.0000       1.431656        38.9573 
 108   0.0000       1.550824        42.2001 
 109   0.0000       1.560866        42.4733 
 110   0.0000       1.581192        43.0264 
 111   0.0000       1.640541        44.6414 
 112   0.0000       1.642668        44.6993 
 113   0.0000       1.649300        44.8797 
 114   0.0000       1.653749        45.0008 
 115   0.0000       1.655569        45.0503 
 116   0.0000       1.656476        45.0750 
 117   0.0000       1.664533        45.2942 
 118   0.0000       1.694146        46.1001 
 119   0.0000       1.745689        47.5026 
 120   0.0000       1.756880        47.8071 
 121   0.0000       1.790405        48.7194 
 122   0.0000       1.829943        49.7953 
 123   0.0000       1.851416        50.3796 
 124   0.0000       1.891026        51.4574 
 125   0.0000       1.895797        51.5873 
 126   0.0000       1.900194        51.7069 
 127   0.0000       1.908430        51.9310 
 128   0.0000       1.916291        52.1449 
 129   0.0000       1.917873        52.1880 
 130   0.0000       1.933065        52.6014 
 131   0.0000       1.940063        52.7918 
 132   0.0000       1.971633        53.6509 
 133   0.0000       1.996436        54.3258 
 134   0.0000       2.004155        54.5358 
 135   0.0000       2.016486        54.8714 
 136   0.0000       2.029289        55.2198 
 137   0.0000       2.055508        55.9332 
 138   0.0000       2.091433        56.9108 
 139   0.0000       2.093918        56.9784 
 140   0.0000       2.135489        58.1096 
 141   0.0000       2.153295        58.5941 
 142   0.0000       2.173836        59.1531 
 143   0.0000       2.214918        60.2710 
 144   0.0000       2.228488        60.6402 
 145   0.0000       2.248968        61.1975 
 146   0.0000       2.273123        61.8548 
 147   0.0000       2.278804        62.0094 
 148   0.0000       2.313465        62.9526 
 149   0.0000       2.367598        64.4256 
 150   0.0000       2.385510        64.9130 
 151   0.0000       2.389460        65.0205 
 152   0.0000       2.419959        65.8504 
 153   0.0000       2.432504        66.1918 
 154   0.0000       2.447486        66.5995 
 155   0.0000       2.507210        68.2246 
 156   0.0000       2.533842        68.9493 
 157   0.0000       2.553925        69.4958 
 158   0.0000       2.563792        69.7643 
 159   0.0000       2.587825        70.4183 
 160   0.0000       2.654654        72.2368 
 161   0.0000       2.656502        72.2871 
 162   0.0000       2.685733        73.0825 
 163   0.0000       2.690798        73.2203 
 164   0.0000       2.790032        75.9206 
 165   0.0000       2.811940        76.5168 
 166   0.0000       2.831385        77.0459 
 167   0.0000       2.867797        78.0367 
 168   0.0000       2.876650        78.2776 
 169   0.0000       2.894811        78.7718 
 170   0.0000       2.918733        79.4228 
 171   0.0000       2.944532        80.1248 
 172   0.0000       2.952497        80.3415 
 173   0.0000       3.016916        82.0945 
 174   0.0000       3.035804        82.6084 
 175   0.0000       3.072042        83.5945 
 176   0.0000       3.073930        83.6459 
 177   0.0000       3.075654        83.6928 
 178   0.0000       3.076916        83.7272 
 179   0.0000       3.111954        84.6806 
 180   0.0000       3.138557        85.4045 
 181   0.0000       3.163639        86.0870 
 182   0.0000       3.329563        90.6020 
 183   0.0000       3.431187        93.3673 
 184   0.0000       3.459454        94.1365 
 185   0.0000       3.547506        96.5326 

                    ********************************
                    * MULLIKEN POPULATION ANALYSIS *
                    ********************************

-----------------------
MULLIKEN ATOMIC CHARGES
-----------------------
   0 N :   -0.224858
   1 C :   -0.247853
   2 N :   -0.227411
   3 C :   -0.128754
   4 C :   -0.131480
   5 C :    0.107053
   6 C :    0.099279
   7 H :    0.050970
   8 H :    0.045455
   9 H :    0.051120
  10 H :    0.056018
  11 H :    0.056572
  12 H :    0.043386
  13 C :    0.077955
  14 C :    0.101239
  15 H :    0.047403
  16 H :    0.034590
  17 H :    0.047713
  18 H :    0.054083
  19 H :    0.053806
  20 H :    0.033712
Sum of atomic charges:   -0.0000000

--------------------------------
MULLIKEN REDUCED ORBITAL CHARGES
--------------------------------
  0 N s       :     3.392161  s :     3.392161
      pz      :     1.518355  p :     3.799599
      px      :     1.156512
      py      :     1.124732
      dz2     :     0.002221  d :     0.033098
      dxz     :     0.004534
      dyz     :     0.005782
      dx2y2   :     0.011425
      dxy     :     0.009136
  1 C s       :     3.621888  s :     3.621888
      pz      :     0.732417  p :     2.560297
      px      :     0.664495
      py      :     1.163385
      dz2     :     0.007678  d :     0.065668
      dxz     :     0.012206
      dyz     :     0.009422
      dx2y2   :     0.007982
      dxy     :     0.028380
  2 N s       :     3.393940  s :     3.393940
      pz      :     1.522341  p :     3.800422
      px      :     1.155482
      py      :     1.122600
      dz2     :     0.002226  d :     0.033049
      dxz     :     0.004472
      dyz     :     0.005857
      dx2y2   :     0.011343
      dxy     :     0.009151
  3 C s       :     3.100258  s :     3.100258
      pz      :     1.089563  p :     2.970835
      px      :     1.011139
      py      :     0.870133
      dz2     :     0.004320  d :     0.057661
      dxz     :     0.009414
      dyz     :     0.010534
      dx2y2   :     0.019632
      dxy     :     0.013762
  4 C s       :     3.101272  s :     3.101272
      pz      :     1.083019  p :     2.972181
      px      :     0.992842
      py      :     0.896320
      dz2     :     0.004371  d :     0.058027
      dxz     :     0.010353
      dyz     :     0.009741
      dx2y2   :     0.019520
      dxy     :     0.014041
  5 C s       :     2.973730  s :     2.973730
      pz      :     1.041185  p :     2.879498
      px      :     0.809368
      py      :     1.028944
      dz2     :     0.006947  d :     0.039720
      dxz     :     0.011872
      dyz     :     0.002855
      dx2y2   :     0.011340
      dxy     :     0.006706
  6 C s       :     2.985070  s :     2.985070
      pz      :     1.037881  p :     2.875907
      px      :     0.812276
      py      :     1.025750
      dz2     :     0.007021  d :     0.039743
      dxz     :     0.012016
      dyz     :     0.002680
      dx2y2   :     0.011076
      dxy     :     0.006950
  7 H s       :     0.925535  s :     0.925535
      pz      :     0.012222  p :     0.023495
      px      :     0.005507
      py      :     0.005766
  8 H s       :     0.931019  s :     0.931019
      pz      :     0.004893  p :     0.023526
      px      :     0.002687
      py      :     0.015946
  9 H s       :     0.925389  s :     0.925389
      pz      :     0.012305  p :     0.023490
      px      :     0.005473
      py      :     0.005713
 10 H s       :     0.920590  s :     0.920590
      pz      :     0.012146  p :     0.023391
      px      :     0.005605
      py      :     0.005640
 11 H s       :     0.920034  s :     0.920034
      pz      :     0.012184  p :     0.023394
      px      :     0.005590
      py      :     0.005619
 12 H s       :     0.932993  s :     0.932993
      pz      :     0.004912  p :     0.023621
      px      :     0.002776
      py      :     0.015934
 13 C s       :     2.894367  s :     2.894367
      pz      :     1.034695  p :     3.000369
      px      :     0.984544
      py      :     0.981130
      dz2     :     0.005331  d :     0.027309
      dxz     :     0.001907
      dyz     :     0.008895
      dx2y2   :     0.004551
      dxy     :     0.006625
 14 C s       :     2.873676  s :     2.873676
      pz      :     1.030689  p :     2.997465
      px      :     0.986156
      py      :     0.980620
      dz2     :     0.005300  d :     0.027621
      dxz     :     0.009116
      dyz     :     0.002012
      dx2y2   :     0.003384
      dxy     :     0.007809
 15 H s       :     0.927869  s :     0.927869
      pz      :     0.011982  p :     0.024728
      px      :     0.008396
      py      :     0.004351
 16 H s       :     0.940668  s :     0.940668
      pz      :     0.004978  p :     0.024743
      px      :     0.007037
      py      :     0.012728
 17 H s       :     0.927553  s :     0.927553
      pz      :     0.012094  p :     0.024734
      px      :     0.008284
      py      :     0.004355
 18 H s       :     0.921164  s :     0.921164
      pz      :     0.012245  p :     0.024753
      px      :     0.004811
      py      :     0.007697
 19 H s       :     0.921433  s :     0.921433
      pz      :     0.011668  p :     0.024761
      px      :     0.004932
      py      :     0.008161
 20 H s       :     0.941277  s :     0.941277
      pz      :     0.005146  p :     0.025010
      px      :     0.014498
      py      :     0.005366


                     *******************************
                     * LOEWDIN POPULATION ANALYSIS *
                     *******************************

----------------------
LOEWDIN ATOMIC CHARGES
----------------------
   0 N :    0.026836
   1 C :   -0.337020
   2 N :    0.025750
   3 C :   -0.050950
   4 C :   -0.049547
   5 C :    0.028872
   6 C :    0.026974
   7 H :    0.031279
   8 H :    0.032712
   9 H :    0.031251
  10 H :    0.031057
  11 H :    0.031054
  12 H :    0.032582
  13 C :   -0.055871
  14 C :   -0.053879
  15 H :    0.040695
  16 H :    0.042315
  17 H :    0.040780
  18 H :    0.042893
  19 H :    0.043035
  20 H :    0.039184

-------------------------------
LOEWDIN REDUCED ORBITAL CHARGES
-------------------------------
  0 N s       :     3.054816  s :     3.054816
      pz      :     1.447821  p :     3.840792
      px      :     1.191736
      py      :     1.201235
      dz2     :     0.004203  d :     0.077555
      dxz     :     0.007539
      dyz     :     0.011445
      dx2y2   :     0.028782
      dxy     :     0.025587
  1 C s       :     3.205483  s :     3.205483
      pz      :     0.780557  p :     2.989313
      px      :     0.823586
      py      :     1.385171
      dz2     :     0.017526  d :     0.142224
      dxz     :     0.026955
      dyz     :     0.013043
      dx2y2   :     0.018767
      dxy     :     0.065932
  2 N s       :     3.056003  s :     3.056003
      pz      :     1.449947  p :     3.840901
      px      :     1.192701
      py      :     1.198254
      dz2     :     0.004196  d :     0.077346
      dxz     :     0.007418
      dyz     :     0.011636
      dx2y2   :     0.028415
      dxy     :     0.025681
  3 C s       :     2.839103  s :     2.839103
      pz      :     1.067784  p :     3.072303
      px      :     1.055932
      py      :     0.948587
      dz2     :     0.009517  d :     0.139544
      dxz     :     0.019193
      dyz     :     0.020088
      dx2y2   :     0.053326
      dxy     :     0.037420
  4 C s       :     2.838250  s :     2.838250
      pz      :     1.065435  p :     3.070689
      px      :     1.057406
      py      :     0.947849
      dz2     :     0.009638  d :     0.140607
      dxz     :     0.020273
      dyz     :     0.019291
      dx2y2   :     0.053285
      dxy     :     0.038120
  5 C s       :     2.821926  s :     2.821926
      pz      :     1.082999  p :     3.049889
      px      :     0.900716
      py      :     1.066174
      dz2     :     0.017515  d :     0.099313
      dxz     :     0.030725
      dyz     :     0.006452
      dx2y2   :     0.029099
      dxy     :     0.015523
  6 C s       :     2.822952  s :     2.822952
      pz      :     1.082475  p :     3.050853
      px      :     0.903588
      py      :     1.064790
      dz2     :     0.017605  d :     0.099221
      dxz     :     0.031140
      dyz     :     0.006016
      dx2y2   :     0.028428
      dxy     :     0.016031
  7 H s       :     0.903125  s :     0.903125
      pz      :     0.032706  p :     0.065596
      px      :     0.017153
      py      :     0.015737
  8 H s       :     0.900545  s :     0.900545
      pz      :     0.013031  p :     0.066743
      px      :     0.009205
      py      :     0.044507
  9 H s       :     0.903167  s :     0.903167
      pz      :     0.032932  p :     0.065583
      px      :     0.017070
      py      :     0.015580
 10 H s       :     0.903323  s :     0.903323
      pz      :     0.032893  p :     0.065620
      px      :     0.017353
      py      :     0.015374
 11 H s       :     0.903316  s :     0.903316
      pz      :     0.033007  p :     0.065630
      px      :     0.017322
      py      :     0.015301
 12 H s       :     0.900598  s :     0.900598
      pz      :     0.013011  p :     0.066820
      px      :     0.009335
      py      :     0.044474
 13 C s       :     2.813698  s :     2.813698
      pz      :     1.078144  p :     3.168766
      px      :     1.048313
      py      :     1.042309
      dz2     :     0.014307  d :     0.073407
      dxz     :     0.003815
      dyz     :     0.023839
      dx2y2   :     0.012910
      dxy     :     0.018536
 14 C s       :     2.813225  s :     2.813225
      pz      :     1.074026  p :     3.166426
      px      :     1.047350
      py      :     1.045050
      dz2     :     0.014389  d :     0.074229
      dxz     :     0.024475
      dyz     :     0.003992
      dx2y2   :     0.009483
      dxy     :     0.021890
 15 H s       :     0.892102  s :     0.892102
      pz      :     0.031618  p :     0.067203
      px      :     0.022619
      py      :     0.012966
 16 H s       :     0.890235  s :     0.890235
      pz      :     0.013182  p :     0.067451
      px      :     0.019624
      py      :     0.034645
 17 H s       :     0.892019  s :     0.892019
      pz      :     0.031928  p :     0.067201
      px      :     0.022308
      py      :     0.012964
 18 H s       :     0.890000  s :     0.890000
      pz      :     0.032537  p :     0.067108
      px      :     0.013353
      py      :     0.021217
 19 H s       :     0.889809  s :     0.889809
      pz      :     0.030957  p :     0.067157
      px      :     0.013730
      py      :     0.022470
 20 H s       :     0.892400  s :     0.892400
      pz      :     0.013672  p :     0.068415
      px      :     0.039090
      py      :     0.015653


                      *****************************
                      * MAYER POPULATION ANALYSIS *
                      *****************************

  NA   - Mulliken gross atomic population
  ZA   - Total nuclear charge
  QA   - Mulliken gross atomic charge
  VA   - Mayer's total valence
  BVA  - Mayer's bonded valence
  FA   - Mayer's free valence

  ATOM       NA         ZA         QA         VA         BVA        FA
  0 N      7.2249     7.0000    -0.2249     3.4096     3.4096     0.0000
  1 C      6.2479     6.0000    -0.2479     2.7182     2.7182     0.0000
  2 N      7.2274     7.0000    -0.2274     3.4045     3.4045    -0.0000
  3 C      6.1288     6.0000    -0.1288     4.0308     4.0308    -0.0000
  4 C      6.1315     6.0000    -0.1315     4.0575     4.0575    -0.0000
  5 C      5.8929     6.0000     0.1071     3.8995     3.8995     0.0000
  6 C      5.9007     6.0000     0.0993     3.8973     3.8973    -0.0000
  7 H      0.9490     1.0000     0.0510     0.9926     0.9926     0.0000
  8 H      0.9545     1.0000     0.0455     1.0219     1.0219     0.0000
  9 H      0.9489     1.0000     0.0511     0.9925     0.9925     0.0000
 10 H      0.9440     1.0000     0.0560     0.9897     0.9897    -0.0000
 11 H      0.9434     1.0000     0.0566     0.9895     0.9895    -0.0000
 12 H      0.9566     1.0000     0.0434     1.0240     1.0240    -0.0000
 13 C      5.9220     6.0000     0.0780     3.9421     3.9421     0.0000
 14 C      5.8988     6.0000     0.1012     3.9455     3.9455     0.0000
 15 H      0.9526     1.0000     0.0474     0.9945     0.9945     0.0000
 16 H      0.9654     1.0000     0.0346     1.0037     1.0037    -0.0000
 17 H      0.9523     1.0000     0.0477     0.9944     0.9944    -0.0000
 18 H      0.9459     1.0000     0.0541     0.9925     0.9925     0.0000
 19 H      0.9462     1.0000     0.0538     0.9929     0.9929    -0.0000
 20 H      0.9663     1.0000     0.0337     1.0111     1.0111     0.0000

  Mayer bond orders larger than 0.100000
B(  0-N ,  1-C ) :   1.2455 B(  0-N ,  4-C ) :   1.1415 B(  0-N ,  5-C ) :   0.9638 
B(  1-C ,  2-N ) :   1.2457 B(  2-N ,  3-C ) :   1.1419 B(  2-N ,  6-C ) :   0.9561 
B(  3-C ,  4-C ) :   1.6479 B(  3-C , 13-C ) :   1.0755 B(  4-C , 14-C ) :   1.0959 
B(  5-C ,  7-H ) :   0.9753 B(  5-C ,  8-H ) :   0.9691 B(  5-C ,  9-H ) :   0.9755 
B(  6-C , 10-H ) :   0.9759 B(  6-C , 11-H ) :   0.9756 B(  6-C , 12-H ) :   0.9681 
B( 13-C , 18-H ) :   0.9553 B( 13-C , 19-H ) :   0.9549 B( 13-C , 20-H ) :   0.9470 
B( 14-C , 15-H ) :   0.9496 B( 14-C , 16-H ) :   0.9415 B( 14-C , 17-H ) :   0.9496 


-------
TIMINGS
-------

Total SCF time: 0 days 0 hours 3 min 59 sec 

Total time                  ....     239.200 sec
Sum of individual times     ....     238.773 sec  ( 99.8%)

Fock matrix formation       ....     235.143 sec  ( 98.3%)
  Split-RI-J                ....       8.884 sec  (  3.8% of F)
  Chain of spheres X        ....     188.419 sec  ( 80.1% of F)
  XC integration            ....      23.464 sec  ( 10.0% of F)
    Basis function eval.    ....       8.588 sec  ( 36.6% of XC)
    Density eval.           ....       5.079 sec  ( 21.6% of XC)
    XC-Functional eval.     ....       3.393 sec  ( 14.5% of XC)
    XC-Potential eval.      ....       5.698 sec  ( 24.3% of XC)
Diagonalization             ....       0.074 sec  (  0.0%)
Density matrix formation    ....       0.010 sec  (  0.0%)
Population analysis         ....       0.008 sec  (  0.0%)
Initial guess               ....       0.641 sec  (  0.3%)
Orbital Transformation      ....       0.000 sec  (  0.0%)
Orbital Orthonormalization  ....       0.000 sec  (  0.0%)
DIIS solution               ....       0.025 sec  (  0.0%)
SOSCF solution              ....       0.028 sec  (  0.0%)
Grid generation             ....       2.843 sec  (  1.2%)

Maximum memory used throughout the entire SCF-calculation: 77.4 MB


-------------------------------------------------------------------------------
                          DFT DISPERSION CORRECTION                            
                                                                               
                                 DFTD4 V2.5                                    
-------------------------------------------------------------------------------
The WB97X functional is recognized
Active option DFTDOPT                   ...         5   

Starting D4
-------------------------   ----------------
Dispersion correction           -0.002992064
-------------------------   ----------------


-------------------------   --------------------
FINAL SINGLE POINT ENERGY      -383.076691683603
-------------------------   --------------------

------------------------------------------------------------------------------
                         ORCA SCF GRADIENT CALCULATION
------------------------------------------------------------------------------

 ... reading COSX grid (gridx3)
Gradient of the Kohn-Sham DFT energy:
Kohn-Sham wavefunction type      ... RKS
Hartree-Fock exchange scaling    ...    0.158
Number of operators              ...    1
Number of atoms                  ...   21
Basis set dimensions             ...  186
Integral neglect threshold       ... 2.5e-11
Integral primitive cutoff        ... 2.5e-12
SHARK Integral package           ... ON

Nuc. rep. gradient       (SHARK) ... done (  0.0 sec)
HCore & Overlap gradient (SHARK) ... done (  0.3 sec)
RI-J gradient            (SHARK) ... done (  1.9 sec)
COSX-gradient                    ... done ( 35.9 sec)
Exchange-correlation gradient    ... done
Dispersion correction            ... Starting D4


------------------- 
Dispersion Gradient 
------------------- 
   1  :   -0.000014839   -0.000010483   -0.000000004
   2  :    0.000000175   -0.000023198   -0.000000004
   3  :    0.000014769   -0.000010459   -0.000000009
   4  :    0.000008674    0.000002958   -0.000000005
   5  :   -0.000008351    0.000002475   -0.000000004
   6  :   -0.000052798   -0.000022294   -0.000000003
   7  :    0.000052826   -0.000023516   -0.000000012
   8  :   -0.000007473   -0.000006071   -0.000000800
   9  :   -0.000008536   -0.000005693   -0.000000003
  10  :   -0.000007486   -0.000006078    0.000000797
  11  :    0.000007562   -0.000006336   -0.000000620
  12  :    0.000007584   -0.000006372    0.000000609
  13  :    0.000008602   -0.000005626   -0.000000004
  14  :    0.000033958    0.000038409    0.000000030
  15  :   -0.000034590    0.000037011   -0.000000005
  16  :   -0.000007728    0.000006490   -0.000000162
  17  :   -0.000006644    0.000009036    0.000000007
  18  :   -0.000007746    0.000006520    0.000000171
  19  :    0.000007604    0.000008779    0.000000680
  20  :    0.000007552    0.000008873   -0.000000672
  21  :    0.000006884    0.000005575    0.000000012

  |G| =    0.000120210

done

------------------
CARTESIAN GRADIENT
------------------

   1   N   :   -0.012782466    0.003660015   -0.000057044
   2   C   :    0.000366425    0.008242897   -0.000013496
   3   N   :    0.012249206    0.004542257   -0.000085183
   4   C   :    0.002101637   -0.006283087    0.000123473
   5   C   :   -0.001094184   -0.005992645    0.000128348
   6   C   :    0.004705932   -0.000173399    0.000061996
   7   C   :   -0.004587934   -0.000256140    0.000040580
   8   H   :    0.002991887   -0.001439065   -0.004111865
   9   H   :    0.000869459    0.005790375   -0.000036914
  10   H   :    0.002989463   -0.001405602    0.004106083
  11   H   :   -0.003116530   -0.001480345   -0.003796354
  12   H   :   -0.003108941   -0.001469398    0.003782323
  13   H   :   -0.000692251    0.005591353   -0.000030122
  14   C   :    0.005403398    0.003317068   -0.000164394
  15   C   :   -0.003519981    0.005999441   -0.000000007
  16   H   :    0.004978813   -0.001137783    0.005667851
  17   H   :   -0.003090833   -0.007691723    0.000063913
  18   H   :    0.004925017   -0.001177860   -0.005709014
  19   H   :   -0.000780459   -0.004680203   -0.005476310
  20   H   :   -0.000235621   -0.005014950    0.005243303
  21   H   :   -0.008199723    0.001276519    0.000318848

Difference to translation invariance:
           :    0.0003723119    0.0002177245    0.0000560155

Difference to rotation invariance:
           :    0.0001235446   -0.0000928025   -0.0007421719

Norm of the cartesian gradient     ...    0.0340881694
RMS gradient                       ...    0.0042947057
MAX gradient                       ...    0.0127824664

-------
TIMINGS
-------

Total SCF gradient time            ...       47.536 sec

One electron gradient       ....       0.340 sec  (  0.7%)
RI-J Coulomb gradient       ....       1.869 sec  (  3.9%)
COSX gradient               ....      35.922 sec  ( 75.6%)
XC gradient                 ....       7.411 sec  ( 15.6%)
CPCM gradient               ....       0.739 sec  (  1.6%)
   A-Matrix (El+Nuc)        ....       0.067 sec  (  0.1%)
   Potential                ....       0.672 sec  (  1.4%)

Maximum memory used throughout the entire SCFGRAD-calculation: 62.8 MB
------------------------------------------------------------------------------
                         ORCA GEOMETRY RELAXATION STEP
------------------------------------------------------------------------------

Reading the OPT-File                    .... done
Getting information on internals        .... done
Copying old internal coords+grads       .... done
Making the new internal coordinates     .... (new redundants).... done
Validating the new internal coordinates .... (new redundants).... done
Calculating the B-matrix                .... done
Calculating the G,G- and P matrices     .... done
Transforming gradient to internals      .... done
Projecting the internal gradient        .... done
Number of atoms                         ....  21
Number of internal coordinates          ....  98
Current Energy                          ....  -383.076691684 Eh
Current gradient norm                   ....     0.034088169 Eh/bohr
Maximum allowed component of the step   ....  0.300
Current trust radius                    ....  0.300
Evaluating the initial hessian          ....  (Almloef) done
Projecting the Hessian                  .... done
Forming the augmented Hessian           .... done
Diagonalizing the augmented Hessian     .... done
Last element of RFO vector              ....  0.996420256
Lowest eigenvalues of augmented Hessian:
 -0.002860602  0.013833374  0.014190356  0.019389700  0.019590356
Length of the computed step             ....  0.084841707
The final length of the internal step   ....  0.084841707
Converting the step to cartesian space:
 Initial RMS(Int)=    0.0085703066
Transforming coordinates:
 Iter   0:  RMS(Cart)=    0.0181332063 RMS(Int)=    0.0085761335
 Iter   1:  RMS(Cart)=    0.0000793043 RMS(Int)=    0.0000329533
 Iter   2:  RMS(Cart)=    0.0000008437 RMS(Int)=    0.0000004054
 Iter   3:  RMS(Cart)=    0.0000000061 RMS(Int)=    0.0000000030
done
Storing new coordinates                 .... done

                                .--------------------.
          ----------------------|Geometry convergence|-------------------------
          Item                value                   Tolerance       Converged
          ---------------------------------------------------------------------
          RMS gradient        0.0035042147            0.0001000000      NO
          MAX gradient        0.0117693315            0.0003000000      NO
          RMS step            0.0085703066            0.0020000000      NO
          MAX step            0.0244442027            0.0040000000      NO
          ........................................................
          Max(Bonds)      0.0129      Max(Angles)    0.61
          Max(Dihed)        0.43      Max(Improp)    0.00
          ---------------------------------------------------------------------

The optimization has not yet converged - more geometry cycles are needed


    ---------------------------------------------------------------------------
                         Redundant Internal Coordinates
                            (Angstroem and degrees)

        Definition                    Value    dE/dq     Step     New-Value
    ----------------------------------------------------------------------------
     1. B(C   1,N   0)                1.3563 -0.002681  0.0022    1.3585   
     2. B(N   2,C   1)                1.3576 -0.002793  0.0023    1.3599   
     3. B(C   3,N   2)                1.3818 -0.010163  0.0093    1.3911   
     4. B(C   4,C   3)                1.3606 -0.000734  0.0006    1.3612   
     5. B(C   4,N   0)                1.3804 -0.009797  0.0089    1.3894   
     6. B(C   5,N   0)                1.4326 -0.011769  0.0129    1.4455   
     7. B(C   6,N   2)                1.4339 -0.011698  0.0129    1.4468   
     8. B(H   7,C   5)                1.0933 -0.005254  0.0078    1.1011   
     9. B(H   8,C   5)                1.0883 -0.005771  0.0084    1.0966   
    10. B(H   9,C   5)                1.0934 -0.005237  0.0077    1.1011   
    11. B(H  10,C   6)                1.0935 -0.005091  0.0075    1.1010   
    12. B(H  11,C   6)                1.0935 -0.005068  0.0075    1.1010   
    13. B(H  12,C   6)                1.0884 -0.005562  0.0081    1.0965   
    14. B(C  13,C   3)                1.4899 -0.006437  0.0078    1.4978   
[...]
     14      -0.000015   0.000254  -0.000231   0.000108  -0.000100   0.000028
     15      -0.033462   0.000007   0.000029   0.001526  -0.000506  -0.000103
     16      -0.000326   0.000004   0.000049  -0.003199   0.001063   0.000559
     17      -0.000082  -0.000130   0.000319  -0.090383   0.029663   0.000082
     18       0.038290   0.000034  -0.000010   0.000395   0.001195  -0.000112
     19      -0.000539  -0.000019  -0.000003  -0.001519  -0.004609  -0.000530
     20      -0.000421   0.000391  -0.000333  -0.029649  -0.090288   0.000175
     21       0.203808  -0.000362   0.001226  -0.326655   0.107258   0.000756
     22      -0.148422   0.000490  -0.000163   0.243523  -0.079935  -0.000914
     23      -0.339027   0.000774  -0.001350   0.526969  -0.172997  -0.001068
     24       0.003225  -0.000004  -0.000029   0.000384  -0.000132  -0.000273
     25       0.280793  -0.000105  -0.000627   0.013609  -0.004552  -0.005530
     26      -0.006644  -0.000159  -0.000345  -0.010617   0.003482   0.000133
     27       0.186390   0.000266  -0.001581   0.307796  -0.101069   0.000046
     28      -0.128920  -0.000376   0.000458  -0.219207   0.071953  -0.000361
     29       0.346660   0.000656  -0.002235   0.554728  -0.182083  -0.000054
     30      -0.212122  -0.001893   0.001252   0.101889   0.310434  -0.000086
     31      -0.180875  -0.000885   0.000878   0.088440   0.269349   0.000299
     32      -0.378172  -0.002682   0.001998   0.175574   0.534773  -0.000316
     33      -0.235452   0.001465  -0.001138  -0.106913  -0.325699   0.000954
     34      -0.133777   0.000195  -0.000486  -0.062993  -0.191840   0.000897
     35       0.404999  -0.001813   0.001735   0.178676   0.544195  -0.001442
     36      -0.002526  -0.000011   0.000008   0.000125   0.000380  -0.000256
     37       0.320720   0.000802  -0.000292  -0.007197  -0.022134   0.005265
     38      -0.022010  -0.000423   0.000061  -0.002925  -0.008889  -0.000368
     39       0.002397  -0.002185   0.000581   0.000039   0.000105   0.046874
     40       0.001780   0.003264  -0.000898  -0.000069  -0.000192  -0.048903
     41      -0.000102   0.090169  -0.025331  -0.000053   0.000520   0.002962
     42      -0.002623  -0.000454  -0.001456   0.000082  -0.000023   0.044529
     43       0.001932   0.000725   0.002722   0.000114  -0.000042   0.046405
     44      -0.000019   0.025292   0.090231   0.000195  -0.000286  -0.000595
     45       0.021827  -0.111658  -0.398304  -0.000763   0.001131  -0.122119
     46       0.001950  -0.013048  -0.047604  -0.000823   0.000497  -0.010258
     47       0.031577  -0.153627  -0.548202  -0.001357   0.001712  -0.180638
     48      -0.012569   0.001886   0.005990  -0.000736   0.000226  -0.295371
     49      -0.024010   0.003670   0.011569  -0.001326   0.000413  -0.539400
     50       0.000829   0.002707   0.009980   0.000629  -0.000233   0.018319
     51       0.023497   0.115320   0.410268   0.000548  -0.001101  -0.120076
     52      -0.000685   0.000468   0.002748   0.000793  -0.000374   0.004491
     53      -0.032235  -0.151003  -0.537419  -0.000996   0.001587   0.169041
     54      -0.019656  -0.392585   0.110237   0.000204  -0.001954  -0.124445
     55      -0.000376   0.007745  -0.002470   0.000132   0.000794  -0.003010
     56      -0.029279  -0.555167   0.155960   0.000253  -0.003039  -0.189009
     57       0.011344   0.002657  -0.000694  -0.000335  -0.001027  -0.311198
     58      -0.022030  -0.004990   0.001249   0.000655   0.002028   0.569393
     59       0.000934   0.010578  -0.003043   0.000135   0.000514  -0.025209
     60      -0.021949   0.416054  -0.116570  -0.000252   0.002057  -0.130408
     61       0.001412  -0.041553   0.011949  -0.000142  -0.001050   0.008372
     62       0.029480  -0.530533   0.148682   0.000241  -0.002967   0.178944
                 60         61         62    
      0       0.000225  -0.000173  -0.000318
      1      -0.000304  -0.000185   0.000250
      2       0.000010   0.000012  -0.000014
      3       0.000001   0.000082  -0.000182
      4       0.000045  -0.000016  -0.000009
      5       0.000003   0.000013  -0.000017
      6      -0.000220   0.000337  -0.000114
      7      -0.000293   0.000036  -0.000313
      8       0.000006   0.000016   0.000002
      9      -0.000917   0.000421  -0.000291
     10       0.000039  -0.000078   0.000023
     11      -0.000018   0.000001  -0.000005
     12       0.000946  -0.000115  -0.000505
     13       0.000015  -0.000042  -0.000074
     14       0.000016   0.000005  -0.000004
     15      -0.000125  -0.008422  -0.019171
     16       0.000269   0.036830   0.084046
     17       0.000101  -0.001515  -0.003426
     18       0.000121   0.019499  -0.008509
     19       0.000197   0.083959  -0.036735
     20      -0.000151  -0.003846   0.001693
     21       0.000755   0.054689   0.124871
     22      -0.000869  -0.038480  -0.087844
     23      -0.000915  -0.093237  -0.212726
     24      -0.000167  -0.003828  -0.008712
     25      -0.002230  -0.362590  -0.828226
     26       0.000062   0.008715   0.019914
     27      -0.000022   0.053966   0.123167
     28      -0.000269  -0.036105  -0.082367
     29      -0.000350   0.102509   0.233768
     30       0.000157  -0.125299   0.054825
     31      -0.000142  -0.104378   0.045650
     32       0.000579  -0.228158   0.099744
     33      -0.000861  -0.123624   0.054132
     34      -0.000783  -0.066629   0.029176
     35       0.001155   0.217480  -0.095162
     36       0.000140   0.005933  -0.002580
     37      -0.001582  -0.826329   0.361933
     38       0.000114   0.055979  -0.024516
     39      -0.043986   0.000124  -0.000207
     40       0.046163  -0.000226   0.000277
     41      -0.002725   0.000046  -0.000029
     42       0.046480   0.000032  -0.000270
     43       0.048730   0.000007  -0.000389
     44      -0.000672  -0.000015  -0.000011
     45      -0.126765   0.000018   0.000910
     46      -0.010569  -0.000214  -0.000425
     47      -0.187674   0.000278   0.001800
     48      -0.312721   0.000093   0.002831
     49      -0.570904  -0.000042   0.004873
     50       0.019411   0.000002  -0.000152
     51      -0.124851  -0.000063   0.000690
     52       0.004775  -0.000229  -0.000555
     53       0.175874  -0.000166  -0.001404
     54       0.115924  -0.000545   0.000599
     55       0.002925  -0.000496   0.000228
     56       0.176250  -0.001283   0.001050
     57       0.296176  -0.001829   0.001938
     58      -0.541699   0.002988  -0.003480
     59       0.023974  -0.000147   0.000158
     60       0.122132  -0.000278   0.000499
     61      -0.007786  -0.000492   0.000198
     62      -0.167654   0.000900  -0.000860


-----------
IR SPECTRUM
-----------

 Mode   freq       eps      Int      T**2         TX        TY        TZ
       cm**-1   L/(mol*cm) km/mol    a.u.
----------------------------------------------------------------------------
  6:    120.16   0.000334    1.69  0.000866  (-0.000685 -0.000870  0.029413)
  7:    124.84   0.000031    0.16  0.000078  (-0.001818 -0.000554  0.008608)
  8:    145.92   0.000045    0.23  0.000095  (-0.001622  0.000238  0.009634)
  9:    160.49   0.000652    3.30  0.001268  ( 0.000266 -0.000073  0.035613)
 10:    180.02   0.000006    0.03  0.000010  (-0.002389  0.000787 -0.001830)
 11:    183.18   0.003441   17.39  0.005861  ( 0.002105 -0.004090 -0.076421)
 12:    277.92   0.000162    0.82  0.000182  (-0.011034  0.007594  0.001578)
 13:    280.79   0.000647    3.27  0.000719  ( 0.026666  0.001629  0.002334)
 14:    294.64   0.000208    1.05  0.000221  (-0.001080 -0.006993  0.013058)
 15:    300.63   0.001083    5.47  0.001124  ( 0.000746  0.033495  0.001239)
 16:    327.37   0.000001    0.00  0.000001  ( 0.000234  0.000172  0.000808)
 17:    553.17   0.000330    1.67  0.000186  (-0.013643  0.000008 -0.000420)
 18:    582.23   0.001296    6.55  0.000695  (-0.026351 -0.000001 -0.000661)
 19:    629.72   0.000478    2.41  0.000237  (-0.000036 -0.015378  0.000509)
 20:    643.64   0.001129    5.70  0.000547  (-0.000708  0.000779  0.023370)
 21:    682.44   0.000000    0.00  0.000000  (-0.000218 -0.000075  0.000152)
 22:    734.51   0.002162   10.93  0.000919  (-0.000052 -0.030289  0.001094)
 23:    873.79   0.006115   30.90  0.002184  (-0.046715  0.000056 -0.001280)
 24:    968.52   0.000147    0.74  0.000047  ( 0.000131  0.006858 -0.000441)
 25:   1045.60   0.001027    5.19  0.000307  ( 0.001171 -0.000971 -0.017445)
 26:   1065.84   0.000003    0.02  0.000001  ( 0.000372 -0.000190  0.000850)
 27:   1079.04   0.000165    0.83  0.000048  ( 0.006893  0.000237  0.000116)
 28:   1086.86   0.000011    0.05  0.000003  (-0.000522  0.001669 -0.000062)
 29:   1113.52   0.000000    0.00  0.000000  ( 0.000224 -0.000074  0.000003)
 30:   1144.23   0.000003    0.02  0.000001  (-0.000601  0.000203  0.000666)
 31:   1146.28   0.000007    0.03  0.000002  (-0.001235  0.000272  0.000488)
 32:   1183.26   0.001007    5.09  0.000266  ( 0.000014 -0.016292  0.000364)
 33:   1256.27   0.002342   11.84  0.000582  (-0.024112 -0.000060 -0.000630)
 34:   1389.10   0.000033    0.17  0.000007  ( 0.002638 -0.000107  0.000622)
 35:   1397.23   0.000042    0.21  0.000009  ( 0.000255 -0.002574  0.001615)
 36:   1413.48   0.000201    1.02  0.000044  ( 0.001958  0.006203 -0.001434)
 37:   1420.84   0.009179   46.38  0.002016  (-0.044802  0.002889 -0.000610)
 38:   1430.02   0.004019   20.31  0.000877  (-0.004959 -0.028930  0.003924)
 39:   1437.80   0.002911   14.71  0.000632  ( 0.002645 -0.000503  0.024992)
 40:   1439.77   0.002060   10.41  0.000446  ( 0.021026 -0.001779  0.001074)
 41:   1442.99   0.008182   41.35  0.001769  ( 0.042041  0.001224 -0.000756)
 42:   1450.18   0.003456   17.47  0.000744  ( 0.026114  0.002184 -0.007554)
 43:   1451.25   0.005482   27.70  0.001179  (-0.014307  0.012573 -0.028565)
 44:   1452.45   0.004163   21.04  0.000895  ( 0.006865  0.029015 -0.002353)
 45:   1453.98   0.005869   29.66  0.001260  (-0.005555  0.018763  0.029608)
 46:   1478.38   0.004695   23.73  0.000991  (-0.000206 -0.031477  0.000503)
 47:   1487.96   0.001963    9.92  0.000412  ( 0.000068 -0.020290 -0.000081)
 48:   1491.20   0.002134   10.78  0.000447  (-0.021100  0.001074 -0.000469)
 49:   1498.98   0.015317   77.41  0.003189  ( 0.056454  0.000137  0.001336)
 50:   1762.29   0.001248    6.31  0.000221  (-0.000027 -0.014856  0.000495)
 51:   3061.62   0.009565   48.34  0.000975  (-0.031201 -0.001126 -0.000393)
 52:   3062.69   0.004211   21.28  0.000429  (-0.001556  0.020645 -0.000611)
 53:   3070.01   0.020277  102.47  0.002061  ( 0.045397  0.000017  0.000422)
 54:   3071.23   0.000142    0.72  0.000014  ( 0.003041 -0.002277 -0.000144)
 55:   3148.09   0.003876   19.59  0.000384  (-0.000394  0.000638  0.019587)
 56:   3148.49   0.001215    6.14  0.000120  (-0.000170  0.000340  0.010968)
 57:   3164.20   0.005988   30.26  0.000591  ( 0.000340 -0.000842 -0.024284)
 58:   3164.26   0.001542    7.79  0.000152  ( 0.000268 -0.000819 -0.012303)
 59:   3185.09   0.001846    9.33  0.000181  ( 0.013435 -0.000389  0.000485)
 60:   3186.08   0.002225   11.24  0.000218  ( 0.000378  0.014748 -0.000531)
 61:   3211.04   0.001588    8.02  0.000154  ( 0.001150  0.012352 -0.000630)
 62:   3211.32   0.000319    1.61  0.000031  (-0.002872  0.004771 -0.000162)

* The epsilon (eps) is given for a Dirac delta lineshape.
** The dipole moment derivative (T) already includes vibrational overlap.

The first frequency considered to be a vibration is 6
The total number of vibrations considered is 57


--------------------------
THERMOCHEMISTRY AT 298.15K
--------------------------

Temperature         ... 298.15 K
Pressure            ... 1.00 atm
Total Mass          ... 124.19 AMU

Throughout the following assumptions are being made:
  (1) The electronic state is orbitally nondegenerate
  (2) There are no thermally accessible electronically excited states
  (3) Hindered rotations indicated by low frequency modes are not
      treated as such but are treated as vibrations and this may
      cause some error
  (4) All equations used are the standard statistical mechanics
      equations for an ideal gas
  (5) All vibrations are strictly harmonic

freq.     120.16  E(vib)   ...       0.44 
freq.     124.84  E(vib)   ...       0.43 
freq.     145.92  E(vib)   ...       0.41 
freq.     160.49  E(vib)   ...       0.39 
freq.     180.02  E(vib)   ...       0.37 
freq.     183.18  E(vib)   ...       0.37 
freq.     277.92  E(vib)   ...       0.28 
freq.     280.79  E(vib)   ...       0.28 
freq.     294.64  E(vib)   ...       0.27 
freq.     300.63  E(vib)   ...       0.26 
freq.     327.37  E(vib)   ...       0.24 
freq.     553.17  E(vib)   ...       0.12 
freq.     582.23  E(vib)   ...       0.11 
freq.     629.72  E(vib)   ...       0.09 
freq.     643.64  E(vib)   ...       0.09 
freq.     682.44  E(vib)   ...       0.08 
freq.     734.51  E(vib)   ...       0.06 
freq.     873.79  E(vib)   ...       0.04 
freq.     968.52  E(vib)   ...       0.03 
freq.    1045.60  E(vib)   ...       0.02 
freq.    1065.84  E(vib)   ...       0.02 
freq.    1079.04  E(vib)   ...       0.02 
freq.    1086.86  E(vib)   ...       0.02 
freq.    1113.52  E(vib)   ...       0.01 
freq.    1144.23  E(vib)   ...       0.01 
freq.    1146.28  E(vib)   ...       0.01 
freq.    1183.26  E(vib)   ...       0.01 
freq.    1256.27  E(vib)   ...       0.01 
freq.    1389.10  E(vib)   ...       0.00 
freq.    1397.23  E(vib)   ...       0.00 
freq.    1413.48  E(vib)   ...       0.00 
freq.    1420.84  E(vib)   ...       0.00 
freq.    1430.02  E(vib)   ...       0.00 
freq.    1437.80  E(vib)   ...       0.00 
freq.    1439.77  E(vib)   ...       0.00 
freq.    1442.99  E(vib)   ...       0.00 
freq.    1450.18  E(vib)   ...       0.00 
freq.    1451.25  E(vib)   ...       0.00 
freq.    1452.45  E(vib)   ...       0.00 
freq.    1453.98  E(vib)   ...       0.00 
freq.    1478.38  E(vib)   ...       0.00 
freq.    1487.96  E(vib)   ...       0.00 
freq.    1491.20  E(vib)   ...       0.00 
freq.    1498.98  E(vib)   ...       0.00 
freq.    1762.29  E(vib)   ...       0.00 
freq.    3061.62  E(vib)   ...       0.00 
freq.    3062.69  E(vib)   ...       0.00 
freq.    3070.01  E(vib)   ...       0.00 
freq.    3071.23  E(vib)   ...       0.00 
freq.    3148.09  E(vib)   ...       0.00 
freq.    3148.49  E(vib)   ...       0.00 
freq.    3164.20  E(vib)   ...       0.00 
freq.    3164.26  E(vib)   ...       0.00 
freq.    3185.09  E(vib)   ...       0.00 
freq.    3186.08  E(vib)   ...       0.00 
freq.    3211.04  E(vib)   ...       0.00 
freq.    3211.32  E(vib)   ...       0.00 

------------
INNER ENERGY
------------

The inner energy is: U= E(el) + E(ZPE) + E(vib) + E(rot) + E(trans)
    E(el)   - is the total energy from the electronic structure calculation
              = E(kin-el) + E(nuc-el) + E(el-el) + E(nuc-nuc)
    E(ZPE)  - the the zero temperature vibrational energy from the frequency calculation
    E(vib)  - the the finite temperature correction to E(ZPE) due to population
              of excited vibrational states
    E(rot)  - is the rotational thermal energy
    E(trans)- is the translational thermal energy

Summary of contributions to the inner energy U:
Electronic energy                ...   -383.08080218 Eh
Zero point energy                ...      0.18400050 Eh     115.46 kcal/mol
Thermal vibrational correction   ...      0.00723812 Eh       4.54 kcal/mol
Thermal rotational correction    ...      0.00141627 Eh       0.89 kcal/mol
Thermal translational correction ...      0.00141627 Eh       0.89 kcal/mol
-----------------------------------------------------------------------
Total thermal energy                   -382.88673102 Eh


Summary of corrections to the electronic energy:
(perhaps to be used in another calculation)
Total thermal correction                  0.01007066 Eh       6.32 kcal/mol
Non-thermal (ZPE) correction              0.18400050 Eh     115.46 kcal/mol
-----------------------------------------------------------------------
Total correction                          0.19407116 Eh     121.78 kcal/mol


--------
ENTHALPY
--------

The enthalpy is H = U + kB*T
                kB is Boltzmann's constant
Total free energy                 ...   -382.88673102 Eh 
Thermal Enthalpy correction       ...      0.00094421 Eh       0.59 kcal/mol
-----------------------------------------------------------------------
Total Enthalpy                    ...   -382.88578681 Eh


Note: Only C1 symmetry has been detected, increase convergence thresholds 
      if your molecule has a higher symmetry. Symmetry factor of 1.0 is   
      used for the rotational entropy correction. 
 

Note: Rotational entropy computed according to Herzberg 
Infrared and Raman Spectra, Chapter V,1, Van Nostrand Reinhold, 1945 
Point Group:  C1, Symmetry Number:   1  
Rotational constants in cm-1:     0.082643     0.050984     0.032306 

Vibrational entropy computed according to the QRRHO of S. Grimme
Chem.Eur.J. 2012 18 9955


-------
ENTROPY
-------

The entropy contributions are T*S = T*(S(el)+S(vib)+S(rot)+S(trans))
     S(el)   - electronic entropy
     S(vib)  - vibrational entropy
     S(rot)  - rotational entropy
     S(trans)- translational entropy
The entropies will be listed as multiplied by the temperature to get
units of energy

Electronic entropy                ...      0.00000000 Eh      0.00 kcal/mol
Vibrational entropy               ...      0.01251800 Eh      7.86 kcal/mol
Rotational entropy                ...      0.01371334 Eh      8.61 kcal/mol
Translational entropy             ...      0.01917803 Eh     12.03 kcal/mol
-----------------------------------------------------------------------
Final entropy term                ...      0.04540938 Eh     28.49 kcal/mol

In case the symmetry of your molecule has not been determined correctly
or in case you have a reason to use a different symmetry number we print 
out the resulting rotational entropy values for sn=1,12 :
 --------------------------------------------------------
|  sn= 1 | S(rot)=       0.01371334 Eh      8.61 kcal/mol|
|  sn= 2 | S(rot)=       0.01305889 Eh      8.19 kcal/mol|
|  sn= 3 | S(rot)=       0.01267606 Eh      7.95 kcal/mol|
|  sn= 4 | S(rot)=       0.01240443 Eh      7.78 kcal/mol|
|  sn= 5 | S(rot)=       0.01219374 Eh      7.65 kcal/mol|
|  sn= 6 | S(rot)=       0.01202160 Eh      7.54 kcal/mol|
|  sn= 7 | S(rot)=       0.01187605 Eh      7.45 kcal/mol|
|  sn= 8 | S(rot)=       0.01174997 Eh      7.37 kcal/mol|
|  sn= 9 | S(rot)=       0.01163877 Eh      7.30 kcal/mol|
|  sn=10 | S(rot)=       0.01153929 Eh      7.24 kcal/mol|
|  sn=11 | S(rot)=       0.01144930 Eh      7.18 kcal/mol|
|  sn=12 | S(rot)=       0.01136714 Eh      7.13 kcal/mol|
 --------------------------------------------------------


-------------------
GIBBS FREE ENERGY
-------------------

The Gibbs free energy is G = H - T*S

Total enthalpy                    ...   -382.88578681 Eh 
Total entropy correction          ...     -0.04540938 Eh    -28.49 kcal/mol
-----------------------------------------------------------------------
Final Gibbs free energy         ...   -382.93119619 Eh

For completeness - the Gibbs free energy minus the electronic energy
G-E(el)                           ...      0.14960599 Eh     93.88 kcal/mol


Timings for individual modules:

Sum of individual times         ...    10886.493 sec (= 181.442 min)
GTO integral calculation        ...       15.023 sec (=   0.250 min)   0.1 %
SCF iterations                  ...     7411.484 sec (= 123.525 min)  68.1 %
SCF Gradient evaluation         ...     2683.298 sec (=  44.722 min)  24.6 %
Geometry relaxation             ...        3.203 sec (=   0.053 min)   0.0 %
Analytical frequency calculation...      773.485 sec (=  12.891 min)   7.1 %
                             ****ORCA TERMINATED NORMALLY****
TOTAL RUN TIME: 0 days 3 hours 1 minutes 33 seconds 762 msec
