
                                 *****************
                                 * O   R   C   A *
                                 *****************

                                            #,                                       
                                            ###                                      
                                            ####                                     
                                            #####                                    
                                            ######                                   
                                           ########,                                 
                                     ,,################,,,,,                         
                               ,,#################################,,                 
                          ,,##########################################,,             
                       ,#########################################, ''#####,          
                    ,#############################################,,   '####,        
                  ,##################################################,,,,####,       
                ,###########''''           ''''###############################       
              ,#####''   ,,,,##########,,,,          '''####'''          '####       
            ,##' ,,,,###########################,,,                        '##       
           ' ,,###''''                  '''############,,,                           
         ,,##''                                '''############,,,,        ,,,,,,###''
      ,#''                                            '''#######################'''  
     '                                                          ''''####''''         
             ,#######,   #######,   ,#######,      ##                                
            ,#'     '#,  ##    ##  ,#'     '#,    #''#        ######   ,####,        
            ##       ##  ##   ,#'  ##            #'  '#       #        #'  '#        
            ##       ##  #######   ##           ,######,      #####,   #    #        
            '#,     ,#'  ##    ##  '#,     ,#' ,#      #,         ##   #,  ,#        
             '#######'   ##     ##  '#######'  #'      '#     #####' # '####'        



                  #######################################################
                  #                        -***-                        #
                  #          Department of theory and spectroscopy      #
                  #    Directorship and core code : Frank Neese         #
                  #        Max Planck Institute fuer Kohlenforschung    #
                  #                Kaiser Wilhelm Platz 1               #
                  #                 D-45470 Muelheim/Ruhr               #
                  #                      Germany                        #
                  #                                                     #
                  #                  All rights reserved                #
                  #                        -***-                        #
                  #######################################################


                         Program Version 5.0.4 -  RELEASE  -


 With contributions from (in alphabetic order):
   Daniel Aravena         : Magnetic Suceptibility
   Michael Atanasov       : Ab Initio Ligand Field Theory (pilot matlab implementation)
   Alexander A. Auer      : GIAO ZORA, VPT2 properties, NMR spectrum
   Ute Becker             : Parallelization
   Giovanni Bistoni       : ED, misc. LED, open-shell LED, HFLD
   Martin Brehm           : Molecular dynamics
   Dmytro Bykov           : SCF Hessian
   Vijay G. Chilkuri      : MRCI spin determinant printing, contributions to CSF-ICE
   Dipayan Datta          : RHF DLPNO-CCSD density
   Achintya Kumar Dutta   : EOM-CC, STEOM-CC
   Dmitry Ganyushin       : Spin-Orbit,Spin-Spin,Magnetic field MRCI
   Miquel Garcia          : C-PCM and meta-GGA Hessian, CC/C-PCM, Gaussian charge scheme
   Yang Guo               : DLPNO-NEVPT2, F12-NEVPT2, CIM, IAO-localization
   Andreas Hansen         : Spin unrestricted coupled pair/coupled cluster methods
   Benjamin Helmich-Paris : MC-RPA, TRAH-SCF, COSX integrals
   Lee Huntington         : MR-EOM, pCC
   Robert Izsak           : Overlap fitted RIJCOSX, COSX-SCS-MP3, EOM
   Marcus Kettner         : VPT2
   Christian Kollmar      : KDIIS, OOCD, Brueckner-CCSD(T), CCSD density, CASPT2, CASPT2-K
   Simone Kossmann        : Meta GGA functionals, TD-DFT gradient, OOMP2, MP2 Hessian
   Martin Krupicka        : Initial AUTO-CI
   Lucas Lang             : DCDCAS
   Marvin Lechner         : AUTO-CI (C++ implementation), FIC-MRCC
   Dagmar Lenk            : GEPOL surface, SMD
   Dimitrios Liakos       : Extrapolation schemes; Compound Job, initial MDCI parallelization
   Dimitrios Manganas     : Further ROCIS development; embedding schemes
   Dimitrios Pantazis     : SARC Basis sets
   Anastasios Papadopoulos: AUTO-CI, single reference methods and gradients
   Taras Petrenko         : DFT Hessian,TD-DFT gradient, ASA, ECA, R-Raman, ABS, FL, XAS/XES, NRVS
   Peter Pinski           : DLPNO-MP2, DLPNO-MP2 Gradient
   Christoph Reimann      : Effective Core Potentials
   Marius Retegan         : Local ZFS, SOC
   Christoph Riplinger    : Optimizer, TS searches, QM/MM, DLPNO-CCSD(T), (RO)-DLPNO pert. Triples
   Tobias Risthaus        : Range-separated hybrids, TD-DFT gradient, RPA, STAB
   Michael Roemelt        : Original ROCIS implementation
   Masaaki Saitow         : Open-shell DLPNO-CCSD energy and density
   Barbara Sandhoefer     : DKH picture change effects
   Avijit Sen             : IP-ROCIS
   Kantharuban Sivalingam : CASSCF convergence, NEVPT2, FIC-MRCI
   Bernardo de Souza      : ESD, SOC TD-DFT
   Georgi Stoychev        : AutoAux, RI-MP2 NMR, DLPNO-MP2 response
   Willem Van den Heuvel  : Paramagnetic NMR
   Boris Wezisla          : Elementary symmetry handling
   Frank Wennmohs         : Technical directorship


 We gratefully acknowledge several colleagues who have allowed us to
 interface, adapt or use parts of their codes:
   Stefan Grimme, W. Hujo, H. Kruse, P. Pracht,  : VdW corrections, initial TS optimization,
                  C. Bannwarth, S. Ehlert          DFT functionals, gCP, sTDA/sTD-DF
   Ed Valeev, F. Pavosevic, A. Kumar             : LibInt (2-el integral package), F12 methods
   Garnet Chan, S. Sharma, J. Yang, R. Olivares  : DMRG
   Ulf Ekstrom                                   : XCFun DFT Library
   Mihaly Kallay                                 : mrcc  (arbitrary order and MRCC methods)
   Jiri Pittner, Ondrej Demel                    : Mk-CCSD
   Frank Weinhold                                : gennbo (NPA and NBO analysis)
   Christopher J. Cramer and Donald G. Truhlar   : smd solvation model
   Lars Goerigk                                  : TD-DFT with DH, B97 family of functionals
   V. Asgeirsson, H. Jonsson                     : NEB implementation
   FAccTs GmbH                                   : IRC, NEB, NEB-TS, DLPNO-Multilevel, CI-OPT
                                                   MM, QMMM, 2- and 3-layer-ONIOM, Crystal-QMMM,
                                                   LR-CPCM, SF, NACMEs, symmetry and pop. for TD-DFT,
                                                   nearIR, NL-DFT gradient (VV10), updates on ESD,
                                                   ML-optimized integration grids
   S Lehtola, MJT Oliveira, MAL Marques          : LibXC Library
   Liviu Ungur et al                             : ANISO software


 Your calculation uses the libint2 library for the computation of 2-el integrals
 For citations please refer to: http://libint.valeyev.net

 Your ORCA version has been built with support for libXC version: 5.1.0
 For citations please refer to: https://tddft.org/programs/libxc/

 This ORCA versions uses:
   CBLAS   interface :  Fast vector & matrix operations
   LAPACKE interface :  Fast linear algebra routines
   SCALAPACK package :  Parallel linear algebra routines
   Shared memory     :  Shared parallel matrices
   BLAS/LAPACK       :  OpenBLAS 0.3.15  USE64BITINT DYNAMIC_ARCH NO_AFFINITY SkylakeX SINGLE_THREADED
        Core in use  :  SkylakeX
   Copyright (c) 2011-2014, The OpenBLAS Project




***************************************
The coordinates will be read from file: 2_deprot_aq_1.xyz
***************************************


Your calculation utilizes the atom-pairwise dispersion correction
based on tight binding partial charges (D4)
Cite in your paper:
E.Caldeweyher, C.Bannwarth, S.Grimme, J.Chem.Phys., (2017), 147, 034112.
E.Caldeweyher, S.Ehlert, A.Hansen, H.Neugebauer, S.Grimme, J.Chem.Phys., (2018), in progress.
   

XCFun DFT library Copyright 2009-2010 Ulf Ekstrom and contributors.
See http://admol.org/xcfun for more information.
This is free software; see the source code for copying conditions.
There is ABSOLUTELY NO WARRANTY; not even for MERCHANTABILITY or FITNESS FOR A PARTICULAR PURPOSE.
For details see the documentation.
Scientific users of this library should cite U. Ekstrom, L. Visscher, R. Bast, A. J. Thorvaldsen and K. Ruud;
J.Chem.Theor.Comp. 2010, DOI: 10.1021/ct100117s
XCFun Version 0.99 

================================================================================

----- Orbital basis set information -----
Your calculation utilizes the basis: def2-SVP
   F. Weigend and R. Ahlrichs, Phys. Chem. Chem. Phys. 7, 3297 (2005).

----- AuxJ basis set information -----
Your calculation utilizes the auxiliary basis: def2/J
   F. Weigend, Phys. Chem. Chem. Phys. 8, 1057 (2006).

================================================================================
                                        WARNINGS
                       Please study these warnings very carefully!
================================================================================


WARNING: Geometry Optimization
  ===> : Switching off AutoStart
         For restart on a previous wavefunction, please use MOREAD

INFO   : the flag for use of the SHARK integral package has been found!

================================================================================
                                       INPUT FILE
================================================================================
NAME = 2_deprot_aq_1.inp
|  1> # ORCA 5.0.4 - /users/bwb16179/postgrad/2024_03/DFT_Crest_Conformers/Opt/deprot/2_deprot_aq_1.inp # write input file
|  2> # Basic Mode
|  3> #
|  4> ! Opt Freq wB97X Def2-SVP D4 SlowConv TightSCF Defgrid2 Def2/J RIJCOSX CPCM(Water)
|  5> 
|  6> 
|  7> 
|  8> %maxcore 4500
|  9> 
| 10> %geom
| 11> Maxiter 150
| 12> END
| 13> 
| 14> * xyzfile 0 1 2_deprot_aq_1.xyz
| 15> 
| 16>                          ****END OF INPUT****
================================================================================

                       *****************************
                       * Geometry Optimization Run *
                       *****************************

Geometry optimization settings:
Update method            Update   .... BFGS
Choice of coordinates    CoordSys .... Z-matrix Internals
Initial Hessian          InHess   .... Almoef's Model

Convergence Tolerances:
Energy Change            TolE     ....  5.0000e-06 Eh
Max. Gradient            TolMAXG  ....  3.0000e-04 Eh/bohr
RMS Gradient             TolRMSG  ....  1.0000e-04 Eh/bohr
Max. Displacement        TolMAXD  ....  4.0000e-03 bohr
RMS Displacement         TolRMSD  ....  2.0000e-03 bohr
Strict Convergence                ....  False
------------------------------------------------------------------------------
                        ORCA OPTIMIZATION COORDINATE SETUP
------------------------------------------------------------------------------

The optimization will be done in new redundant internal coordinates
Making redundant internal coordinates   ...  (new redundants) done
Evaluating the initial hessian          ...  (Almloef) done
Evaluating the coordinates              ...  done
Calculating the B-matrix                .... done
Calculating the G-matrix                .... done
Diagonalizing the G-matrix              .... done
The first mode is                       ....   41
The number of degrees of freedom        ....   57

    -----------------------------------------------------------------
                    Redundant Internal Coordinates


    -----------------------------------------------------------------
         Definition                    Initial Value    Approx d2E/dq
    -----------------------------------------------------------------
      1. B(C   1,N   0)                  1.3563         0.633250   
      2. B(N   2,C   1)                  1.3563         0.633254   
      3. B(C   3,N   2)                  1.3824         0.575461   
      4. B(C   4,C   3)                  1.3599         0.697729   
      5. B(C   4,N   0)                  1.3824         0.575472   
      6. B(C   5,N   0)                  1.4326         0.478527   
      7. B(C   6,N   2)                  1.4326         0.478535   
      8. B(H   7,C   5)                  1.0883         0.362391   
      9. B(H   8,C   5)                  1.0934         0.355642   
     10. B(H   9,C   5)                  1.0934         0.355663   
     11. B(H  10,C   6)                  1.0883         0.362354   
     12. B(H  11,C   6)                  1.0934         0.355633   
     13. B(H  12,C   6)                  1.0934         0.355677   
     14. B(C  13,C   3)                  1.4863         0.438607   
     15. B(C  14,C   4)                  1.4863         0.438609   
     16. B(H  15,C  14)                  1.0909         0.358879   
     17. B(H  16,C  14)                  1.0869         0.364289   
     18. B(H  17,C  14)                  1.0909         0.358851   
     19. B(H  18,C  13)                  1.0909         0.358878   
     20. B(H  19,C  13)                  1.0909         0.358893   
     21. B(H  20,C  13)                  1.0868         0.364309   
     22. A(C   1,N   0,C   5)          123.3724         0.410621   
     23. A(C   4,N   0,C   5)          124.3423         0.403731   
     24. A(C   1,N   0,C   4)          112.2853         0.424334   
     25. A(N   0,C   1,N   2)          103.2379         0.431676   
     26. A(C   3,N   2,C   6)          124.3400         0.403731   
     27. A(C   1,N   2,C   6)          123.3749         0.410623   
     28. A(C   1,N   2,C   3)          112.2851         0.424333   
     29. A(N   2,C   3,C  13)          122.5430         0.400146   
     30. A(C   4,C   3,C  13)          131.3612         0.416710   
     31. A(N   2,C   3,C   4)          106.0958         0.434618   
     32. A(N   0,C   4,C   3)          106.0959         0.434619   
     33. A(N   0,C   4,C  14)          122.5477         0.400147   
     34. A(C   3,C   4,C  14)          131.3564         0.416711   
     35. A(H   8,C   5,H   9)          108.5525         0.289707   
     36. A(H   7,C   5,H   9)          109.1883         0.290563   
     37. A(N   0,C   5,H   9)          111.0134         0.335143   
     38. A(H   7,C   5,H   8)          109.1820         0.290560   
     39. A(N   0,C   5,H   8)          111.0113         0.335140   
     40. A(N   0,C   5,H   7)          107.8607         0.336189   
     41. A(H  10,C   6,H  11)          109.1838         0.290554   
     42. A(N   2,C   6,H  11)          111.0111         0.335139   
     43. A(H  11,C   6,H  12)          108.5504         0.289708   
     44. A(H  10,C   6,H  12)          109.1888         0.290560   
     45. A(N   2,C   6,H  12)          111.0116         0.335146   
     46. A(N   2,C   6,H  10)          107.8627         0.336184   
     47. A(H  19,C  13,H  20)          108.4855         0.291217   
     48. A(H  18,C  13,H  20)          108.4843         0.291215   
     49. A(C   3,C  13,H  20)          110.2051         0.333666   
     50. A(H  18,C  13,H  19)          107.9722         0.290531   
     51. A(C   3,C  13,H  19)          110.8071         0.332838   
     52. A(C   3,C  13,H  18)          110.8042         0.332836   
     53. A(H  16,C  14,H  17)          108.4839         0.291209   
     54. A(H  15,C  14,H  17)          107.9717         0.290526   
     55. A(C   4,C  14,H  17)          110.8072         0.332832   
     56. A(H  15,C  14,H  16)          108.4859         0.291213   
     57. A(C   4,C  14,H  16)          110.2026         0.333664   
     58. A(C   4,C  14,H  15)          110.8070         0.332836   
     59. D(N   2,C   1,N   0,C   4)      0.0046         0.029514   
     60. D(N   2,C   1,N   0,C   5)    179.9871         0.029514   
     61. D(C   3,N   2,C   1,N   0)     -0.0037         0.029514   
     62. D(C   6,N   2,C   1,N   0)    179.9800         0.029514   
     63. D(C  13,C   3,N   2,C   1)   -179.9924         0.026534   
     64. D(C   4,C   3,N   2,C   6)   -179.9820         0.026534   
     65. D(C  13,C   3,N   2,C   6)      0.0240         0.026534   
     66. D(C   4,C   3,N   2,C   1)      0.0015         0.026534   
     67. D(N   0,C   4,C   3,C  13)    179.9945         0.034268   
     68. D(N   0,C   4,C   3,N   2)      0.0014         0.034268   
     69. D(C  14,C   4,N   0,C   5)      0.0255         0.026535   
     70. D(C   3,C   4,N   0,C   5)   -179.9861         0.026535   
     71. D(C  14,C   4,N   0,C   1)   -179.9922         0.026535   
     72. D(C  14,C   4,C   3,N   2)    179.9883         0.034268   
     73. D(C  14,C   4,C   3,C  13)     -0.0186         0.034268   
     74. D(C   3,C   4,N   0,C   1)     -0.0039         0.026535   
     75. D(H   9,C   5,N   0,C   4)    -60.3606         0.019583   
     76. D(H   9,C   5,N   0,C   1)    119.6591         0.019583   
     77. D(H   8,C   5,N   0,C   4)     60.4805         0.019583   
     78. D(H   8,C   5,N   0,C   1)   -119.4998         0.019583   
     79. D(H   7,C   5,N   0,C   4)   -179.9445         0.019583   
     80. D(H   7,C   5,N   0,C   1)      0.0752         0.019583   
     81. D(H  12,C   6,N   2,C   3)    -60.4353         0.019583   
     82. D(H  12,C   6,N   2,C   1)    119.5829         0.019583   
     83. D(H  11,C   6,N   2,C   3)     60.4017         0.019583   
     84. D(H  11,C   6,N   2,C   1)   -119.5801         0.019583   
     85. D(H  10,C   6,N   2,C   3)    179.9800         0.019583   
     86. D(H  10,C   6,N   2,C   1)     -0.0018         0.019583   
     87. D(H  19,C  13,C   3,N   2)    -59.8660         0.014197   
     88. D(H  18,C  13,C   3,C   4)   -120.0243         0.014197   
     89. D(H  18,C  13,C   3,N   2)     59.9680         0.014197   
     90. D(H  20,C  13,C   3,C   4)      0.0571         0.014197   
     91. D(H  20,C  13,C   3,N   2)   -179.9507         0.014197   
     92. D(H  19,C  13,C   3,C   4)    120.1418         0.014197   
     93. D(H  17,C  14,C   4,C   3)   -119.9812         0.014197   
     94. D(H  17,C  14,C   4,N   0)     60.0039         0.014197   
     95. D(H  16,C  14,C   4,C   3)      0.1000         0.014197   
     96. D(H  16,C  14,C   4,N   0)   -179.9149         0.014197   
     97. D(H  15,C  14,C   4,C   3)    120.1835         0.014197   
     98. D(H  15,C  14,C   4,N   0)    -59.8314         0.014197   
    -----------------------------------------------------------------

Number of atoms                         .... 21
Number of degrees of freedom            .... 98

         *************************************************************
         *                GEOMETRY OPTIMIZATION CYCLE   1            *
         *************************************************************
---------------------------------
CARTESIAN COORDINATES (ANGSTROEM)
---------------------------------
  N     -1.063260   -0.666450    0.000053
  C     -0.000042   -1.508608   -0.000055
  N      1.063208   -0.666493   -0.000073
  C      0.679971    0.661714   -0.000061
  C     -0.679975    0.661737   -0.000001
  C     -2.423837   -1.114979   -0.000160
  C      2.423782   -1.115016    0.000239
  H     -2.416530   -2.203228    0.000949
  H     -2.953454   -0.760176   -0.888487
  H     -2.954395   -0.758266    0.886819
  H      2.416518   -2.203293    0.000508
  H      2.953720   -0.759035    0.887912
  H      2.954003   -0.759398   -0.887369
  C      1.662152    1.777263   -0.000243
  C     -1.662022    1.777402    0.000266
  H     -2.302963    1.729697   -0.881230
  H     -1.144390    2.733070   -0.001345
  H     -2.300560    1.731403    0.883622
  H      2.301143    1.730772   -0.883219
  H      2.302600    1.729839    0.881614
  H      1.144681    2.733001    0.000679

----------------------------
CARTESIAN COORDINATES (A.U.)
----------------------------
  NO LB      ZA    FRAG     MASS         X           Y           Z
   0 N     7.0000    0    14.007   -2.009270   -1.259408    0.000101
   1 C     6.0000    0    12.011   -0.000079   -2.850857   -0.000105
   2 N     7.0000    0    14.007    2.009172   -1.259489   -0.000137
   3 C     6.0000    0    12.011    1.284959    1.250457   -0.000116
   4 C     6.0000    0    12.011   -1.284967    1.250502   -0.000002
   5 C     6.0000    0    12.011   -4.580388   -2.107006   -0.000302
   6 C     6.0000    0    12.011    4.580285   -2.107074    0.000452
   7 H     1.0000    0     1.008   -4.566580   -4.163498    0.001793
   8 H     1.0000    0     1.008   -5.581219   -1.436525   -1.678997
   9 H     1.0000    0     1.008   -5.582997   -1.432916    1.675846
  10 H     1.0000    0     1.008    4.566558   -4.163620    0.000961
  11 H     1.0000    0     1.008    5.581722   -1.434369    1.677911
  12 H     1.0000    0     1.008    5.582256   -1.435054   -1.676884
  13 C     6.0000    0    12.011    3.141013    3.358540   -0.000459
  14 C     6.0000    0    12.011   -3.140767    3.358804    0.000503
  15 H     1.0000    0     1.008   -4.351970    3.268653   -1.665283
  16 H     1.0000    0     1.008   -2.162584    5.164754   -0.002543
  17 H     1.0000    0     1.008   -4.347429    3.271878    1.669803
  18 H     1.0000    0     1.008    4.348530    3.270685   -1.669043
  19 H     1.0000    0     1.008    4.351284    3.268923    1.666008
  20 H     1.0000    0     1.008    2.163133    5.164624    0.001282

--------------------------------
INTERNAL COORDINATES (ANGSTROEM)
--------------------------------
 N      0   0   0     0.000000000000     0.00000000     0.00000000
 C      1   0   0     1.356341729386     0.00000000     0.00000000
 N      2   1   0     1.356340095683   103.23786690     0.00000000
 C      3   2   1     1.382390361115   112.28512927     0.00000000
 C      4   3   2     1.359946511553   106.09581001     0.00000000
 C      1   2   3     1.432602046274   123.37242367   179.98707323
 C      3   2   1     1.432597373514   123.37489916   179.98002061
 H      6   1   2     1.088274003670   107.86067368     0.07522250
 H      6   1   2     1.093391149354   111.01133066   240.50022359
 H      6   1   2     1.093374784769   111.01340120   119.65908241
 H      7   3   2     1.088301305160   107.86273963     0.00000000
 H      7   3   2     1.093398019766   111.01114489   240.41990150
 H      7   3   2     1.093364529211   111.01155140   119.58288161
 C      4   3   2     1.486314340852   122.54301084   180.00760988
 C      5   4   3     1.486312632508   131.35635936   179.98827699
 H     15   5   4     1.090924628496   110.80699683   120.18352191
 H     15   5   4     1.086851696048   110.20264048     0.09998312
 H     15   5   4     1.090946081165   110.80715187   240.01877831
 H     14   4   3     1.090925218188   110.80417789    59.96795797
 H     14   4   3     1.090913995492   110.80709199   300.13401468
 H     14   4   3     1.086836698503   110.20507116   180.04931898

---------------------------
INTERNAL COORDINATES (A.U.)
---------------------------
 N      0   0   0     0.000000000000     0.00000000     0.00000000
 C      1   0   0     2.563114412549     0.00000000     0.00000000
 N      2   1   0     2.563111325298   103.23786690     0.00000000
 C      3   2   1     2.612339192680   112.28512927     0.00000000
 C      4   3   2     2.569926463617   106.09581001     0.00000000
 C      1   2   3     2.707225526354   123.37242367   179.98707323
 C      3   2   1     2.707216696116   123.37489916   179.98002061
 H      6   1   2     2.056539825603   107.86067368     0.07522250
 H      6   1   2     2.066209829533   111.01133066   240.50022359
 H      6   1   2     2.066178904948   111.01340120   119.65908241
 H      7   3   2     2.056591417941   107.86273963     0.00000000
 H      7   3   2     2.066222812729   111.01114489   240.41990150
 H      7   3   2     2.066159524752   111.01155140   119.58288161
 C      4   3   2     2.808727053129   122.54301084   180.00760988
 C      5   4   3     2.808723824827   131.35635936   179.98827699
 H     15   5   4     2.061548780608   110.80699683   120.18352191
 H     15   5   4     2.053852053719   110.20264048     0.09998312
 H     15   5   4     2.061589320276   110.80715187   240.01877831
 H     14   4   3     2.061549894964   110.80417789    59.96795797
 H     14   4   3     2.061528687141   110.80709199   300.13401468
 H     14   4   3     2.053823712466   110.20507116   180.04931898

---------------------
BASIS SET INFORMATION
---------------------
There are 3 groups of distinct atoms

 Group   1 Type N   : 7s4p1d contracted to 3s2p1d pattern {511/31/1}
 Group   2 Type C   : 7s4p1d contracted to 3s2p1d pattern {511/31/1}
 Group   3 Type H   : 4s1p contracted to 2s1p pattern {31/1}

Atom   0N    basis set group =>   1
Atom   1C    basis set group =>   2
Atom   2N    basis set group =>   1
Atom   3C    basis set group =>   2
Atom   4C    basis set group =>   2
Atom   5C    basis set group =>   2
Atom   6C    basis set group =>   2
Atom   7H    basis set group =>   3
Atom   8H    basis set group =>   3
Atom   9H    basis set group =>   3
Atom  10H    basis set group =>   3
Atom  11H    basis set group =>   3
Atom  12H    basis set group =>   3
Atom  13C    basis set group =>   2
Atom  14C    basis set group =>   2
Atom  15H    basis set group =>   3
Atom  16H    basis set group =>   3
Atom  17H    basis set group =>   3
Atom  18H    basis set group =>   3
Atom  19H    basis set group =>   3
Atom  20H    basis set group =>   3
---------------------------------
AUXILIARY/J BASIS SET INFORMATION
---------------------------------
There are 3 groups of distinct atoms

 Group   1 Type N   : 12s5p4d2f1g contracted to 6s4p3d1f1g pattern {711111/2111/211/2/1}
 Group   2 Type C   : 12s5p4d2f1g contracted to 6s4p3d1f1g pattern {711111/2111/211/2/1}
 Group   3 Type H   : 5s2p1d contracted to 3s1p1d pattern {311/2/1}

Atom   0N    basis set group =>   1
Atom   1C    basis set group =>   2
Atom   2N    basis set group =>   1
Atom   3C    basis set group =>   2
Atom   4C    basis set group =>   2
Atom   5C    basis set group =>   2
Atom   6C    basis set group =>   2
Atom   7H    basis set group =>   3
Atom   8H    basis set group =>   3
Atom   9H    basis set group =>   3
Atom  10H    basis set group =>   3
Atom  11H    basis set group =>   3
Atom  12H    basis set group =>   3
Atom  13C    basis set group =>   2
Atom  14C    basis set group =>   2
Atom  15H    basis set group =>   3
Atom  16H    basis set group =>   3
Atom  17H    basis set group =>   3
Atom  18H    basis set group =>   3
Atom  19H    basis set group =>   3
Atom  20H    basis set group =>   3
------------------------------------------------------------------------------
                           ORCA GTO INTEGRAL CALCULATION
                           -- RI-GTO INTEGRALS CHOSEN --
------------------------------------------------------------------------------
------------------------------------------------------------------------------
                   ___                                                        
                  /   \      - P O W E R E D   B Y -                         
                 /     \                                                     
                 |  |  |   _    _      __       _____    __    __             
                 |  |  |  | |  | |    /  \     |  _  \  |  |  /  |          
                  \  \/   | |  | |   /    \    | | | |  |  | /  /          
                 / \  \   | |__| |  /  /\  \   | |_| |  |  |/  /          
                |  |  |   |  __  | /  /__\  \  |    /   |      \           
                |  |  |   | |  | | |   __   |  |    \   |  |\   \          
                \     /   | |  | | |  |  |  |  | |\  \  |  | \   \       
                 \___/    |_|  |_| |__|  |__|  |_| \__\ |__|  \__/        
                                                                              
                      - O R C A' S   B I G   F R I E N D -                    
                                      &                                       
                       - I N T E G R A L  F E E D E R -                       
                                                                              
 v1 FN, 2020, v2 2021                                                         
------------------------------------------------------------------------------


Reading SHARK input file 2_deprot_aq_1.SHARKINP.tmp ... ok
----------------------
SHARK INTEGRAL PACKAGE
----------------------

Number of atoms                             ...     21
Number of basis functions                   ...    186
Number of shells                            ...     90
Maximum angular momentum                    ...      2
Integral batch strategy                     ... SHARK/LIBINT Hybrid
RI-J (if used) integral strategy            ... SPLIT-RIJ (Revised 2003 algorithm where possible)
Printlevel                                  ...      1
Contraction scheme used                     ... SEGMENTED contraction
Coulomb Range Separation                    ... NOT USED
Exchange Range Separation                   ... Long Range
   Mu parameter                             ...  0.300000
   Scaling (regular/separated)              ...  0.157706  0.842294
Finite Nucleus Model                        ... NOT USED
Auxiliary Coulomb fitting basis             ... AVAILABLE
   # of basis functions in Aux-J            ...    573
   # of shells in Aux-J                     ...    195
   Maximum angular momentum in Aux-J        ...      4
Auxiliary J/K fitting basis                 ... NOT available
Auxiliary Correlation fitting basis         ... NOT available
Auxiliary 'external' fitting basis          ... NOT available
Integral threshold                          ...     2.500000e-11
Primitive cut-off                           ...     2.500000e-12
Primitive pair pre-selection threshold      ...     2.500000e-12

Calculating pre-screening integrals         ... done (  0.0 sec) Dimension = 90
Organizing shell pair data                  ... done (  0.0 sec)
Shell pair information
Total number of shell pairs                 ...      4095
Shell pairs after pre-screening             ...      3795
Total number of primitive shell pairs       ...     14349
Primitive shell pairs kept                  ...      9751
          la=0 lb=0:   1251 shell pairs
          la=1 lb=0:   1404 shell pairs
          la=1 lb=1:    418 shell pairs
          la=2 lb=0:    427 shell pairs
          la=2 lb=1:    252 shell pairs
          la=2 lb=2:     43 shell pairs

Calculating one electron integrals          ... done (  0.0 sec)
Calculating RI/J V-Matrix + Cholesky decomp.... done (  0.0 sec)
Calculating Nuclear repulsion               ... done (  0.0 sec) ENN=    462.533982673942 Eh

SHARK setup successfully completed in   0.2 seconds

Maximum memory used throughout the entire GTOINT-calculation: 26.5 MB
-------------------------------------------------------------------------------
                                 ORCA SCF
-------------------------------------------------------------------------------

------------
SCF SETTINGS
------------
Hamiltonian:
 Density Functional     Method          .... DFT(GTOs)
 Exchange Functional    Exchange        .... WB97X
 Correlation Functional Correlation     .... WB97X
 Gradients option       PostSCFGGA      .... off
 Hybrid DFT is turned on
   Fraction HF Exchange ScalHFX         ....  0.157706
   Scaling of DF-GGA-X  ScalDFX         ....  0.000000
   Scaling of DF-GGA-C  ScalDFC         ....  1.000000
   Scaling of DF-LDA-C  ScalLDAC        ....  1.000000
   Perturbative correction              ....  0.000000
   Density functional embedding theory  .... OFF
 Long-range corrected/Screened/Range-Separated Hybrid DFT is turned on
   Amount of maximum screened exact exchange              ....  0.842294
   Range separation parameter mu (erf(mu*r12)/r12)        ....  0.300000
 RI-approximation to the Coulomb term is turned on
   Number of AuxJ basis functions       .... 573
   RIJ-COSX (HFX calculated with COS-X)).... on


General Settings:
 Integral files         IntName         .... 2_deprot_aq_1
 Hartree-Fock type      HFTyp           .... RHF
 Total Charge           Charge          ....    0
 Multiplicity           Mult            ....    1
 Number of Electrons    NEL             ....   68
 Basis Dimension        Dim             ....  186
 Nuclear Repulsion      ENuc            ....    462.5339826739 Eh

Convergence Acceleration:
 DIIS                   CNVDIIS         .... on
   Start iteration      DIISMaxIt       ....     0
   Startup error        DIISStart       ....  0.200000
   # of expansion vecs  DIISMaxEq       ....     5
   Bias factor          DIISBfac        ....   1.050
   Max. coefficient     DIISMaxC        ....  10.000
 Trust-Rad. Augm. Hess. CNVTRAH         .... auto
   Auto Start mean grad. ratio tolernc. ....  1.125000
   Auto Start start iteration           ....    20
   Auto Start num. interpolation iter.  ....    10
   Max. Number of Micro iterations      ....    16
   Max. Number of Macro iterations      .... Maxiter - #DIIS iter
   Number of Davidson start vectors     ....     2
   Converg. threshold I  (grad. norm)   ....   1.000e-05
   Converg. threshold II (energy diff.) ....   1.000e-08
   Grad. Scal. Fac. for Micro threshold ....   0.100
   Minimum threshold for Micro iter.    ....   0.010
   NR start threshold (gradient norm)   ....   0.001
   Initial trust radius                 ....   0.400
   Minimum AH scaling param. (alpha)    ....   1.000
   Maximum AH scaling param. (alpha)    .... 1000.000
   Orbital update algorithm             .... Taylor
   White noise on init. David. guess    .... on
   Maximum white noise                  ....   0.010
   Quad. conv. algorithm                .... NR
 SOSCF                  CNVSOSCF        .... on
   Start iteration      SOSCFMaxIt      ....   150
   Startup grad/error   SOSCFStart      ....  0.001000
 Level Shifting         CNVShift        .... on
   Level shift para.    LevelShift      ....    0.2500
   Turn off err/grad.   ShiftErr        ....    0.0000
 Zerner damping         CNVZerner       .... off
 Static damping         CNVDamp         .... on
   Fraction old density DampFac         ....    0.8500
   Max. Damping (<1)    DampMax         ....    0.9800
   Min. Damping (>=0)   DampMin         ....    0.0000
   Turn off err/grad.   DampErr         ....    0.0300
 Fernandez-Rico         CNVRico         .... off

SCF Procedure:
 Maximum # iterations   MaxIter         ....   125
 SCF integral mode      SCFMode         .... Direct
   Integral package                     .... SHARK and LIBINT hybrid scheme
 Reset frequency        DirectResetFreq ....    20
 Integral Threshold     Thresh          ....  2.500e-11 Eh
 Primitive CutOff       TCut            ....  2.500e-12 Eh

Convergence Tolerance:
 Convergence Check Mode ConvCheckMode   .... Total+1el-Energy
 Convergence forced     ConvForced      .... 0
 Energy Change          TolE            ....  1.000e-08 Eh
 1-El. energy change                    ....  1.000e-05 Eh
 Orbital Gradient       TolG            ....  1.000e-05
 Orbital Rotation angle TolX            ....  1.000e-05
 DIIS Error             TolErr          ....  5.000e-07


Diagonalization of the overlap matrix:
Smallest eigenvalue                        ... 8.802e-04
Time for diagonalization                   ...    0.006 sec
Threshold for overlap eigenvalues          ... 1.000e-08
Number of eigenvalues below threshold      ... 0
Time for construction of square roots      ...    0.003 sec
Total time needed                          ...    0.009 sec

Time for model grid setup =    0.370 sec

------------------------------
INITIAL GUESS: MODEL POTENTIAL
------------------------------
Loading Hartree-Fock densities                     ... done
Calculating cut-offs                               ... done
Initializing the effective Hamiltonian             ... done
Setting up the integral package (SHARK)            ... done
Starting the Coulomb interaction                   ... done (   0.3 sec)
Reading the grid                                   ... done
Mapping shells                                     ... done
Starting the XC term evaluation                    ... done (   0.4 sec)
  promolecular density results
     # of electrons  =     68.000322974
     EX              =    -52.480794735
     EC              =     -2.253847248
     EX+EC           =    -54.734641984
Transforming the Hamiltonian                       ... done (   0.0 sec)
Diagonalizing the Hamiltonian                      ... done (   0.0 sec)
Back transforming the eigenvectors                 ... done (   0.0 sec)
Now organizing SCF variables                       ... done
                      ------------------
                      INITIAL GUESS DONE (   1.1 sec)
                      ------------------
-------------------
DFT GRID GENERATION
-------------------

General Integration Accuracy     IntAcc      ... 4.388
Radial Grid Type                 RadialGrid  ... OptM3 with GC (2021)
Angular Grid (max. ang.)         AngularGrid ... 4 (Lebedev-302)
Angular grid pruning method      GridPruning ... 4 (adaptive)
Weight generation scheme         WeightScheme... Becke
Basis function cutoff            BFCut       ... 1.0000e-11
Integration weight cutoff        WCut        ... 1.0000e-14
Angular grids for H and He will be reduced by one unit
Partially contracted basis set               ... off
Rotationally invariant grid construction     ... off

Total number of grid points                  ...    92531
Total number of batches                      ...     1453
Average number of points per batch           ...       63
Average number of grid points per atom       ...     4406
Time for grid setup =    1.496 sec

--------------------
COSX GRID GENERATION
--------------------

GRIDX 1
-------
General Integration Accuracy     IntAcc      ... 3.816
Radial Grid Type                 RadialGrid  ... OptM3 with GC (2021)
Angular Grid (max. ang.)         AngularGrid ... 1 (Lebedev-50)
Angular grid pruning method      GridPruning ... 4 (adaptive)
Weight generation scheme         WeightScheme... Becke
Basis function cutoff            BFCut       ... 1.0000e-11
Integration weight cutoff        WCut        ... 1.0000e-14
Angular grids for H and He will be reduced by one unit
Partially contracted basis set               ... on
Rotationally invariant grid construction     ... off

Total number of grid points                  ...    11837
Total number of batches                      ...      198
Average number of points per batch           ...       59
Average number of grid points per atom       ...      564
UseSFitting                                  ... on

GRIDX 2
-------
General Integration Accuracy     IntAcc      ... 4.020
Radial Grid Type                 RadialGrid  ... OptM3 with GC (2021)
Angular Grid (max. ang.)         AngularGrid ... 2 (Lebedev-110)
Angular grid pruning method      GridPruning ... 4 (adaptive)
Weight generation scheme         WeightScheme... Becke
Basis function cutoff            BFCut       ... 1.0000e-11
Integration weight cutoff        WCut        ... 1.0000e-14
Angular grids for H and He will be reduced by one unit
Partially contracted basis set               ... on
Rotationally invariant grid construction     ... off

Total number of grid points                  ...    25057
Total number of batches                      ...      403
Average number of points per batch           ...       62
Average number of grid points per atom       ...     1193
UseSFitting                                  ... on

GRIDX 3
-------
General Integration Accuracy     IntAcc      ... 4.338
Radial Grid Type                 RadialGrid  ... OptM3 with GC (2021)
Angular Grid (max. ang.)         AngularGrid ... 3 (Lebedev-194)
Angular grid pruning method      GridPruning ... 4 (adaptive)
Weight generation scheme         WeightScheme... Becke
Basis function cutoff            BFCut       ... 1.0000e-11
Integration weight cutoff        WCut        ... 1.0000e-14
Angular grids for H and He will be reduced by one unit
Partially contracted basis set               ... on
Rotationally invariant grid construction     ... off

Total number of grid points                  ...    54797
Total number of batches                      ...      869
Average number of points per batch           ...       63
Average number of grid points per atom       ...     2609
UseSFitting                                  ... on

Time for X-Grid setup             =    1.941 sec


--------------------
CPCM SOLVATION MODEL
--------------------
CPCM parameters:
  Epsilon                                         ...      80.4000
  Refrac                                          ...       1.3300
  Rsolv                                           ...       1.3000
  Surface type                                    ... GAUSSIAN VDW
  Epsilon function type                           ...         CPCM
Radii:
 Radius for N  used is    3.5149 Bohr (=   1.8600 Ang.)
 Radius for C  used is    3.8550 Bohr (=   2.0400 Ang.)
 Radius for H  used is    2.4944 Bohr (=   1.3200 Ang.)
Calculating surface                               ...        done! (  0.0s)
GEPOL surface points                              ...         1153
GEPOL Volume                                      ...    1162.2432
GEPOL Surface-area                                ...     659.1165
Calculating surface distance matrix               ...        done! (  0.0s)
Performing Cholesky decomposition & store         ...        done! (  0.1s)
Overall time for CPCM initialization              ...                 0.1s
--------------
SCF ITERATIONS
--------------
ITER       Energy         Delta-E        Max-DP      RMS-DP      [F,P]     Damp
               ***  Starting incremental Fock matrix formation  ***
  0   -382.8939166577   0.000000000000 0.03907182  0.00082580  0.1515147 0.8500
  1   -382.9300967552  -0.036180097518 0.04162768  0.00077892  0.1230917 0.8500
                               ***Turning on DIIS***
  2   -382.9582103925  -0.028113637223 0.03653547  0.00064240  0.0955903 0.8500
  3   -382.9794991971  -0.021288804585 0.02952947  0.00046835  0.0733979 0.8500
  4   -382.9960999592  -0.016600762097 0.02421654  0.00036186  0.0588256 0.8500
  5   -383.0092648770  -0.013164917811 0.02033158  0.00029753  0.0488002 0.8500
  6   -383.0199865117  -0.010721634697 0.01728192  0.00025112  0.0411121 0.8500
  7   -383.0288583594  -0.008871847737 0.01485629  0.00021602  0.0348455 0.8500
  8   -383.0362711941  -0.007412834722 0.08544301  0.00123923  0.0294857 0.0000
  9   -383.0761320037  -0.039860809565 0.00133270  0.00004085  0.0011299 0.0000
                      *** Initiating the SOSCF procedure ***
                           *** Shutting down DIIS ***
                      *** Re-Reading the Fockian *** 
                      *** Removing any level shift *** 
ITER      Energy       Delta-E        Grad      Rot      Max-DP    RMS-DP
 10   -383.07614796  -0.0000159609  0.000293  0.000293  0.000521  0.000020
               *** Restarting incremental Fock matrix formation ***
 11   -383.07624134  -0.0000933739  0.000253  0.000577  0.000624  0.000018
 12   -383.07624216  -0.0000008242  0.000084  0.000357  0.000259  0.000011
 13   -383.07624240  -0.0000002361  0.000028  0.000030  0.000188  0.000004
 14   -383.07624243  -0.0000000286  0.000007  0.000018  0.000077  0.000001
                 **** Energy Check signals convergence ****
              ***Rediagonalizing the Fockian in SOSCF/NRSCF***

               *****************************************************
               *                     SUCCESS                       *
               *           SCF CONVERGED AFTER  15 CYCLES          *
               *****************************************************

Old exchange energy                            =    -17.426471161 Eh
New exchange energy                            =    -17.426453950 Eh
Exchange energy change after final integration =      0.000017212 Eh
Total energy after final integration           =   -383.076225222 Eh
Final COS-X integration done in                =    46.171 sec

----------------
TOTAL SCF ENERGY
----------------

Total Energy       :         -383.07622522 Eh          -10424.03404 eV

Components:
Nuclear Repulsion  :          462.53398267 Eh           12586.18954 eV
Electronic Energy  :         -845.61020790 Eh          -23010.22357 eV
One Electron Energy:        -1433.00430359 Eh          -38994.02952 eV
Two Electron Energy:          587.39409569 Eh           15983.80594 eV
Max COSX asymmetry :            0.00000283 Eh               0.00008 eV
CPCM Dielectric    :           -0.01656726 Eh              -0.45082 eV

Virial components:
Potential Energy   :         -761.88859509 Eh          -20732.04267 eV
Kinetic Energy     :          378.81236987 Eh           10308.00863 eV
Virial Ratio       :            2.01125585


DFT components:
N(Alpha)           :       34.000084108857 electrons
N(Beta)            :       34.000084108857 electrons
N(Total)           :       68.000168217715 electrons
E(XC)              :      -38.777313800698 Eh       
DFET-embed. en.    :        0.000000000000 Eh       
CPCM Solvation Model Properties:
Surface-charge          :           -0.02246175
Charge-correction       :           -0.00049574 Eh              -0.01349 eV
Free-energy (cav+disp)  :  This term is not implemented in the current solvation scheme

---------------
SCF CONVERGENCE
---------------

  Last Energy change         ...   -5.9256e-09  Tolerance :   1.0000e-08
  Last MAX-Density change    ...    2.6645e-15  Tolerance :   1.0000e-07
  Last RMS-Density change    ...    3.8932e-17  Tolerance :   5.0000e-09
  Last Orbital Gradient      ...    3.3257e-06  Tolerance :   1.0000e-05
  Last Orbital Rotation      ...    1.0400e-05  Tolerance :   1.0000e-05

             **** THE GBW FILE WAS UPDATED (2_deprot_aq_1.gbw) ****
             **** DENSITY 2_deprot_aq_1.scfp WAS UPDATED ****
             **** ENERGY FILE WAS UPDATED (2_deprot_aq_1.en.tmp) ****
             **** THE GBW FILE WAS UPDATED (2_deprot_aq_1.gbw) ****
             **** DENSITY 2_deprot_aq_1.scfp WAS UPDATED ****
----------------
ORBITAL ENERGIES
----------------

  NO   OCC          E(Eh)            E(eV) 
   0   2.0000     -14.441654      -392.9774 
   1   2.0000     -14.441650      -392.9773 
   2   2.0000     -10.294927      -280.1392 
   3   2.0000     -10.294898      -280.1384 
   4   2.0000     -10.288596      -279.9669 
   5   2.0000     -10.288068      -279.9526 
   6   2.0000     -10.268987      -279.4333 
   7   2.0000     -10.268935      -279.4319 
   8   2.0000     -10.268759      -279.4271 
   9   2.0000      -1.146421       -31.1957 
  10   2.0000      -1.038409       -28.2566 
  11   2.0000      -0.915937       -24.9239 
  12   2.0000      -0.873427       -23.7672 
  13   2.0000      -0.854674       -23.2568 
  14   2.0000      -0.786014       -21.3885 
  15   2.0000      -0.777299       -21.1514 
  16   2.0000      -0.683433       -18.5972 
  17   2.0000      -0.678175       -18.4541 
  18   2.0000      -0.612833       -16.6760 
  19   2.0000      -0.598554       -16.2875 
  20   2.0000      -0.555814       -15.1245 
  21   2.0000      -0.548063       -14.9136 
  22   2.0000      -0.532209       -14.4821 
  23   2.0000      -0.526359       -14.3230 
  24   2.0000      -0.522062       -14.2060 
  25   2.0000      -0.510106       -13.8807 
  26   2.0000      -0.507185       -13.8012 
  27   2.0000      -0.492719       -13.4076 
  28   2.0000      -0.473748       -12.8914 
  29   2.0000      -0.472783       -12.8651 
  30   2.0000      -0.469363       -12.7720 
  31   2.0000      -0.363032        -9.8786 
  32   2.0000      -0.318297        -8.6613 
  33   2.0000      -0.301566        -8.2060 
  34   0.0000       0.136798         3.7225 
  35   0.0000       0.140233         3.8159 
  36   0.0000       0.148020         4.0278 
  37   0.0000       0.162559         4.4235 
  38   0.0000       0.193870         5.2755 
  39   0.0000       0.203430         5.5356 
  40   0.0000       0.206508         5.6194 
  41   0.0000       0.210026         5.7151 
  42   0.0000       0.218835         5.9548 
  43   0.0000       0.238161         6.4807 
  44   0.0000       0.244054         6.6410 
  45   0.0000       0.257008         6.9935 
  46   0.0000       0.276796         7.5320 
  47   0.0000       0.294028         8.0009 
  48   0.0000       0.300215         8.1693 
  49   0.0000       0.310339         8.4447 
  50   0.0000       0.317900         8.6505 
  51   0.0000       0.347688         9.4611 
  52   0.0000       0.361132         9.8269 
  53   0.0000       0.380121        10.3436 
  54   0.0000       0.399715        10.8768 
  55   0.0000       0.468209        12.7406 
  56   0.0000       0.478664        13.0251 
  57   0.0000       0.495787        13.4911 
  58   0.0000       0.499292        13.5864 
  59   0.0000       0.504536        13.7291 
  60   0.0000       0.529388        14.4054 
  61   0.0000       0.548038        14.9129 
  62   0.0000       0.563643        15.3375 
  63   0.0000       0.572797        15.5866 
  64   0.0000       0.583296        15.8723 
  65   0.0000       0.612594        16.6695 
  66   0.0000       0.625344        17.0165 
  67   0.0000       0.665996        18.1227 
  68   0.0000       0.666118        18.1260 
  69   0.0000       0.673691        18.3321 
  70   0.0000       0.690669        18.7941 
  71   0.0000       0.726908        19.7802 
  72   0.0000       0.744423        20.2568 
  73   0.0000       0.749983        20.4081 
  74   0.0000       0.752754        20.4835 
  75   0.0000       0.755467        20.5573 
  76   0.0000       0.760360        20.6904 
  77   0.0000       0.769912        20.9504 
  78   0.0000       0.773821        21.0568 
  79   0.0000       0.777997        21.1704 
  80   0.0000       0.791335        21.5333 
  81   0.0000       0.791953        21.5501 
  82   0.0000       0.797958        21.7135 
  83   0.0000       0.813788        22.1443 
  84   0.0000       0.819618        22.3029 
  85   0.0000       0.820742        22.3335 
  86   0.0000       0.828352        22.5406 
  87   0.0000       0.836206        22.7543 
  88   0.0000       0.841069        22.8867 
  89   0.0000       0.863321        23.4922 
  90   0.0000       0.865998        23.5650 
  91   0.0000       0.969596        26.3840 
  92   0.0000       0.998127        27.1604 
  93   0.0000       1.025189        27.8968 
  94   0.0000       1.033020        28.1099 
  95   0.0000       1.052176        28.6312 
  96   0.0000       1.076186        29.2845 
  97   0.0000       1.086562        29.5668 
  98   0.0000       1.184984        32.2451 
  99   0.0000       1.216235        33.0954 
 100   0.0000       1.254295        34.1311 
 101   0.0000       1.281544        34.8726 
 102   0.0000       1.308063        35.5942 
 103   0.0000       1.317247        35.8441 
 104   0.0000       1.341654        36.5083 
 105   0.0000       1.341979        36.5171 
 106   0.0000       1.400208        38.1016 
 107   0.0000       1.417993        38.5856 
 108   0.0000       1.562512        42.5181 
 109   0.0000       1.564850        42.5817 
 110   0.0000       1.569022        42.6952 
 111   0.0000       1.639173        44.6042 
 112   0.0000       1.643712        44.7277 
 113   0.0000       1.648349        44.8539 
 114   0.0000       1.656469        45.0748 
 115   0.0000       1.657431        45.1010 
 116   0.0000       1.663351        45.2621 
 117   0.0000       1.671975        45.4968 
 118   0.0000       1.686845        45.9014 
 119   0.0000       1.746381        47.5214 
 120   0.0000       1.755243        47.7626 
 121   0.0000       1.757960        47.8365 
 122   0.0000       1.828240        49.7490 
 123   0.0000       1.890464        51.4421 
 124   0.0000       1.891062        51.4584 
 125   0.0000       1.894834        51.5611 
 126   0.0000       1.900476        51.7146 
 127   0.0000       1.908513        51.9333 
 128   0.0000       1.912196        52.0335 
 129   0.0000       1.912357        52.0379 
 130   0.0000       1.934934        52.6522 
 131   0.0000       1.949548        53.0499 
 132   0.0000       1.968631        53.5692 
 133   0.0000       1.987254        54.0759 
 134   0.0000       2.012628        54.7664 
 135   0.0000       2.025244        55.1097 
 136   0.0000       2.043979        55.6195 
 137   0.0000       2.056857        55.9699 
 138   0.0000       2.093427        56.9650 
 139   0.0000       2.103297        57.2336 
 140   0.0000       2.139931        58.2305 
 141   0.0000       2.142113        58.2898 
 142   0.0000       2.196940        59.7818 
 143   0.0000       2.216763        60.3212 
 144   0.0000       2.235811        60.8395 
 145   0.0000       2.236477        60.8576 
 146   0.0000       2.268345        61.7248 
 147   0.0000       2.296171        62.4820 
 148   0.0000       2.319376        63.1134 
 149   0.0000       2.333805        63.5061 
 150   0.0000       2.353017        64.0288 
 151   0.0000       2.387984        64.9803 
 152   0.0000       2.393611        65.1335 
 153   0.0000       2.432006        66.1783 
 154   0.0000       2.444219        66.5106 
 155   0.0000       2.515011        68.4369 
 156   0.0000       2.540441        69.1289 
 157   0.0000       2.556444        69.5644 
 158   0.0000       2.585735        70.3614 
 159   0.0000       2.615508        71.1716 
 160   0.0000       2.628566        71.5269 
 161   0.0000       2.659482        72.3682 
 162   0.0000       2.681093        72.9563 
 163   0.0000       2.716942        73.9318 
 164   0.0000       2.791718        75.9665 
 165   0.0000       2.807454        76.3947 
 166   0.0000       2.816946        76.6530 
 167   0.0000       2.872041        78.1522 
 168   0.0000       2.894835        78.7725 
 169   0.0000       2.897980        78.8580 
 170   0.0000       2.902698        78.9864 
 171   0.0000       2.946164        80.1692 
 172   0.0000       2.947824        80.2144 
 173   0.0000       3.005787        81.7916 
 174   0.0000       3.025392        82.3251 
 175   0.0000       3.042395        82.7878 
 176   0.0000       3.067723        83.4770 
 177   0.0000       3.085657        83.9650 
 178   0.0000       3.089152        84.0601 
 179   0.0000       3.126607        85.0793 
 180   0.0000       3.146898        85.6315 
 181   0.0000       3.179186        86.5100 
 182   0.0000       3.331362        90.6510 
 183   0.0000       3.433870        93.4404 
 184   0.0000       3.454601        94.0045 
 185   0.0000       3.545979        96.4910 

                    ********************************
                    * MULLIKEN POPULATION ANALYSIS *
                    ********************************

-----------------------
MULLIKEN ATOMIC CHARGES
-----------------------
   0 N :   -0.228895
   1 C :   -0.245067
   2 N :   -0.228897
   3 C :   -0.131869
   4 C :   -0.131872
   5 C :    0.107330
   6 C :    0.107319
   7 H :    0.045432
   8 H :    0.050781
   9 H :    0.050751
  10 H :    0.045448
  11 H :    0.050772
  12 H :    0.050752
  13 C :    0.100317
  14 C :    0.100285
  15 H :    0.047159
  16 H :    0.034300
  17 H :    0.047254
  18 H :    0.047225
  19 H :    0.047178
  20 H :    0.034296
Sum of atomic charges:   -0.0000000

--------------------------------
MULLIKEN REDUCED ORBITAL CHARGES
--------------------------------
  0 N s       :     3.394067  s :     3.394067
      pz      :     1.521399  p :     3.801858
      px      :     1.156587
      py      :     1.123873
      dz2     :     0.002227  d :     0.032970
      dxz     :     0.004525
      dyz     :     0.005685
      dx2y2   :     0.011421
      dxy     :     0.009112
  1 C s       :     3.621419  s :     3.621419
      pz      :     0.727062  p :     2.557796
      px      :     0.666088
      py      :     1.164646
      dz2     :     0.007670  d :     0.065852
      dxz     :     0.012296
      dyz     :     0.009492
      dx2y2   :     0.007983
      dxy     :     0.028411
  2 N s       :     3.394072  s :     3.394072
      pz      :     1.521396  p :     3.801855
      px      :     1.156582
      py      :     1.123877
      dz2     :     0.002227  d :     0.032969
      dxz     :     0.004525
      dyz     :     0.005684
      dx2y2   :     0.011421
      dxy     :     0.009112
  3 C s       :     3.103743  s :     3.103743
      pz      :     1.085952  p :     2.970049
      px      :     0.995688
      py      :     0.888409
      dz2     :     0.004361  d :     0.058078
      dxz     :     0.010494
      dyz     :     0.009691
      dx2y2   :     0.019604
      dxy     :     0.013927
  4 C s       :     3.103745  s :     3.103745
      pz      :     1.085951  p :     2.970049
      px      :     0.995688
      py      :     0.888410
      dz2     :     0.004361  d :     0.058078
      dxz     :     0.010494
      dyz     :     0.009692
      dx2y2   :     0.019604
      dxy     :     0.013927
  5 C s       :     2.973334  s :     2.973334
      pz      :     1.040985  p :     2.879599
      px      :     0.809770
      py      :     1.028844
      dz2     :     0.006948  d :     0.039737
      dxz     :     0.011920
      dyz     :     0.002839
      dx2y2   :     0.011310
      dxy     :     0.006721
  6 C s       :     2.973342  s :     2.973342
      pz      :     1.040989  p :     2.879602
      px      :     0.809771
      py      :     1.028842
      dz2     :     0.006948  d :     0.039737
      dxz     :     0.011919
      dyz     :     0.002839
      dx2y2   :     0.011310
      dxy     :     0.006721
  7 H s       :     0.931041  s :     0.931041
      pz      :     0.004894  p :     0.023527
      px      :     0.002694
      py      :     0.015938
  8 H s       :     0.925723  s :     0.925723
      pz      :     0.012276  p :     0.023496
      px      :     0.005498
      py      :     0.005722
  9 H s       :     0.925752  s :     0.925752
      pz      :     0.012256  p :     0.023497
      px      :     0.005508
      py      :     0.005733
 10 H s       :     0.931027  s :     0.931027
      pz      :     0.004893  p :     0.023525
      px      :     0.002694
      py      :     0.015938
 11 H s       :     0.925731  s :     0.925731
      pz      :     0.012266  p :     0.023497
      px      :     0.005501
      py      :     0.005729
 12 H s       :     0.925751  s :     0.925751
      pz      :     0.012266  p :     0.023497
      px      :     0.005505
      py      :     0.005726
 13 C s       :     2.872224  s :     2.872224
      pz      :     1.029936  p :     2.999900
      px      :     0.990367
      py      :     0.979597
      dz2     :     0.005302  d :     0.027559
      dxz     :     0.009160
      dyz     :     0.001952
      dx2y2   :     0.003428
      dxy     :     0.007717
 14 C s       :     2.872258  s :     2.872258
      pz      :     1.029937  p :     2.999898
      px      :     0.990374
      py      :     0.979587
      dz2     :     0.005302  d :     0.027559
      dxz     :     0.009160
      dyz     :     0.001952
      dx2y2   :     0.003427
      dxy     :     0.007718
 15 H s       :     0.928109  s :     0.928109
      pz      :     0.012017  p :     0.024732
      px      :     0.008330
      py      :     0.004385
 16 H s       :     0.940765  s :     0.940765
      pz      :     0.004984  p :     0.024935
      px      :     0.006999
      py      :     0.012951
 17 H s       :     0.928015  s :     0.928015
      pz      :     0.012045  p :     0.024731
      px      :     0.008301
      py      :     0.004385
 18 H s       :     0.928043  s :     0.928043
      pz      :     0.012040  p :     0.024732
      px      :     0.008307
      py      :     0.004385
 19 H s       :     0.928088  s :     0.928088
      pz      :     0.012023  p :     0.024733
      px      :     0.008324
      py      :     0.004386
 20 H s       :     0.940769  s :     0.940769
      pz      :     0.004984  p :     0.024935
      px      :     0.006998
      py      :     0.012953


                     *******************************
                     * LOEWDIN POPULATION ANALYSIS *
                     *******************************

----------------------
LOEWDIN ATOMIC CHARGES
----------------------
   0 N :    0.024780
   1 C :   -0.334148
   2 N :    0.024780
   3 C :   -0.049967
   4 C :   -0.049973
   5 C :    0.028733
   6 C :    0.028730
   7 H :    0.032701
   8 H :    0.031092
   9 H :    0.031098
  10 H :    0.032708
  11 H :    0.031099
  12 H :    0.031090
  13 C :   -0.053920
  14 C :   -0.053926
  15 H :    0.040431
  16 H :    0.041687
  17 H :    0.040446
  18 H :    0.040443
  19 H :    0.040433
  20 H :    0.041683

-------------------------------
LOEWDIN REDUCED ORBITAL CHARGES
-------------------------------
  0 N s       :     3.055350  s :     3.055350
      pz      :     1.451166  p :     3.842614
      px      :     1.191602
      py      :     1.199847
      dz2     :     0.004207  d :     0.077255
      dxz     :     0.007527
      dyz     :     0.011260
      dx2y2   :     0.028774
      dxy     :     0.025488
  1 C s       :     3.205486  s :     3.205486
      pz      :     0.775337  p :     2.986084
      px      :     0.824437
      py      :     1.386310
      dz2     :     0.017497  d :     0.142577
      dxz     :     0.027111
      dyz     :     0.013143
      dx2y2   :     0.018818
      dxy     :     0.066009
  2 N s       :     3.055351  s :     3.055351
      pz      :     1.451163  p :     3.842614
      px      :     1.191603
      py      :     1.199849
      dz2     :     0.004207  d :     0.077255
      dxz     :     0.007527
      dyz     :     0.011260
      dx2y2   :     0.028775
      dxy     :     0.025487
  3 C s       :     2.839139  s :     2.839139
      pz      :     1.065972  p :     3.070367
      px      :     1.057318
      py      :     0.947077
      dz2     :     0.009601  d :     0.140461
      dxz     :     0.020469
      dyz     :     0.019204
      dx2y2   :     0.053287
      dxy     :     0.037901
  4 C s       :     2.839136  s :     2.839136
      pz      :     1.065972  p :     3.070374
      px      :     1.057315
      py      :     0.947087
      dz2     :     0.009601  d :     0.140463
      dxz     :     0.020469
      dyz     :     0.019205
      dx2y2   :     0.053286
      dxy     :     0.037902
  5 C s       :     2.821920  s :     2.821920
      pz      :     1.082916  p :     3.049967
      px      :     0.901085
      py      :     1.065966
      dz2     :     0.017512  d :     0.099379
      dxz     :     0.030865
      dyz     :     0.006410
      dx2y2   :     0.029038
      dxy     :     0.015554
  6 C s       :     2.821925  s :     2.821925
      pz      :     1.082919  p :     3.049966
      px      :     0.901085
      py      :     1.065962
      dz2     :     0.017511  d :     0.099379
      dxz     :     0.030865
      dyz     :     0.006411
      dx2y2   :     0.029037
      dxy     :     0.015555
  7 H s       :     0.900559  s :     0.900559
      pz      :     0.013031  p :     0.066741
      px      :     0.009216
      py      :     0.044494
  8 H s       :     0.903312  s :     0.903312
      pz      :     0.032849  p :     0.065596
      px      :     0.017127
      py      :     0.015620
  9 H s       :     0.903302  s :     0.903302
      pz      :     0.032793  p :     0.065599
      px      :     0.017154
      py      :     0.015652
 10 H s       :     0.900556  s :     0.900556
      pz      :     0.013029  p :     0.066736
      px      :     0.009215
      py      :     0.044492
 11 H s       :     0.903305  s :     0.903305
      pz      :     0.032822  p :     0.065596
      px      :     0.017135
      py      :     0.015639
 12 H s       :     0.903310  s :     0.903310
      pz      :     0.032821  p :     0.065601
      px      :     0.017146
      py      :     0.015634
 13 C s       :     2.813232  s :     2.813232
      pz      :     1.074053  p :     3.166400
      px      :     1.046888
      py      :     1.045459
      dz2     :     0.014428  d :     0.074288
      dxz     :     0.024642
      dyz     :     0.003875
      dx2y2   :     0.009646
      dxy     :     0.021697
 14 C s       :     2.813242  s :     2.813242
      pz      :     1.074052  p :     3.166396
      px      :     1.046892
      py      :     1.045452
      dz2     :     0.014427  d :     0.074287
      dxz     :     0.024641
      dyz     :     0.003876
      dx2y2   :     0.009644
      dxy     :     0.021699
 15 H s       :     0.892337  s :     0.892337
      pz      :     0.031760  p :     0.067232
      px      :     0.022479
      py      :     0.012993
 16 H s       :     0.890678  s :     0.890678
      pz      :     0.013149  p :     0.067635
      px      :     0.019438
      py      :     0.035048
 17 H s       :     0.892326  s :     0.892326
      pz      :     0.031836  p :     0.067228
      px      :     0.022403
      py      :     0.012989
 18 H s       :     0.892326  s :     0.892326
      pz      :     0.031822  p :     0.067231
      px      :     0.022419
      py      :     0.012991
 19 H s       :     0.892333  s :     0.892333
      pz      :     0.031776  p :     0.067234
      px      :     0.022464
      py      :     0.012993
 20 H s       :     0.890679  s :     0.890679
      pz      :     0.013150  p :     0.067638
      px      :     0.019435
      py      :     0.035053


                      *****************************
                      * MAYER POPULATION ANALYSIS *
                      *****************************

  NA   - Mulliken gross atomic population
  ZA   - Total nuclear charge
  QA   - Mulliken gross atomic charge
  VA   - Mayer's total valence
  BVA  - Mayer's bonded valence
  FA   - Mayer's free valence

  ATOM       NA         ZA         QA         VA         BVA        FA
  0 N      7.2289     7.0000    -0.2289     3.4055     3.4055    -0.0000
  1 C      6.2451     6.0000    -0.2451     2.7164     2.7164    -0.0000
  2 N      7.2289     7.0000    -0.2289     3.4055     3.4055    -0.0000
  3 C      6.1319     6.0000    -0.1319     4.0569     4.0569     0.0000
  4 C      6.1319     6.0000    -0.1319     4.0570     4.0570     0.0000
  5 C      5.8927     6.0000     0.1073     3.9006     3.9006    -0.0000
  6 C      5.8927     6.0000     0.1073     3.9007     3.9007    -0.0000
  7 H      0.9546     1.0000     0.0454     1.0219     1.0219    -0.0000
  8 H      0.9492     1.0000     0.0508     0.9925     0.9925    -0.0000
  9 H      0.9492     1.0000     0.0508     0.9925     0.9925    -0.0000
 10 H      0.9546     1.0000     0.0454     1.0219     1.0219    -0.0000
 11 H      0.9492     1.0000     0.0508     0.9925     0.9925     0.0000
 12 H      0.9492     1.0000     0.0508     0.9925     0.9925    -0.0000
 13 C      5.8997     6.0000     0.1003     3.9495     3.9495     0.0000
 14 C      5.8997     6.0000     0.1003     3.9495     3.9495     0.0000
 15 H      0.9528     1.0000     0.0472     0.9942     0.9942     0.0000
 16 H      0.9657     1.0000     0.0343     1.0036     1.0036    -0.0000
 17 H      0.9527     1.0000     0.0473     0.9941     0.9941     0.0000
 18 H      0.9528     1.0000     0.0472     0.9942     0.9942    -0.0000
 19 H      0.9528     1.0000     0.0472     0.9942     0.9942     0.0000
 20 H      0.9657     1.0000     0.0343     1.0036     1.0036    -0.0000

  Mayer bond orders larger than 0.100000
B(  0-N ,  1-C ) :   1.2460 B(  0-N ,  4-C ) :   1.1364 B(  0-N ,  5-C ) :   0.9640 
B(  1-C ,  2-N ) :   1.2460 B(  2-N ,  3-C ) :   1.1364 B(  2-N ,  6-C ) :   0.9640 
B(  3-C ,  4-C ) :   1.6561 B(  3-C , 13-C ) :   1.0916 B(  4-C , 14-C ) :   1.0916 
B(  5-C ,  7-H ) :   0.9689 B(  5-C ,  8-H ) :   0.9754 B(  5-C ,  9-H ) :   0.9754 
B(  6-C , 10-H ) :   0.9689 B(  6-C , 11-H ) :   0.9754 B(  6-C , 12-H ) :   0.9754 
B( 13-C , 18-H ) :   0.9485 B( 13-C , 19-H ) :   0.9485 B( 13-C , 20-H ) :   0.9445 
B( 14-C , 15-H ) :   0.9485 B( 14-C , 16-H ) :   0.9445 B( 14-C , 17-H ) :   0.9485 


-------
TIMINGS
-------

Total SCF time: 0 days 0 hours 5 min 16 sec 

Total time                  ....     316.252 sec
Sum of individual times     ....     315.684 sec  ( 99.8%)

Fock matrix formation       ....     310.935 sec  ( 98.3%)
  Split-RI-J                ....      11.874 sec  (  3.8% of F)
  Chain of spheres X        ....     250.471 sec  ( 80.6% of F)
  XC integration            ....      30.042 sec  (  9.7% of F)
    Basis function eval.    ....      10.149 sec  ( 33.8% of XC)
    Density eval.           ....       6.771 sec  ( 22.5% of XC)
    XC-Functional eval.     ....       4.588 sec  ( 15.3% of XC)
    XC-Potential eval.      ....       7.603 sec  ( 25.3% of XC)
Diagonalization             ....       0.102 sec  (  0.0%)
Density matrix formation    ....       0.013 sec  (  0.0%)
Population analysis         ....       0.012 sec  (  0.0%)
Initial guess               ....       0.745 sec  (  0.2%)
Orbital Transformation      ....       0.000 sec  (  0.0%)
Orbital Orthonormalization  ....       0.000 sec  (  0.0%)
DIIS solution               ....       0.033 sec  (  0.0%)
SOSCF solution              ....       0.038 sec  (  0.0%)
Grid generation             ....       3.807 sec  (  1.2%)

Maximum memory used throughout the entire SCF-calculation: 77.4 MB


-------------------------------------------------------------------------------
                          DFT DISPERSION CORRECTION                            
                                                                               
                                 DFTD4 V2.5                                    
-------------------------------------------------------------------------------
The WB97X functional is recognized
Active option DFTDOPT                   ...         5   

Starting D4
-------------------------   ----------------
Dispersion correction           -0.002993080
-------------------------   ----------------


-------------------------   --------------------
FINAL SINGLE POINT ENERGY      -383.079218301837
-------------------------   --------------------

------------------------------------------------------------------------------
                         ORCA SCF GRADIENT CALCULATION
------------------------------------------------------------------------------

 ... reading COSX grid (gridx3)
Gradient of the Kohn-Sham DFT energy:
Kohn-Sham wavefunction type      ... RKS
Hartree-Fock exchange scaling    ...    0.158
Number of operators              ...    1
Number of atoms                  ...   21
Basis set dimensions             ...  186
Integral neglect threshold       ... 2.5e-11
Integral primitive cutoff        ... 2.5e-12
SHARK Integral package           ... ON

Nuc. rep. gradient       (SHARK) ... done (  0.0 sec)
HCore & Overlap gradient (SHARK) ... done (  0.5 sec)
RI-J gradient            (SHARK) ... done (  2.6 sec)
COSX-gradient                    ... done ( 49.2 sec)
Exchange-correlation gradient    ... done
Dispersion correction            ... Starting D4


------------------- 
Dispersion Gradient 
------------------- 
   1  :   -0.000014849   -0.000010336    0.000000000
   2  :   -0.000000001   -0.000023291   -0.000000001
   3  :    0.000014848   -0.000010336   -0.000000001
   4  :    0.000008764    0.000002745   -0.000000000
   5  :   -0.000008764    0.000002745   -0.000000001
   6  :   -0.000052732   -0.000022245   -0.000000007
   7  :    0.000052732   -0.000022245    0.000000009
   8  :   -0.000008494   -0.000005688   -0.000000001
   9  :   -0.000007423   -0.000006025    0.000000806
  10  :   -0.000007419   -0.000006023   -0.000000807
  11  :    0.000008494   -0.000005688    0.000000000
  12  :    0.000007421   -0.000006026   -0.000000806
  13  :    0.000007420   -0.000006024    0.000000806
  14  :    0.000035493    0.000036924   -0.000000007
  15  :   -0.000035490    0.000036929    0.000000008
  16  :   -0.000007748    0.000006524   -0.000000114
  17  :   -0.000007328    0.000009238   -0.000000000
  18  :   -0.000007751    0.000006532    0.000000120
  19  :    0.000007751    0.000006528   -0.000000119
  20  :    0.000007749    0.000006525    0.000000115
  21  :    0.000007328    0.000009237   -0.000000000

  |G| =    0.000120111

done

------------------
CARTESIAN GRADIENT
------------------

   1   N   :   -0.012323304    0.003705643    0.000003583
   2   C   :   -0.000002375    0.008101372   -0.000012641
   3   N   :    0.012329940    0.003701673   -0.000002362
   4   C   :    0.000549965   -0.006383709   -0.000001733
   5   C   :   -0.000558239   -0.006394479   -0.000000496
   6   C   :    0.004792288   -0.000144446    0.000016691
   7   C   :   -0.004794099   -0.000126771   -0.000012328
   8   H   :    0.000864669    0.005769827   -0.000009380
   9   H   :    0.002997476   -0.001421731    0.004093687
  10   H   :    0.002995320   -0.001428298   -0.004096216
  11   H   :   -0.000863538    0.005750062    0.000002955
  12   H   :   -0.002988471   -0.001421912   -0.004088442
  13   H   :   -0.003005137   -0.001422491    0.004106355
  14   C   :    0.003536640    0.005251886    0.000006045
  15   C   :   -0.003522894    0.005247337   -0.000005967
  16   H   :    0.004990678   -0.000941353    0.005609111
  17   H   :   -0.003149707   -0.007432026    0.000009824
  18   H   :    0.004976698   -0.000948050   -0.005610926
  19   H   :   -0.004988232   -0.000946970    0.005618564
  20   H   :   -0.004993147   -0.000941884   -0.005617862
  21   H   :    0.003155731   -0.007440866   -0.000006228

Difference to translation invariance:
           :    0.0000002634    0.0001328147    0.0000022349

Difference to rotation invariance:
           :    0.0000025011    0.0000142673   -0.0000008444

Norm of the cartesian gradient     ...    0.0338206199
RMS gradient                       ...    0.0042609976
MAX gradient                       ...    0.0123299399

-------
TIMINGS
-------

Total SCF gradient time            ...       65.579 sec

One electron gradient       ....       0.474 sec  (  0.7%)
RI-J Coulomb gradient       ....       2.619 sec  (  4.0%)
COSX gradient               ....      49.234 sec  ( 75.1%)
XC gradient                 ....      10.439 sec  ( 15.9%)
CPCM gradient               ....       1.076 sec  (  1.6%)
   A-Matrix (El+Nuc)        ....       0.079 sec  (  0.1%)
   Potential                ....       0.997 sec  (  1.5%)

Maximum memory used throughout the entire SCFGRAD-calculation: 62.8 MB
------------------------------------------------------------------------------
                         ORCA GEOMETRY RELAXATION STEP
------------------------------------------------------------------------------

Reading the OPT-File                    .... done
Getting information on internals        .... done
Copying old internal coords+grads       .... done
Making the new internal coordinates     .... (new redundants).... done
Validating the new internal coordinates .... (new redundants).... done
Calculating the B-matrix                .... done
Calculating the G,G- and P matrices     .... done
Transforming gradient to internals      .... done
Projecting the internal gradient        .... done
Number of atoms                         ....  21
Number of internal coordinates          ....  98
Current Energy                          ....  -383.079218302 Eh
Current gradient norm                   ....     0.033820620 Eh/bohr
Maximum allowed component of the step   ....  0.300
Current trust radius                    ....  0.300
Evaluating the initial hessian          ....  (Almloef) done
Projecting the Hessian                  .... done
Forming the augmented Hessian           .... done
Diagonalizing the augmented Hessian     .... done
Last element of RFO vector              ....  0.996589250
Lowest eigenvalues of augmented Hessian:
 -0.002797362  0.014196604  0.014196781  0.019582806  0.019583497
Length of the computed step             ....  0.082804339
The final length of the internal step   ....  0.082804339
Converting the step to cartesian space:
 Initial RMS(Int)=    0.0083645013
Transforming coordinates:
 Iter   0:  RMS(Cart)=    0.0176702739 RMS(Int)=    0.0083684523
 Iter   1:  RMS(Cart)=    0.0000532944 RMS(Int)=    0.0000237109
 Iter   2:  RMS(Cart)=    0.0000005742 RMS(Int)=    0.0000002835
 Iter   3:  RMS(Cart)=    0.0000000045 RMS(Int)=    0.0000000023
done
Storing new coordinates                 .... done

                                .--------------------.
          ----------------------|Geometry convergence|-------------------------
          Item                value                   Tolerance       Converged
          ---------------------------------------------------------------------
          RMS gradient        0.0034695831            0.0001000000      NO
          MAX gradient        0.0119276283            0.0003000000      NO
          RMS step            0.0083645013            0.0020000000      NO
          MAX step            0.0247804204            0.0040000000      NO
          ........................................................
          Max(Bonds)      0.0131      Max(Angles)    0.52
          Max(Dihed)        0.09      Max(Improp)    0.00
          ---------------------------------------------------------------------

The optimization has not yet converged - more geometry cycles are needed


    ---------------------------------------------------------------------------
                         Redundant Internal Coordinates
                            (Angstroem and degrees)

        Definition                    Value    dE/dq     Step     New-Value
    ----------------------------------------------------------------------------
     1. B(C   1,N   0)                1.3563 -0.002933  0.0024    1.3587   
     2. B(N   2,C   1)                1.3563 -0.002932  0.0024    1.3587   
     3. B(C   3,N   2)                1.3824 -0.009750  0.0089    1.3913   
     4. B(C   4,C   3)                1.3599 -0.001527  0.0012    1.3611   
     5. B(C   4,N   0)                1.3824 -0.009749  0.0089    1.3913   
     6. B(C   5,N   0)                1.4326 -0.011925  0.0131    1.4457   
     7. B(C   6,N   2)                1.4326 -0.011928  0.0131    1.4457   
     8. B(H   7,C   5)                1.0883 -0.005758  0.0083    1.0966   
     9. B(H   8,C   5)                1.0934 -0.005241  0.0077    1.1011   
    10. B(H   9,C   5)                1.0934 -0.005245  0.0077    1.1011   
    11. B(H  10,C   6)                1.0883 -0.005738  0.0083    1.0966   
    12. B(H  11,C   6)                1.0934 -0.005233  0.0077    1.1011   
    13. B(H  12,C   6)                1.0934 -0.005256  0.0078    1.1011   
    14. B(C  13,C   3)                1.4863 -0.005253  0.0063    1.4926   
    15. B(C  14,C   4)                1.4863 -0.005254  0.0063    1.4926   
[...]
     14       0.000000   0.000107  -0.000326  -0.000050  -0.000139  -0.000000
     15       0.035934  -0.000000  -0.000000  -0.000023  -0.000023   0.000106
     16       0.000396   0.000000   0.000001   0.000034   0.000034  -0.000548
     17       0.000032   0.000101   0.000410   0.067190   0.067449   0.000005
     18      -0.035927   0.000001  -0.000001   0.000001  -0.000001   0.000106
     19       0.000398  -0.000001   0.000001   0.000006  -0.000006   0.000548
     20       0.000002   0.000102  -0.000410   0.067459  -0.067180  -0.000001
     21      -0.003183  -0.000001  -0.000001   0.000002   0.000003   0.000268
     22      -0.301970  -0.000001  -0.000002   0.000383   0.000384   0.005459
     23       0.000282  -0.000304  -0.000222   0.007639   0.007668  -0.000005
     24      -0.209653  -0.000624  -0.001627  -0.235790  -0.236759  -0.000421
     25       0.148524  -0.000083   0.000653   0.171429   0.172096   0.000661
     26      -0.368844  -0.000599  -0.002322  -0.402043  -0.403632  -0.000565
     27      -0.209636   0.000627   0.001631   0.236046   0.237016  -0.000388
     28       0.149065   0.000080  -0.000659  -0.172228  -0.172898   0.000639
     29       0.368190  -0.000599  -0.002320  -0.401781  -0.403368   0.000508
     30       0.003167  -0.000001   0.000001  -0.000000   0.000000   0.000268
     31      -0.301905   0.000016  -0.000018   0.000021  -0.000019  -0.005459
     32       0.000035  -0.000304   0.000222   0.007670  -0.007638   0.000001
     33       0.209602  -0.000629   0.001633  -0.236874   0.235959  -0.000400
     34       0.148789   0.000077   0.000660  -0.172550   0.171846  -0.000646
     35       0.368409  -0.000607   0.002328  -0.403501   0.401879  -0.000528
     36       0.209609   0.000623  -0.001626   0.236865  -0.235950  -0.000410
     37       0.148713  -0.000084  -0.000652   0.172455  -0.171751  -0.000654
     38      -0.368462  -0.000593   0.002314  -0.403534   0.401911   0.000545
     39      -0.002615   0.000014  -0.000017  -0.000001   0.000002  -0.045831
     40      -0.001946   0.000003  -0.000001   0.000001  -0.000002   0.047654
     41       0.000003   0.066307  -0.066317  -0.000103   0.000413   0.000007
     42       0.002615   0.000028   0.000031   0.000003   0.000002  -0.045826
     43      -0.001946  -0.000003  -0.000000   0.000004   0.000004  -0.047644
     44      -0.000003   0.066275   0.066349  -0.000101  -0.000414   0.000015
     45      -0.022675  -0.297168  -0.297269   0.000337   0.001581   0.125361
     46      -0.000626  -0.018373  -0.018787   0.000563   0.000793   0.002909
     47      -0.031987  -0.398808  -0.399017   0.000644   0.002374   0.180767
     48       0.012587   0.000237   0.000223  -0.000024  -0.000021   0.303068
     49       0.024159   0.000428   0.000399  -0.000046  -0.000040   0.554179
     50      -0.000022   0.007520   0.007630  -0.000424  -0.000474  -0.000477
     51      -0.022654   0.296606   0.296687  -0.000345  -0.001582   0.124785
     52      -0.000597   0.017963   0.018376  -0.000562  -0.000790   0.002706
     53       0.032043  -0.399148  -0.399329   0.000654   0.002379  -0.180470
     54       0.022666   0.296893  -0.296688  -0.000349   0.001578   0.124962
     55      -0.000606  -0.018104   0.018499   0.000566  -0.000789  -0.002771
     56      -0.032037  -0.399240   0.399037   0.000661  -0.002372  -0.180584
     57       0.022661  -0.297163   0.296983   0.000346  -0.001583   0.125225
     58      -0.000619   0.018277  -0.018673  -0.000566   0.000789  -0.002857
     59       0.031990  -0.399097   0.398928   0.000657  -0.002376   0.180715
     60      -0.012585   0.000108  -0.000097   0.000007  -0.000012   0.303093
     61       0.024158  -0.000195   0.000172  -0.000013   0.000023  -0.554287
     62       0.000010   0.007524  -0.007627  -0.000426   0.000472  -0.000213
                 60         61         62    
      0      -0.000222   0.000273   0.000231
      1       0.000299   0.000082  -0.000304
      2       0.000000  -0.000000  -0.000000
      3      -0.000000  -0.000000   0.000183
      4      -0.000045   0.000023   0.000000
      5      -0.000000  -0.000000  -0.000000
      6       0.000222  -0.000274   0.000230
      7       0.000299   0.000080   0.000304
      8      -0.000000  -0.000000  -0.000000
      9       0.000931  -0.000291   0.000428
     10      -0.000031   0.000067  -0.000053
     11      -0.000000  -0.000000  -0.000000
     12      -0.000931   0.000288   0.000430
     13      -0.000031   0.000067   0.000053
     14       0.000000   0.000000   0.000000
     15       0.000122   0.014884   0.014922
     16      -0.000245  -0.064771  -0.065069
     17       0.000004   0.000035   0.000035
     18      -0.000122  -0.014965   0.014847
     19      -0.000244  -0.065110   0.064728
     20       0.000002   0.000006  -0.000006
     21       0.000156   0.006148   0.006156
     22       0.002013   0.637748   0.641195
     23      -0.000002  -0.000580  -0.000583
     24      -0.000364  -0.095625  -0.096090
     25       0.000554   0.065449   0.065758
     26      -0.000320  -0.172006  -0.172745
     27      -0.000338  -0.095888  -0.096353
     28       0.000537   0.065902   0.066212
     29       0.000276   0.172171   0.172908
     30      -0.000156  -0.006147   0.006091
     31       0.002011   0.641102  -0.637842
     32       0.000000  -0.000072   0.000072
     33       0.000343   0.096269  -0.095728
     34       0.000539   0.066039  -0.065658
     35       0.000284   0.172994  -0.171923
     36       0.000359   0.096258  -0.095717
     37       0.000552   0.065993  -0.065612
     38      -0.000311  -0.172994   0.171923
     39       0.045311  -0.000066   0.000259
     40      -0.047457   0.000131  -0.000357
     41      -0.000010  -0.000001   0.000001
     42      -0.045321   0.000064   0.000260
     43      -0.047463   0.000129   0.000358
     44       0.000018   0.000000   0.000000
     45       0.123148  -0.000273  -0.000743
     46       0.002745   0.000395   0.000393
     47       0.177727  -0.000789  -0.001398
     48       0.304512  -0.001096  -0.002553
     49       0.556553  -0.001691  -0.004473
     50      -0.000478   0.000001   0.000004
     51       0.122607  -0.000268  -0.000736
     52       0.002548   0.000395   0.000393
     53      -0.177467   0.000783   0.001392
     54      -0.122744   0.000269  -0.000733
     55       0.002612   0.000397  -0.000391
     56       0.177522  -0.000786   0.001385
     57      -0.122970   0.000280  -0.000743
     58       0.002691   0.000397  -0.000390
     59      -0.177612   0.000800  -0.001397
     60      -0.304434   0.001109  -0.002546
     61       0.556473  -0.001714   0.004463
     62       0.000212  -0.000001   0.000002


-----------
IR SPECTRUM
-----------

 Mode   freq       eps      Int      T**2         TX        TY        TZ
       cm**-1   L/(mol*cm) km/mol    a.u.
----------------------------------------------------------------------------
  6:    116.38   0.000255    1.29  0.000685  ( 0.000040 -0.000036  0.026168)
  7:    120.44   0.000000    0.00  0.000000  ( 0.000037 -0.000027 -0.000064)
  8:    141.46   0.000000    0.00  0.000000  (-0.000021  0.000019 -0.000005)
  9:    166.32   0.000831    4.20  0.001559  (-0.000054 -0.000003  0.039480)
 10:    177.87   0.003413   17.25  0.005988  ( 0.000016  0.000018  0.077382)
 11:    178.78   0.000000    0.00  0.000000  (-0.000025 -0.000004 -0.000496)
 12:    277.03   0.000065    0.33  0.000073  (-0.000046 -0.008541 -0.000025)
 13:    278.40   0.000760    3.84  0.000852  (-0.029196  0.000016  0.000021)
 14:    294.98   0.000147    0.74  0.000156  (-0.000039  0.000042 -0.012485)
 15:    298.07   0.001120    5.66  0.001173  (-0.000002 -0.034247 -0.000011)
 16:    326.21   0.000000    0.00  0.000000  (-0.000010 -0.000007 -0.000000)
 17:    552.51   0.000348    1.76  0.000197  (-0.014024  0.000001  0.000008)
 18:    582.03   0.001276    6.45  0.000684  (-0.026157  0.000001  0.000005)
 19:    629.51   0.000477    2.41  0.000236  (-0.000000 -0.015371 -0.000012)
 20:    643.51   0.001130    5.71  0.000548  (-0.000010  0.000008 -0.023408)
 21:    682.53   0.000000    0.00  0.000000  ( 0.000010 -0.000008  0.000000)
 22:    734.44   0.002162   10.92  0.000918  ( 0.000001  0.030306 -0.000001)
 23:    873.27   0.006123   30.94  0.002188  (-0.046777  0.000001 -0.000006)
 24:    968.70   0.000139    0.70  0.000045  ( 0.000000 -0.006698 -0.000000)
 25:   1046.79   0.001030    5.21  0.000307  (-0.000041  0.000009  0.017526)
 26:   1066.62   0.000000    0.00  0.000000  ( 0.000011 -0.000019 -0.000001)
 27:   1078.01   0.000165    0.83  0.000048  (-0.006915  0.000000  0.000005)
 28:   1085.70   0.000012    0.06  0.000003  ( 0.000001 -0.001832  0.000003)
 29:   1113.39   0.000000    0.00  0.000000  ( 0.000034  0.000000  0.000004)
 30:   1143.31   0.000002    0.01  0.000000  (-0.000027 -0.000007 -0.000699)
 31:   1144.14   0.000000    0.00  0.000000  ( 0.000033  0.000006 -0.000000)
 32:   1183.03   0.001005    5.08  0.000265  ( 0.000000  0.016282  0.000003)
 33:   1256.13   0.002341   11.83  0.000582  ( 0.024115 -0.000001 -0.000013)
 34:   1389.43   0.000026    0.13  0.000006  (-0.002395 -0.000000 -0.000026)
 35:   1397.47   0.000036    0.18  0.000008  ( 0.000000  0.002846 -0.000011)
 36:   1413.32   0.000161    0.81  0.000036  ( 0.000002 -0.005963 -0.000003)
 37:   1419.52   0.009124   46.11  0.002006  ( 0.044787 -0.000000  0.000018)
 38:   1428.80   0.003684   18.62  0.000805  ( 0.000000 -0.028364  0.000045)
 39:   1437.94   0.002667   13.48  0.000579  ( 0.000294  0.000028 -0.024054)
 40:   1440.21   0.000000    0.00  0.000000  (-0.000189 -0.000059  0.000015)
 41:   1442.30   0.009936   50.21  0.002150  (-0.046366  0.000002 -0.000091)
 42:   1450.09   0.005028   25.41  0.001082  ( 0.032891  0.000019 -0.000395)
 43:   1450.52   0.000006    0.03  0.000001  (-0.001117  0.000300  0.000011)
 44:   1451.00   0.008497   42.94  0.001827  ( 0.000382 -0.000298  0.042745)
 45:   1452.46   0.006668   33.70  0.001433  (-0.000002  0.037849  0.000362)
 46:   1478.20   0.004586   23.18  0.000968  (-0.000002  0.031115  0.000016)
 47:   1487.57   0.001937    9.79  0.000406  ( 0.000000  0.020156  0.000016)
 48:   1490.98   0.001871    9.45  0.000392  ( 0.019787 -0.000003  0.000000)
 49:   1498.59   0.015491   78.29  0.003226  ( 0.056796  0.000000 -0.000011)
 50:   1762.18   0.001245    6.29  0.000221  ( 0.000000  0.014850 -0.000002)
 51:   3061.82   0.009525   48.14  0.000971  ( 0.031158  0.000005 -0.000012)
 52:   3062.96   0.004209   21.27  0.000429  (-0.000008  0.020707  0.000003)
 53:   3070.11   0.020374  102.96  0.002071  (-0.045507  0.000001 -0.000011)
 54:   3071.31   0.000045    0.23  0.000005  ( 0.000005  0.002128  0.000013)
 55:   3148.73   0.005098   25.76  0.000505  ( 0.000005 -0.000003  0.022477)
 56:   3148.93   0.000000    0.00  0.000000  ( 0.000002 -0.000002  0.000005)
 57:   3164.32   0.007521   38.01  0.000742  (-0.000004  0.000009  0.027234)
 58:   3164.36   0.000000    0.00  0.000000  (-0.000001  0.000005  0.000054)
 59:   3184.88   0.001871    9.45  0.000183  (-0.013539  0.000001  0.000000)
 60:   3186.19   0.002214   11.19  0.000217  (-0.000001 -0.014725  0.000001)
 61:   3211.26   0.001788    9.04  0.000174  (-0.000008 -0.013182  0.000006)
 62:   3211.47   0.000100    0.50  0.000010  ( 0.003113 -0.000035  0.000004)

* The epsilon (eps) is given for a Dirac delta lineshape.
** The dipole moment derivative (T) already includes vibrational overlap.

The first frequency considered to be a vibration is 6
The total number of vibrations considered is 57


--------------------------
THERMOCHEMISTRY AT 298.15K
--------------------------

Temperature         ... 298.15 K
Pressure            ... 1.00 atm
Total Mass          ... 124.19 AMU

Throughout the following assumptions are being made:
  (1) The electronic state is orbitally nondegenerate
  (2) There are no thermally accessible electronically excited states
  (3) Hindered rotations indicated by low frequency modes are not
      treated as such but are treated as vibrations and this may
      cause some error
  (4) All equations used are the standard statistical mechanics
      equations for an ideal gas
  (5) All vibrations are strictly harmonic

freq.     116.38  E(vib)   ...       0.44 
freq.     120.44  E(vib)   ...       0.44 
freq.     141.46  E(vib)   ...       0.41 
freq.     166.32  E(vib)   ...       0.39 
freq.     177.87  E(vib)   ...       0.37 
freq.     178.78  E(vib)   ...       0.37 
freq.     277.03  E(vib)   ...       0.28 
freq.     278.40  E(vib)   ...       0.28 
freq.     294.98  E(vib)   ...       0.27 
freq.     298.07  E(vib)   ...       0.27 
freq.     326.21  E(vib)   ...       0.24 
freq.     552.51  E(vib)   ...       0.12 
freq.     582.03  E(vib)   ...       0.11 
freq.     629.51  E(vib)   ...       0.09 
freq.     643.51  E(vib)   ...       0.09 
freq.     682.53  E(vib)   ...       0.08 
freq.     734.44  E(vib)   ...       0.06 
freq.     873.27  E(vib)   ...       0.04 
freq.     968.70  E(vib)   ...       0.03 
freq.    1046.79  E(vib)   ...       0.02 
freq.    1066.62  E(vib)   ...       0.02 
freq.    1078.01  E(vib)   ...       0.02 
freq.    1085.70  E(vib)   ...       0.02 
freq.    1113.39  E(vib)   ...       0.01 
freq.    1143.31  E(vib)   ...       0.01 
freq.    1144.14  E(vib)   ...       0.01 
freq.    1183.03  E(vib)   ...       0.01 
freq.    1256.13  E(vib)   ...       0.01 
freq.    1389.43  E(vib)   ...       0.00 
freq.    1397.47  E(vib)   ...       0.00 
freq.    1413.32  E(vib)   ...       0.00 
freq.    1419.52  E(vib)   ...       0.00 
freq.    1428.80  E(vib)   ...       0.00 
freq.    1437.94  E(vib)   ...       0.00 
freq.    1440.21  E(vib)   ...       0.00 
freq.    1442.30  E(vib)   ...       0.00 
freq.    1450.09  E(vib)   ...       0.00 
freq.    1450.52  E(vib)   ...       0.00 
freq.    1451.00  E(vib)   ...       0.00 
freq.    1452.46  E(vib)   ...       0.00 
freq.    1478.20  E(vib)   ...       0.00 
freq.    1487.57  E(vib)   ...       0.00 
freq.    1490.98  E(vib)   ...       0.00 
freq.    1498.59  E(vib)   ...       0.00 
freq.    1762.18  E(vib)   ...       0.00 
freq.    3061.82  E(vib)   ...       0.00 
freq.    3062.96  E(vib)   ...       0.00 
freq.    3070.11  E(vib)   ...       0.00 
freq.    3071.31  E(vib)   ...       0.00 
freq.    3148.73  E(vib)   ...       0.00 
freq.    3148.93  E(vib)   ...       0.00 
freq.    3164.32  E(vib)   ...       0.00 
freq.    3164.36  E(vib)   ...       0.00 
freq.    3184.88  E(vib)   ...       0.00 
freq.    3186.19  E(vib)   ...       0.00 
freq.    3211.26  E(vib)   ...       0.00 
freq.    3211.47  E(vib)   ...       0.00 

------------
INNER ENERGY
------------

The inner energy is: U= E(el) + E(ZPE) + E(vib) + E(rot) + E(trans)
    E(el)   - is the total energy from the electronic structure calculation
              = E(kin-el) + E(nuc-el) + E(el-el) + E(nuc-nuc)
    E(ZPE)  - the the zero temperature vibrational energy from the frequency calculation
    E(vib)  - the the finite temperature correction to E(ZPE) due to population
              of excited vibrational states
    E(rot)  - is the rotational thermal energy
    E(trans)- is the translational thermal energy

Summary of contributions to the inner energy U:
Electronic energy                ...   -383.08080098 Eh
Zero point energy                ...      0.18393125 Eh     115.42 kcal/mol
Thermal vibrational correction   ...      0.00727154 Eh       4.56 kcal/mol
Thermal rotational correction    ...      0.00141627 Eh       0.89 kcal/mol
Thermal translational correction ...      0.00141627 Eh       0.89 kcal/mol
-----------------------------------------------------------------------
Total thermal energy                   -382.88676564 Eh


Summary of corrections to the electronic energy:
(perhaps to be used in another calculation)
Total thermal correction                  0.01010409 Eh       6.34 kcal/mol
Non-thermal (ZPE) correction              0.18393125 Eh     115.42 kcal/mol
-----------------------------------------------------------------------
Total correction                          0.19403534 Eh     121.76 kcal/mol


--------
ENTHALPY
--------

The enthalpy is H = U + kB*T
                kB is Boltzmann's constant
Total free energy                 ...   -382.88676564 Eh 
Thermal Enthalpy correction       ...      0.00094421 Eh       0.59 kcal/mol
-----------------------------------------------------------------------
Total Enthalpy                    ...   -382.88582143 Eh


Note: Only C1 symmetry has been detected, increase convergence thresholds 
      if your molecule has a higher symmetry. Symmetry factor of 1.0 is   
      used for the rotational entropy correction. 
 

Note: Rotational entropy computed according to Herzberg 
Infrared and Raman Spectra, Chapter V,1, Van Nostrand Reinhold, 1945 
Point Group:  C1, Symmetry Number:   1  
Rotational constants in cm-1:     0.082661     0.050975     0.032305 

Vibrational entropy computed according to the QRRHO of S. Grimme
Chem.Eur.J. 2012 18 9955


-------
ENTROPY
-------

The entropy contributions are T*S = T*(S(el)+S(vib)+S(rot)+S(trans))
     S(el)   - electronic entropy
     S(vib)  - vibrational entropy
     S(rot)  - rotational entropy
     S(trans)- translational entropy
The entropies will be listed as multiplied by the temperature to get
units of energy

Electronic entropy                ...      0.00000000 Eh      0.00 kcal/mol
Vibrational entropy               ...      0.01260340 Eh      7.91 kcal/mol
Rotational entropy                ...      0.01371335 Eh      8.61 kcal/mol
Translational entropy             ...      0.01917803 Eh     12.03 kcal/mol
-----------------------------------------------------------------------
Final entropy term                ...      0.04549478 Eh     28.55 kcal/mol

In case the symmetry of your molecule has not been determined correctly
or in case you have a reason to use a different symmetry number we print 
out the resulting rotational entropy values for sn=1,12 :
 --------------------------------------------------------
|  sn= 1 | S(rot)=       0.01371335 Eh      8.61 kcal/mol|
|  sn= 2 | S(rot)=       0.01305889 Eh      8.19 kcal/mol|
|  sn= 3 | S(rot)=       0.01267606 Eh      7.95 kcal/mol|
|  sn= 4 | S(rot)=       0.01240443 Eh      7.78 kcal/mol|
|  sn= 5 | S(rot)=       0.01219375 Eh      7.65 kcal/mol|
|  sn= 6 | S(rot)=       0.01202160 Eh      7.54 kcal/mol|
|  sn= 7 | S(rot)=       0.01187606 Eh      7.45 kcal/mol|
|  sn= 8 | S(rot)=       0.01174998 Eh      7.37 kcal/mol|
|  sn= 9 | S(rot)=       0.01163877 Eh      7.30 kcal/mol|
|  sn=10 | S(rot)=       0.01153929 Eh      7.24 kcal/mol|
|  sn=11 | S(rot)=       0.01144930 Eh      7.18 kcal/mol|
|  sn=12 | S(rot)=       0.01136714 Eh      7.13 kcal/mol|
 --------------------------------------------------------


-------------------
GIBBS FREE ENERGY
-------------------

The Gibbs free energy is G = H - T*S

Total enthalpy                    ...   -382.88582143 Eh 
Total entropy correction          ...     -0.04549478 Eh    -28.55 kcal/mol
-----------------------------------------------------------------------
Final Gibbs free energy         ...   -382.93131621 Eh

For completeness - the Gibbs free energy minus the electronic energy
G-E(el)                           ...      0.14948477 Eh     93.80 kcal/mol


Timings for individual modules:

Sum of individual times         ...     2476.041 sec (=  41.267 min)
GTO integral calculation        ...        1.654 sec (=   0.028 min)   0.1 %
SCF iterations                  ...     1099.867 sec (=  18.331 min)  44.4 %
SCF Gradient evaluation         ...      262.180 sec (=   4.370 min)  10.6 %
Geometry relaxation             ...        0.300 sec (=   0.005 min)   0.0 %
Analytical frequency calculation...     1112.039 sec (=  18.534 min)  44.9 %
                             ****ORCA TERMINATED NORMALLY****
TOTAL RUN TIME: 0 days 0 hours 41 minutes 16 seconds 873 msec
