
                                 *****************
                                 * O   R   C   A *
                                 *****************

                                            #,                                       
                                            ###                                      
                                            ####                                     
                                            #####                                    
                                            ######                                   
                                           ########,                                 
                                     ,,################,,,,,                         
                               ,,#################################,,                 
                          ,,##########################################,,             
                       ,#########################################, ''#####,          
                    ,#############################################,,   '####,        
                  ,##################################################,,,,####,       
                ,###########''''           ''''###############################       
              ,#####''   ,,,,##########,,,,          '''####'''          '####       
            ,##' ,,,,###########################,,,                        '##       
           ' ,,###''''                  '''############,,,                           
         ,,##''                                '''############,,,,        ,,,,,,###''
      ,#''                                            '''#######################'''  
     '                                                          ''''####''''         
             ,#######,   #######,   ,#######,      ##                                
            ,#'     '#,  ##    ##  ,#'     '#,    #''#        ######   ,####,        
            ##       ##  ##   ,#'  ##            #'  '#       #        #'  '#        
            ##       ##  #######   ##           ,######,      #####,   #    #        
            '#,     ,#'  ##    ##  '#,     ,#' ,#      #,         ##   #,  ,#        
             '#######'   ##     ##  '#######'  #'      '#     #####' # '####'        



                  #######################################################
                  #                        -***-                        #
                  #          Department of theory and spectroscopy      #
                  #    Directorship and core code : Frank Neese         #
                  #        Max Planck Institute fuer Kohlenforschung    #
                  #                Kaiser Wilhelm Platz 1               #
                  #                 D-45470 Muelheim/Ruhr               #
                  #                      Germany                        #
                  #                                                     #
                  #                  All rights reserved                #
                  #                        -***-                        #
                  #######################################################


                         Program Version 5.0.4 -  RELEASE  -


 With contributions from (in alphabetic order):
   Daniel Aravena         : Magnetic Suceptibility
   Michael Atanasov       : Ab Initio Ligand Field Theory (pilot matlab implementation)
   Alexander A. Auer      : GIAO ZORA, VPT2 properties, NMR spectrum
   Ute Becker             : Parallelization
   Giovanni Bistoni       : ED, misc. LED, open-shell LED, HFLD
   Martin Brehm           : Molecular dynamics
   Dmytro Bykov           : SCF Hessian
   Vijay G. Chilkuri      : MRCI spin determinant printing, contributions to CSF-ICE
   Dipayan Datta          : RHF DLPNO-CCSD density
   Achintya Kumar Dutta   : EOM-CC, STEOM-CC
   Dmitry Ganyushin       : Spin-Orbit,Spin-Spin,Magnetic field MRCI
   Miquel Garcia          : C-PCM and meta-GGA Hessian, CC/C-PCM, Gaussian charge scheme
   Yang Guo               : DLPNO-NEVPT2, F12-NEVPT2, CIM, IAO-localization
   Andreas Hansen         : Spin unrestricted coupled pair/coupled cluster methods
   Benjamin Helmich-Paris : MC-RPA, TRAH-SCF, COSX integrals
   Lee Huntington         : MR-EOM, pCC
   Robert Izsak           : Overlap fitted RIJCOSX, COSX-SCS-MP3, EOM
   Marcus Kettner         : VPT2
   Christian Kollmar      : KDIIS, OOCD, Brueckner-CCSD(T), CCSD density, CASPT2, CASPT2-K
   Simone Kossmann        : Meta GGA functionals, TD-DFT gradient, OOMP2, MP2 Hessian
   Martin Krupicka        : Initial AUTO-CI
   Lucas Lang             : DCDCAS
   Marvin Lechner         : AUTO-CI (C++ implementation), FIC-MRCC
   Dagmar Lenk            : GEPOL surface, SMD
   Dimitrios Liakos       : Extrapolation schemes; Compound Job, initial MDCI parallelization
   Dimitrios Manganas     : Further ROCIS development; embedding schemes
   Dimitrios Pantazis     : SARC Basis sets
   Anastasios Papadopoulos: AUTO-CI, single reference methods and gradients
   Taras Petrenko         : DFT Hessian,TD-DFT gradient, ASA, ECA, R-Raman, ABS, FL, XAS/XES, NRVS
   Peter Pinski           : DLPNO-MP2, DLPNO-MP2 Gradient
   Christoph Reimann      : Effective Core Potentials
   Marius Retegan         : Local ZFS, SOC
   Christoph Riplinger    : Optimizer, TS searches, QM/MM, DLPNO-CCSD(T), (RO)-DLPNO pert. Triples
   Tobias Risthaus        : Range-separated hybrids, TD-DFT gradient, RPA, STAB
   Michael Roemelt        : Original ROCIS implementation
   Masaaki Saitow         : Open-shell DLPNO-CCSD energy and density
   Barbara Sandhoefer     : DKH picture change effects
   Avijit Sen             : IP-ROCIS
   Kantharuban Sivalingam : CASSCF convergence, NEVPT2, FIC-MRCI
   Bernardo de Souza      : ESD, SOC TD-DFT
   Georgi Stoychev        : AutoAux, RI-MP2 NMR, DLPNO-MP2 response
   Willem Van den Heuvel  : Paramagnetic NMR
   Boris Wezisla          : Elementary symmetry handling
   Frank Wennmohs         : Technical directorship


 We gratefully acknowledge several colleagues who have allowed us to
 interface, adapt or use parts of their codes:
   Stefan Grimme, W. Hujo, H. Kruse, P. Pracht,  : VdW corrections, initial TS optimization,
                  C. Bannwarth, S. Ehlert          DFT functionals, gCP, sTDA/sTD-DF
   Ed Valeev, F. Pavosevic, A. Kumar             : LibInt (2-el integral package), F12 methods
   Garnet Chan, S. Sharma, J. Yang, R. Olivares  : DMRG
   Ulf Ekstrom                                   : XCFun DFT Library
   Mihaly Kallay                                 : mrcc  (arbitrary order and MRCC methods)
   Jiri Pittner, Ondrej Demel                    : Mk-CCSD
   Frank Weinhold                                : gennbo (NPA and NBO analysis)
   Christopher J. Cramer and Donald G. Truhlar   : smd solvation model
   Lars Goerigk                                  : TD-DFT with DH, B97 family of functionals
   V. Asgeirsson, H. Jonsson                     : NEB implementation
   FAccTs GmbH                                   : IRC, NEB, NEB-TS, DLPNO-Multilevel, CI-OPT
                                                   MM, QMMM, 2- and 3-layer-ONIOM, Crystal-QMMM,
                                                   LR-CPCM, SF, NACMEs, symmetry and pop. for TD-DFT,
                                                   nearIR, NL-DFT gradient (VV10), updates on ESD,
                                                   ML-optimized integration grids
   S Lehtola, MJT Oliveira, MAL Marques          : LibXC Library
   Liviu Ungur et al                             : ANISO software


 Your calculation uses the libint2 library for the computation of 2-el integrals
 For citations please refer to: http://libint.valeyev.net

 Your ORCA version has been built with support for libXC version: 5.1.0
 For citations please refer to: https://tddft.org/programs/libxc/

 This ORCA versions uses:
   CBLAS   interface :  Fast vector & matrix operations
   LAPACKE interface :  Fast linear algebra routines
   SCALAPACK package :  Parallel linear algebra routines
   Shared memory     :  Shared parallel matrices
   BLAS/LAPACK       :  OpenBLAS 0.3.15  USE64BITINT DYNAMIC_ARCH NO_AFFINITY SkylakeX SINGLE_THREADED
        Core in use  :  SkylakeX
   Copyright (c) 2011-2014, The OpenBLAS Project




***************************************
The coordinates will be read from file: 2_deprot_aq_4.xyz
***************************************


Your calculation utilizes the atom-pairwise dispersion correction
based on tight binding partial charges (D4)
Cite in your paper:
E.Caldeweyher, C.Bannwarth, S.Grimme, J.Chem.Phys., (2017), 147, 034112.
E.Caldeweyher, S.Ehlert, A.Hansen, H.Neugebauer, S.Grimme, J.Chem.Phys., (2018), in progress.
   

XCFun DFT library Copyright 2009-2010 Ulf Ekstrom and contributors.
See http://admol.org/xcfun for more information.
This is free software; see the source code for copying conditions.
There is ABSOLUTELY NO WARRANTY; not even for MERCHANTABILITY or FITNESS FOR A PARTICULAR PURPOSE.
For details see the documentation.
Scientific users of this library should cite U. Ekstrom, L. Visscher, R. Bast, A. J. Thorvaldsen and K. Ruud;
J.Chem.Theor.Comp. 2010, DOI: 10.1021/ct100117s
XCFun Version 0.99 

================================================================================

----- Orbital basis set information -----
Your calculation utilizes the basis: def2-SVP
   F. Weigend and R. Ahlrichs, Phys. Chem. Chem. Phys. 7, 3297 (2005).

----- AuxJ basis set information -----
Your calculation utilizes the auxiliary basis: def2/J
   F. Weigend, Phys. Chem. Chem. Phys. 8, 1057 (2006).

================================================================================
                                        WARNINGS
                       Please study these warnings very carefully!
================================================================================


WARNING: Geometry Optimization
  ===> : Switching off AutoStart
         For restart on a previous wavefunction, please use MOREAD

INFO   : the flag for use of the SHARK integral package has been found!

================================================================================
                                       INPUT FILE
================================================================================
NAME = 2_deprot_aq_4.inp
|  1> # ORCA 5.0.4 - /users/bwb16179/postgrad/2024_03/DFT_Crest_Conformers/Opt/deprot/2_deprot_aq_4.inp # write input file
|  2> # Basic Mode
|  3> #
|  4> ! Opt Freq wB97X Def2-SVP D4 SlowConv TightSCF Defgrid2 Def2/J RIJCOSX CPCM(Water)
|  5> 
|  6> 
|  7> 
|  8> %maxcore 4500
|  9> 
| 10> %geom
| 11> Maxiter 150
| 12> END
| 13> 
| 14> * xyzfile 0 1 2_deprot_aq_4.xyz
| 15> 
| 16>                          ****END OF INPUT****
================================================================================

                       *****************************
                       * Geometry Optimization Run *
                       *****************************

Geometry optimization settings:
Update method            Update   .... BFGS
Choice of coordinates    CoordSys .... Z-matrix Internals
Initial Hessian          InHess   .... Almoef's Model

Convergence Tolerances:
Energy Change            TolE     ....  5.0000e-06 Eh
Max. Gradient            TolMAXG  ....  3.0000e-04 Eh/bohr
RMS Gradient             TolRMSG  ....  1.0000e-04 Eh/bohr
Max. Displacement        TolMAXD  ....  4.0000e-03 bohr
RMS Displacement         TolRMSD  ....  2.0000e-03 bohr
Strict Convergence                ....  False
------------------------------------------------------------------------------
                        ORCA OPTIMIZATION COORDINATE SETUP
------------------------------------------------------------------------------

The optimization will be done in new redundant internal coordinates
Making redundant internal coordinates   ...  (new redundants) done
Evaluating the initial hessian          ...  (Almloef) done
Evaluating the coordinates              ...  done
Calculating the B-matrix                .... done
Calculating the G-matrix                .... done
Diagonalizing the G-matrix              .... done
The first mode is                       ....   41
The number of degrees of freedom        ....   57

    -----------------------------------------------------------------
                    Redundant Internal Coordinates


    -----------------------------------------------------------------
         Definition                    Initial Value    Approx d2E/dq
    -----------------------------------------------------------------
      1. B(C   1,N   0)                  1.3544         0.637818   
      2. B(N   2,C   1)                  1.3597         0.625461   
      3. B(C   3,N   2)                  1.3830         0.574093   
      4. B(C   4,C   3)                  1.3617         0.693159   
      5. B(C   4,N   0)                  1.3795         0.581681   
      6. B(C   5,N   0)                  1.4325         0.478711   
      7. B(C   6,N   2)                  1.4375         0.470042   
      8. B(H   7,C   5)                  1.0933         0.355712   
      9. B(H   8,C   5)                  1.0883         0.362421   
     10. B(H   9,C   5)                  1.0933         0.355704   
     11. B(H  10,C   6)                  1.0877         0.363091   
     12. B(H  11,C   6)                  1.0918         0.357683   
     13. B(H  12,C   6)                  1.0916         0.357959   
     14. B(C  13,C   3)                  1.4908         0.431439   
     15. B(C  14,C   4)                  1.4865         0.438321   
     16. B(H  15,C  14)                  1.0910         0.358743   
     17. B(H  16,C  14)                  1.0866         0.364637   
     18. B(H  17,C  14)                  1.0910         0.358735   
     19. B(H  18,C  13)                  1.0862         0.365142   
     20. B(H  19,C  13)                  1.0905         0.359406   
     21. B(H  20,C  13)                  1.0904         0.359566   
     22. A(C   1,N   0,C   5)          123.4801         0.411173   
     23. A(C   4,N   0,C   5)          124.4569         0.404524   
     24. A(C   1,N   0,C   4)          112.0630         0.425697   
     25. A(N   0,C   1,N   2)          103.5625         0.431273   
     26. A(C   3,N   2,C   6)          127.1599         0.402289   
     27. A(C   1,N   2,C   6)          120.8614         0.408425   
     28. A(C   1,N   2,C   3)          111.9787         0.423215   
     29. A(N   2,C   3,C  13)          126.2896         0.398821   
     30. A(C   4,C   3,C  13)          127.7296         0.415005   
     31. A(N   2,C   3,C   4)          105.9808         0.433918   
     32. A(N   0,C   4,C   3)          106.4150         0.434945   
     33. A(N   0,C   4,C  14)          123.0469         0.400858   
     34. A(C   3,C   4,C  14)          130.5381         0.416175   
     35. A(H   8,C   5,H   9)          109.2177         0.290572   
     36. A(H   7,C   5,H   9)          108.5452         0.289721   
     37. A(N   0,C   5,H   9)          110.9674         0.335171   
     38. A(H   7,C   5,H   8)          109.2206         0.290573   
     39. A(N   0,C   5,H   8)          107.8920         0.336215   
     40. A(N   0,C   5,H   7)          110.9680         0.335172   
     41. A(H  10,C   6,H  11)          108.8166         0.290910   
     42. A(N   2,C   6,H  11)          109.9171         0.334463   
     43. A(H  11,C   6,H  12)          108.1628         0.290260   
     44. A(H  10,C   6,H  12)          108.8136         0.290945   
     45. A(N   2,C   6,H  12)          109.8505         0.334505   
     46. A(N   2,C   6,H  10)          111.2143         0.335298   
     47. A(H  19,C  13,H  20)          108.0658         0.290684   
     48. A(H  18,C  13,H  20)          108.0272         0.291408   
     49. A(C   3,C  13,H  20)          110.3048         0.332034   
     50. A(H  18,C  13,H  19)          108.0505         0.291387   
     51. A(C   3,C  13,H  19)          110.3533         0.332009   
     52. A(C   3,C  13,H  18)          111.9157         0.332882   
     53. A(H  16,C  14,H  17)          108.5929         0.291238   
     54. A(H  15,C  14,H  17)          107.9113         0.290494   
     55. A(C   4,C  14,H  17)          110.8462         0.332778   
     56. A(H  15,C  14,H  16)          108.6053         0.291239   
     57. A(C   4,C  14,H  16)          109.9554         0.333680   
     58. A(C   4,C  14,H  15)          110.8548         0.332779   
     59. D(N   2,C   1,N   0,C   4)     -0.0029         0.029974   
     60. D(N   2,C   1,N   0,C   5)    179.9914         0.029974   
     61. D(C   3,N   2,C   1,N   0)     -0.0146         0.028738   
     62. D(C   6,N   2,C   1,N   0)    179.9655         0.028738   
     63. D(C  13,C   3,N   2,C   1)   -179.9558         0.026400   
     64. D(C   4,C   3,N   2,C   6)   -179.9521         0.026400   
     65. D(C  13,C   3,N   2,C   6)      0.0656         0.026400   
     66. D(C   4,C   3,N   2,C   1)      0.0264         0.026400   
     67. D(N   0,C   4,C   3,C  13)    179.9555         0.033784   
     68. D(N   0,C   4,C   3,N   2)     -0.0264         0.033784   
     69. D(C  14,C   4,N   0,C   5)      0.0521         0.027148   
     70. D(C   3,C   4,N   0,C   5)   -179.9752         0.027148   
     71. D(C  14,C   4,N   0,C   1)   -179.9537         0.027148   
     72. D(C  14,C   4,C   3,N   2)    179.9436         0.033784   
     73. D(C  14,C   4,C   3,C  13)     -0.0745         0.033784   
     74. D(C   3,C   4,N   0,C   1)      0.0190         0.027148   
     75. D(H   9,C   5,N   0,C   4)     60.3936         0.019598   
     76. D(H   9,C   5,N   0,C   1)   -119.6000         0.019598   
     77. D(H   8,C   5,N   0,C   4)   -179.9941         0.019598   
     78. D(H   8,C   5,N   0,C   1)      0.0123         0.019598   
     79. D(H   7,C   5,N   0,C   4)    -60.3779         0.019598   
     80. D(H   7,C   5,N   0,C   1)    119.6285         0.019598   
     81. D(H  12,C   6,N   2,C   3)    121.1616         0.018877   
     82. D(H  12,C   6,N   2,C   1)    -58.8153         0.018877   
     83. D(H  11,C   6,N   2,C   3)   -119.9371         0.018877   
     84. D(H  11,C   6,N   2,C   1)     60.0860         0.018877   
     85. D(H  10,C   6,N   2,C   3)      0.6362         0.018877   
     86. D(H  10,C   6,N   2,C   1)   -179.3407         0.018877   
     87. D(H  19,C  13,C   3,N   2)   -119.6047         0.013745   
     88. D(H  18,C  13,C   3,C   4)   -179.2200         0.013745   
     89. D(H  18,C  13,C   3,N   2)      0.7584         0.013745   
     90. D(H  20,C  13,C   3,C   4)    -58.9194         0.013745   
     91. D(H  20,C  13,C   3,N   2)    121.0590         0.013745   
     92. D(H  19,C  13,C   3,C   4)     60.4169         0.013745   
     93. D(H  17,C  14,C   4,C   3)   -119.9688         0.014178   
     94. D(H  17,C  14,C   4,N   0)     59.9969         0.014178   
     95. D(H  16,C  14,C   4,C   3)      0.1125         0.014178   
     96. D(H  16,C  14,C   4,N   0)   -179.9218         0.014178   
     97. D(H  15,C  14,C   4,C   3)    120.2148         0.014178   
     98. D(H  15,C  14,C   4,N   0)    -59.8195         0.014178   
    -----------------------------------------------------------------

Number of atoms                         .... 21
Number of degrees of freedom            .... 98

         *************************************************************
         *                GEOMETRY OPTIMIZATION CYCLE   1            *
         *************************************************************
---------------------------------
CARTESIAN COORDINATES (ANGSTROEM)
---------------------------------
  N     -1.056326   -0.666955   -0.000186
  C      0.005989   -1.507102   -0.000159
  N      1.076018   -0.668143    0.000029
  C      0.692026    0.660520   -0.000209
  C     -0.669705    0.657222    0.000045
  C     -2.417309   -1.113915   -0.000546
  C      2.417651   -1.184231    0.000857
  H     -2.946679   -0.756651    0.886876
  H     -2.411826   -2.202152   -0.000555
  H     -2.946188   -0.756684   -0.888281
  H      3.149052   -0.379177    0.012566
  H      2.581421   -1.795901   -0.888604
  H      2.572325   -1.813192    0.879564
  C      1.601441    1.841810   -0.001025
  C     -1.638588    1.784574    0.001075
  H     -2.281034    1.745381   -0.879872
  H     -1.105710    2.731527   -0.000318
  H     -2.277755    1.746387    0.884456
  H      2.647182    1.548383   -0.014776
  H      1.433013    2.450760    0.887827
  H      1.413773    2.463207   -0.877169

----------------------------
CARTESIAN COORDINATES (A.U.)
----------------------------
  NO LB      ZA    FRAG     MASS         X           Y           Z
   0 N     7.0000    0    14.007   -1.996166   -1.260363   -0.000351
   1 C     6.0000    0    12.011    0.011318   -2.848010   -0.000300
   2 N     7.0000    0    14.007    2.033379   -1.262607    0.000055
   3 C     6.0000    0    12.011    1.307740    1.248202   -0.000394
   4 C     6.0000    0    12.011   -1.265559    1.241970    0.000085
   5 C     6.0000    0    12.011   -4.568053   -2.104994   -0.001031
   6 C     6.0000    0    12.011    4.568698   -2.237872    0.001619
   7 H     1.0000    0     1.008   -5.568416   -1.429864    1.675952
   8 H     1.0000    0     1.008   -4.557691   -4.161465   -0.001048
   9 H     1.0000    0     1.008   -5.567489   -1.429926   -1.678607
  10 H     1.0000    0     1.008    5.950845   -0.716540    0.023747
  11 H     1.0000    0     1.008    4.878179   -3.393761   -1.679218
  12 H     1.0000    0     1.008    4.860990   -3.426435    1.662135
  13 C     6.0000    0    12.011    3.026285    3.480517   -0.001937
  14 C     6.0000    0    12.011   -3.096483    3.372356    0.002032
  15 H     1.0000    0     1.008   -4.310530    3.298293   -1.662717
  16 H     1.0000    0     1.008   -2.089490    5.161838   -0.000601
  17 H     1.0000    0     1.008   -4.304333    3.300193    1.671380
  18 H     1.0000    0     1.008    5.002449    2.926020   -0.027922
  19 H     1.0000    0     1.008    2.708003    4.631266    1.677749
  20 H     1.0000    0     1.008    2.671644    4.654786   -1.657609

--------------------------------
INTERNAL COORDINATES (ANGSTROEM)
--------------------------------
 N      0   0   0     0.000000000000     0.00000000     0.00000000
 C      1   0   0     1.354384919747     0.00000000     0.00000000
 N      2   1   0     1.359710822881   103.56247293     0.00000000
 C      3   2   1     1.383038447484   111.97871466     0.00000000
 C      4   3   2     1.361735567729   105.98082856     0.02642549
 C      1   2   3     1.432497748862   123.48013823   179.99135155
 C      3   2   1     1.437472437204   120.86136948   179.96554360
 H      6   1   2     1.093337022517   110.96803941   119.62854347
 H      6   1   2     1.088251264448   107.89195781     0.00000000
 H      6   1   2     1.093343811940   110.96736809   240.40003863
 H      7   3   2     1.087748315452   111.21428229   180.65933342
 H      7   3   2     1.091833579480   109.91706955    60.08602582
 H      7   3   2     1.091623559210   109.85054734   301.18471250
 C      4   3   2     1.490799231446   126.28956115   180.04419346
 C      5   4   3     1.486491384672   130.53806509   179.94356249
 H     15   5   4     1.091027846880   110.85480727   120.21482985
 H     15   5   4     1.086591655225   109.95537891     0.11253205
 H     15   5   4     1.091033515526   110.84616963   240.03121112
 H     14   4   3     1.086214728516   111.91566499     0.75843415
 H     14   4   3     1.090524910313   110.35331215   240.39527753
 H     14   4   3     1.090404257209   110.30475764   121.05896691

---------------------------
INTERNAL COORDINATES (A.U.)
---------------------------
 N      0   0   0     0.000000000000     0.00000000     0.00000000
 C      1   0   0     2.559416578234     0.00000000     0.00000000
 N      2   1   0     2.569481076574   103.56247293     0.00000000
 C      3   2   1     2.613563898428   111.97871466     0.00000000
 C      4   3   2     2.573307289827   105.98082856     0.02642549
 C      1   2   3     2.707028432808   123.48013823   179.99135155
 C      3   2   1     2.716429231376   120.86136948   179.96554360
 H      6   1   2     2.066107544634   110.96803941   119.62854347
 H      6   1   2     2.056496854700   107.89195781     0.00000000
 H      6   1   2     2.066120374783   110.96736809   240.40003863
 H      7   3   2     2.055546418839   111.21428229   180.65933342
 H      7   3   2     2.063266449036   109.91706955    60.08602582
 H      7   3   2     2.062869568243   109.85054734   301.18471250
 C      4   3   2     2.817202268093   126.28956115   180.04419346
 C      5   4   3     2.809061617464   130.53806509   179.94356249
 H     15   5   4     2.061743835085   110.85480727   120.21482985
 H     15   5   4     2.053360647779   109.95537891     0.11253205
 H     15   5   4     2.061754547273   110.84616963   240.03121112
 H     14   4   3     2.052648359528   111.91566499     0.75843415
 H     14   4   3     2.060793422711   110.35331215   240.39527753
 H     14   4   3     2.060565421386   110.30475764   121.05896691

---------------------
BASIS SET INFORMATION
---------------------
There are 3 groups of distinct atoms

 Group   1 Type N   : 7s4p1d contracted to 3s2p1d pattern {511/31/1}
 Group   2 Type C   : 7s4p1d contracted to 3s2p1d pattern {511/31/1}
 Group   3 Type H   : 4s1p contracted to 2s1p pattern {31/1}

Atom   0N    basis set group =>   1
Atom   1C    basis set group =>   2
Atom   2N    basis set group =>   1
Atom   3C    basis set group =>   2
Atom   4C    basis set group =>   2
Atom   5C    basis set group =>   2
Atom   6C    basis set group =>   2
Atom   7H    basis set group =>   3
Atom   8H    basis set group =>   3
Atom   9H    basis set group =>   3
Atom  10H    basis set group =>   3
Atom  11H    basis set group =>   3
Atom  12H    basis set group =>   3
Atom  13C    basis set group =>   2
Atom  14C    basis set group =>   2
Atom  15H    basis set group =>   3
Atom  16H    basis set group =>   3
Atom  17H    basis set group =>   3
Atom  18H    basis set group =>   3
Atom  19H    basis set group =>   3
Atom  20H    basis set group =>   3
---------------------------------
AUXILIARY/J BASIS SET INFORMATION
---------------------------------
There are 3 groups of distinct atoms

 Group   1 Type N   : 12s5p4d2f1g contracted to 6s4p3d1f1g pattern {711111/2111/211/2/1}
 Group   2 Type C   : 12s5p4d2f1g contracted to 6s4p3d1f1g pattern {711111/2111/211/2/1}
 Group   3 Type H   : 5s2p1d contracted to 3s1p1d pattern {311/2/1}

Atom   0N    basis set group =>   1
Atom   1C    basis set group =>   2
Atom   2N    basis set group =>   1
Atom   3C    basis set group =>   2
Atom   4C    basis set group =>   2
Atom   5C    basis set group =>   2
Atom   6C    basis set group =>   2
Atom   7H    basis set group =>   3
Atom   8H    basis set group =>   3
Atom   9H    basis set group =>   3
Atom  10H    basis set group =>   3
Atom  11H    basis set group =>   3
Atom  12H    basis set group =>   3
Atom  13C    basis set group =>   2
Atom  14C    basis set group =>   2
Atom  15H    basis set group =>   3
Atom  16H    basis set group =>   3
Atom  17H    basis set group =>   3
Atom  18H    basis set group =>   3
Atom  19H    basis set group =>   3
Atom  20H    basis set group =>   3
------------------------------------------------------------------------------
                           ORCA GTO INTEGRAL CALCULATION
                           -- RI-GTO INTEGRALS CHOSEN --
------------------------------------------------------------------------------
------------------------------------------------------------------------------
                   ___                                                        
                  /   \      - P O W E R E D   B Y -                         
                 /     \                                                     
                 |  |  |   _    _      __       _____    __    __             
                 |  |  |  | |  | |    /  \     |  _  \  |  |  /  |          
                  \  \/   | |  | |   /    \    | | | |  |  | /  /          
                 / \  \   | |__| |  /  /\  \   | |_| |  |  |/  /          
                |  |  |   |  __  | /  /__\  \  |    /   |      \           
                |  |  |   | |  | | |   __   |  |    \   |  |\   \          
                \     /   | |  | | |  |  |  |  | |\  \  |  | \   \       
                 \___/    |_|  |_| |__|  |__|  |_| \__\ |__|  \__/        
                                                                              
                      - O R C A' S   B I G   F R I E N D -                    
                                      &                                       
                       - I N T E G R A L  F E E D E R -                       
                                                                              
 v1 FN, 2020, v2 2021                                                         
------------------------------------------------------------------------------


Reading SHARK input file 2_deprot_aq_4.SHARKINP.tmp ... ok
----------------------
SHARK INTEGRAL PACKAGE
----------------------

Number of atoms                             ...     21
Number of basis functions                   ...    186
Number of shells                            ...     90
Maximum angular momentum                    ...      2
Integral batch strategy                     ... SHARK/LIBINT Hybrid
RI-J (if used) integral strategy            ... SPLIT-RIJ (Revised 2003 algorithm where possible)
Printlevel                                  ...      1
Contraction scheme used                     ... SEGMENTED contraction
Coulomb Range Separation                    ... NOT USED
Exchange Range Separation                   ... Long Range
   Mu parameter                             ...  0.300000
   Scaling (regular/separated)              ...  0.157706  0.842294
Finite Nucleus Model                        ... NOT USED
Auxiliary Coulomb fitting basis             ... AVAILABLE
   # of basis functions in Aux-J            ...    573
   # of shells in Aux-J                     ...    195
   Maximum angular momentum in Aux-J        ...      4
Auxiliary J/K fitting basis                 ... NOT available
Auxiliary Correlation fitting basis         ... NOT available
Auxiliary 'external' fitting basis          ... NOT available
Integral threshold                          ...     2.500000e-11
Primitive cut-off                           ...     2.500000e-12
Primitive pair pre-selection threshold      ...     2.500000e-12

Calculating pre-screening integrals         ... done (  0.0 sec) Dimension = 90
Organizing shell pair data                  ... done (  0.0 sec)
Shell pair information
Total number of shell pairs                 ...      4095
Shell pairs after pre-screening             ...      3796
Total number of primitive shell pairs       ...     14349
Primitive shell pairs kept                  ...      9718
          la=0 lb=0:   1249 shell pairs
          la=1 lb=0:   1407 shell pairs
          la=1 lb=1:    417 shell pairs
          la=2 lb=0:    428 shell pairs
          la=2 lb=1:    252 shell pairs
          la=2 lb=2:     43 shell pairs

Calculating one electron integrals          ... done (  0.0 sec)
Calculating RI/J V-Matrix + Cholesky decomp.... done (  0.0 sec)
Calculating Nuclear repulsion               ... done (  0.0 sec) ENN=    461.874572587152 Eh

SHARK setup successfully completed in   0.2 seconds

Maximum memory used throughout the entire GTOINT-calculation: 26.5 MB
-------------------------------------------------------------------------------
                                 ORCA SCF
-------------------------------------------------------------------------------

------------
SCF SETTINGS
------------
Hamiltonian:
 Density Functional     Method          .... DFT(GTOs)
 Exchange Functional    Exchange        .... WB97X
 Correlation Functional Correlation     .... WB97X
 Gradients option       PostSCFGGA      .... off
 Hybrid DFT is turned on
   Fraction HF Exchange ScalHFX         ....  0.157706
   Scaling of DF-GGA-X  ScalDFX         ....  0.000000
   Scaling of DF-GGA-C  ScalDFC         ....  1.000000
   Scaling of DF-LDA-C  ScalLDAC        ....  1.000000
   Perturbative correction              ....  0.000000
   Density functional embedding theory  .... OFF
 Long-range corrected/Screened/Range-Separated Hybrid DFT is turned on
   Amount of maximum screened exact exchange              ....  0.842294
   Range separation parameter mu (erf(mu*r12)/r12)        ....  0.300000
 RI-approximation to the Coulomb term is turned on
   Number of AuxJ basis functions       .... 573
   RIJ-COSX (HFX calculated with COS-X)).... on


General Settings:
 Integral files         IntName         .... 2_deprot_aq_4
 Hartree-Fock type      HFTyp           .... RHF
 Total Charge           Charge          ....    0
 Multiplicity           Mult            ....    1
 Number of Electrons    NEL             ....   68
 Basis Dimension        Dim             ....  186
 Nuclear Repulsion      ENuc            ....    461.8745725872 Eh

Convergence Acceleration:
 DIIS                   CNVDIIS         .... on
   Start iteration      DIISMaxIt       ....     0
   Startup error        DIISStart       ....  0.200000
   # of expansion vecs  DIISMaxEq       ....     5
   Bias factor          DIISBfac        ....   1.050
   Max. coefficient     DIISMaxC        ....  10.000
 Trust-Rad. Augm. Hess. CNVTRAH         .... auto
   Auto Start mean grad. ratio tolernc. ....  1.125000
   Auto Start start iteration           ....    20
   Auto Start num. interpolation iter.  ....    10
   Max. Number of Micro iterations      ....    16
   Max. Number of Macro iterations      .... Maxiter - #DIIS iter
   Number of Davidson start vectors     ....     2
   Converg. threshold I  (grad. norm)   ....   1.000e-05
   Converg. threshold II (energy diff.) ....   1.000e-08
   Grad. Scal. Fac. for Micro threshold ....   0.100
   Minimum threshold for Micro iter.    ....   0.010
   NR start threshold (gradient norm)   ....   0.001
   Initial trust radius                 ....   0.400
   Minimum AH scaling param. (alpha)    ....   1.000
   Maximum AH scaling param. (alpha)    .... 1000.000
   Orbital update algorithm             .... Taylor
   White noise on init. David. guess    .... on
   Maximum white noise                  ....   0.010
   Quad. conv. algorithm                .... NR
 SOSCF                  CNVSOSCF        .... on
   Start iteration      SOSCFMaxIt      ....   150
   Startup grad/error   SOSCFStart      ....  0.001000
 Level Shifting         CNVShift        .... on
   Level shift para.    LevelShift      ....    0.2500
   Turn off err/grad.   ShiftErr        ....    0.0000
 Zerner damping         CNVZerner       .... off
 Static damping         CNVDamp         .... on
   Fraction old density DampFac         ....    0.8500
   Max. Damping (<1)    DampMax         ....    0.9800
   Min. Damping (>=0)   DampMin         ....    0.0000
   Turn off err/grad.   DampErr         ....    0.0300
 Fernandez-Rico         CNVRico         .... off

SCF Procedure:
 Maximum # iterations   MaxIter         ....   125
 SCF integral mode      SCFMode         .... Direct
   Integral package                     .... SHARK and LIBINT hybrid scheme
 Reset frequency        DirectResetFreq ....    20
 Integral Threshold     Thresh          ....  2.500e-11 Eh
 Primitive CutOff       TCut            ....  2.500e-12 Eh

Convergence Tolerance:
 Convergence Check Mode ConvCheckMode   .... Total+1el-Energy
 Convergence forced     ConvForced      .... 0
 Energy Change          TolE            ....  1.000e-08 Eh
 1-El. energy change                    ....  1.000e-05 Eh
 Orbital Gradient       TolG            ....  1.000e-05
 Orbital Rotation angle TolX            ....  1.000e-05
 DIIS Error             TolErr          ....  5.000e-07


Diagonalization of the overlap matrix:
Smallest eigenvalue                        ... 9.764e-04
Time for diagonalization                   ...    0.006 sec
Threshold for overlap eigenvalues          ... 1.000e-08
Number of eigenvalues below threshold      ... 0
Time for construction of square roots      ...    0.002 sec
Total time needed                          ...    0.009 sec

Time for model grid setup =    0.291 sec

------------------------------
INITIAL GUESS: MODEL POTENTIAL
------------------------------
Loading Hartree-Fock densities                     ... done
Calculating cut-offs                               ... done
Initializing the effective Hamiltonian             ... done
Setting up the integral package (SHARK)            ... done
Starting the Coulomb interaction                   ... done (   0.3 sec)
Reading the grid                                   ... done
Mapping shells                                     ... done
Starting the XC term evaluation                    ... done (   0.4 sec)
  promolecular density results
     # of electrons  =     67.997123220
     EX              =    -52.478873112
     EC              =     -2.253363202
     EX+EC           =    -54.732236315
Transforming the Hamiltonian                       ... done (   0.0 sec)
Diagonalizing the Hamiltonian                      ... done (   0.0 sec)
Back transforming the eigenvectors                 ... done (   0.0 sec)
Now organizing SCF variables                       ... done
                      ------------------
                      INITIAL GUESS DONE (   0.9 sec)
                      ------------------
-------------------
DFT GRID GENERATION
-------------------

General Integration Accuracy     IntAcc      ... 4.388
Radial Grid Type                 RadialGrid  ... OptM3 with GC (2021)
Angular Grid (max. ang.)         AngularGrid ... 4 (Lebedev-302)
Angular grid pruning method      GridPruning ... 4 (adaptive)
Weight generation scheme         WeightScheme... Becke
Basis function cutoff            BFCut       ... 1.0000e-11
Integration weight cutoff        WCut        ... 1.0000e-14
Angular grids for H and He will be reduced by one unit
Partially contracted basis set               ... off
Rotationally invariant grid construction     ... off

Total number of grid points                  ...    92515
Total number of batches                      ...     1457
Average number of points per batch           ...       63
Average number of grid points per atom       ...     4405
Time for grid setup =    1.124 sec

--------------------
COSX GRID GENERATION
--------------------

GRIDX 1
-------
General Integration Accuracy     IntAcc      ... 3.816
Radial Grid Type                 RadialGrid  ... OptM3 with GC (2021)
Angular Grid (max. ang.)         AngularGrid ... 1 (Lebedev-50)
Angular grid pruning method      GridPruning ... 4 (adaptive)
Weight generation scheme         WeightScheme... Becke
Basis function cutoff            BFCut       ... 1.0000e-11
Integration weight cutoff        WCut        ... 1.0000e-14
Angular grids for H and He will be reduced by one unit
Partially contracted basis set               ... on
Rotationally invariant grid construction     ... off

Total number of grid points                  ...    11850
Total number of batches                      ...      197
Average number of points per batch           ...       60
Average number of grid points per atom       ...      564
UseSFitting                                  ... on

GRIDX 2
-------
General Integration Accuracy     IntAcc      ... 4.020
Radial Grid Type                 RadialGrid  ... OptM3 with GC (2021)
Angular Grid (max. ang.)         AngularGrid ... 2 (Lebedev-110)
Angular grid pruning method      GridPruning ... 4 (adaptive)
Weight generation scheme         WeightScheme... Becke
Basis function cutoff            BFCut       ... 1.0000e-11
Integration weight cutoff        WCut        ... 1.0000e-14
Angular grids for H and He will be reduced by one unit
Partially contracted basis set               ... on
Rotationally invariant grid construction     ... off

Total number of grid points                  ...    25095
Total number of batches                      ...      404
Average number of points per batch           ...       62
Average number of grid points per atom       ...     1195
UseSFitting                                  ... on

GRIDX 3
-------
General Integration Accuracy     IntAcc      ... 4.338
Radial Grid Type                 RadialGrid  ... OptM3 with GC (2021)
Angular Grid (max. ang.)         AngularGrid ... 3 (Lebedev-194)
Angular grid pruning method      GridPruning ... 4 (adaptive)
Weight generation scheme         WeightScheme... Becke
Basis function cutoff            BFCut       ... 1.0000e-11
Integration weight cutoff        WCut        ... 1.0000e-14
Angular grids for H and He will be reduced by one unit
Partially contracted basis set               ... on
Rotationally invariant grid construction     ... off

Total number of grid points                  ...    54847
Total number of batches                      ...      867
Average number of points per batch           ...       63
Average number of grid points per atom       ...     2612
UseSFitting                                  ... on

Time for X-Grid setup             =    1.434 sec


--------------------
CPCM SOLVATION MODEL
--------------------
CPCM parameters:
  Epsilon                                         ...      80.4000
  Refrac                                          ...       1.3300
  Rsolv                                           ...       1.3000
  Surface type                                    ... GAUSSIAN VDW
  Epsilon function type                           ...         CPCM
Radii:
 Radius for N  used is    3.5149 Bohr (=   1.8600 Ang.)
 Radius for C  used is    3.8550 Bohr (=   2.0400 Ang.)
 Radius for H  used is    2.4944 Bohr (=   1.3200 Ang.)
Calculating surface                               ...        done! (  0.0s)
GEPOL surface points                              ...         1149
GEPOL Volume                                      ...    1160.7758
GEPOL Surface-area                                ...     656.3964
Calculating surface distance matrix               ...        done! (  0.0s)
Performing Cholesky decomposition & store         ...        done! (  0.0s)
Overall time for CPCM initialization              ...                 0.1s
--------------
SCF ITERATIONS
--------------
ITER       Energy         Delta-E        Max-DP      RMS-DP      [F,P]     Damp
               ***  Starting incremental Fock matrix formation  ***
  0   -382.8885682845   0.000000000000 0.03959628  0.00082021  0.1525185 0.8500
  1   -382.9247688741  -0.036200589601 0.04220921  0.00077678  0.1238297 0.8500
                               ***Turning on DIIS***
  2   -382.9529127394  -0.028143865299 0.03698762  0.00064146  0.0960748 0.8500
  3   -382.9742339927  -0.021321253323 0.02972352  0.00046821  0.0736940 0.8500
  4   -382.9908638324  -0.016629839716 0.02426405  0.00036175  0.0590436 0.8500
  5   -383.0040533285  -0.013189496054 0.02032717  0.00029741  0.0489875 0.8500
  6   -383.0147947913  -0.010741462816 0.01726232  0.00025103  0.0412766 0.8500
  7   -383.0236826342  -0.008887842931 0.01483881  0.00021598  0.0349875 0.8500
  8   -383.0311083997  -0.007425765426 0.08531748  0.00123915  0.0296017 0.0000
  9   -383.0710369208  -0.039928521144 0.00136042  0.00004113  0.0011429 0.0000
                      *** Initiating the SOSCF procedure ***
                           *** Shutting down DIIS ***
                      *** Re-Reading the Fockian *** 
                      *** Removing any level shift *** 
ITER      Energy       Delta-E        Grad      Rot      Max-DP    RMS-DP
 10   -383.07105318  -0.0000162582  0.000293  0.000293  0.000547  0.000020
               *** Restarting incremental Fock matrix formation ***
 11   -383.07116350  -0.0001103248  0.000252  0.000590  0.000687  0.000018
 12   -383.07116435  -0.0000008466  0.000079  0.000382  0.000356  0.000012
 13   -383.07116459  -0.0000002390  0.000028  0.000028  0.000200  0.000004
 14   -383.07116462  -0.0000000347  0.000006  0.000013  0.000083  0.000002
 15   -383.07116463  -0.0000000101  0.000005  0.000012  0.000019  0.000000
                  ***Gradient check signals convergence***
              ***Rediagonalizing the Fockian in SOSCF/NRSCF***

               *****************************************************
               *                     SUCCESS                       *
               *           SCF CONVERGED AFTER  16 CYCLES          *
               *****************************************************

Old exchange energy                            =    -17.426362972 Eh
New exchange energy                            =    -17.426336277 Eh
Exchange energy change after final integration =      0.000026696 Eh
Total energy after final integration           =   -383.071137940 Eh
Final COS-X integration done in                =    33.396 sec

----------------
TOTAL SCF ENERGY
----------------

Total Energy       :         -383.07113794 Eh          -10423.89560 eV

Components:
Nuclear Repulsion  :          461.87457259 Eh           12568.24608 eV
Electronic Energy  :         -844.94571053 Eh          -22992.14168 eV
One Electron Energy:        -1431.73255318 Eh          -38959.42343 eV
Two Electron Energy:          586.78684265 Eh           15967.28175 eV
Max COSX asymmetry :            0.00000203 Eh               0.00006 eV
CPCM Dielectric    :           -0.01681150 Eh              -0.45746 eV

Virial components:
Potential Energy   :         -761.87202681 Eh          -20731.59182 eV
Kinetic Energy     :          378.80088887 Eh           10307.69622 eV
Virial Ratio       :            2.01127307


DFT components:
N(Alpha)           :       34.000045019182 electrons
N(Beta)            :       34.000045019182 electrons
N(Total)           :       68.000090038363 electrons
E(XC)              :      -38.776338359575 Eh       
DFET-embed. en.    :        0.000000000000 Eh       
CPCM Solvation Model Properties:
Surface-charge          :           -0.02220779
Charge-correction       :           -0.00050774 Eh              -0.01382 eV
Free-energy (cav+disp)  :  This term is not implemented in the current solvation scheme

---------------
SCF CONVERGENCE
---------------

  Last Energy change         ...   -1.7353e-09  Tolerance :   1.0000e-08
  Last MAX-Density change    ...    3.9968e-15  Tolerance :   1.0000e-07
  Last RMS-Density change    ...    4.4447e-17  Tolerance :   5.0000e-09
  Last Orbital Gradient      ...    1.2148e-06  Tolerance :   1.0000e-05
  Last Orbital Rotation      ...    3.3738e-06  Tolerance :   1.0000e-05

             **** THE GBW FILE WAS UPDATED (2_deprot_aq_4.gbw) ****
             **** DENSITY 2_deprot_aq_4.scfp WAS UPDATED ****
             **** ENERGY FILE WAS UPDATED (2_deprot_aq_4.en.tmp) ****
             **** THE GBW FILE WAS UPDATED (2_deprot_aq_4.gbw) ****
             **** DENSITY 2_deprot_aq_4.scfp WAS UPDATED ****
----------------
ORBITAL ENERGIES
----------------

  NO   OCC          E(Eh)            E(eV) 
   0   2.0000     -14.442825      -393.0092 
   1   2.0000     -14.442717      -393.0063 
   2   2.0000     -10.295138      -280.1449 
   3   2.0000     -10.295102      -280.1440 
   4   2.0000     -10.289616      -279.9947 
   5   2.0000     -10.284753      -279.8624 
   6   2.0000     -10.268560      -279.4217 
   7   2.0000     -10.268457      -279.4189 
   8   2.0000     -10.266545      -279.3669 
   9   2.0000      -1.145327       -31.1659 
  10   2.0000      -1.037414       -28.2295 
  11   2.0000      -0.916657       -24.9435 
  12   2.0000      -0.871814       -23.7233 
  13   2.0000      -0.853213       -23.2171 
  14   2.0000      -0.787478       -21.4284 
  15   2.0000      -0.776025       -21.1167 
  16   2.0000      -0.683136       -18.5891 
  17   2.0000      -0.677943       -18.4478 
  18   2.0000      -0.614007       -16.7080 
  19   2.0000      -0.596903       -16.2426 
  20   2.0000      -0.552611       -15.0373 
  21   2.0000      -0.549588       -14.9550 
  22   2.0000      -0.530874       -14.4458 
  23   2.0000      -0.527316       -14.3490 
  24   2.0000      -0.526440       -14.3252 
  25   2.0000      -0.510089       -13.8802 
  26   2.0000      -0.505961       -13.7679 
  27   2.0000      -0.491511       -13.3747 
  28   2.0000      -0.476704       -12.9718 
  29   2.0000      -0.469623       -12.7791 
  30   2.0000      -0.466644       -12.6980 
  31   2.0000      -0.363716        -9.8972 
  32   2.0000      -0.317286        -8.6338 
  33   2.0000      -0.298089        -8.1114 
  34   0.0000       0.128159         3.4874 
  35   0.0000       0.136885         3.7248 
  36   0.0000       0.148754         4.0478 
  37   0.0000       0.167590         4.5604 
  38   0.0000       0.191412         5.2086 
  39   0.0000       0.206255         5.6125 
  40   0.0000       0.206971         5.6320 
  41   0.0000       0.219595         5.9755 
  42   0.0000       0.229688         6.2501 
  43   0.0000       0.245471         6.6796 
  44   0.0000       0.247712         6.7406 
  45   0.0000       0.258666         7.0386 
  46   0.0000       0.259539         7.0624 
  47   0.0000       0.284739         7.7482 
  48   0.0000       0.291080         7.9207 
  49   0.0000       0.310488         8.4488 
  50   0.0000       0.312810         8.5120 
  51   0.0000       0.338436         9.2093 
  52   0.0000       0.369255        10.0480 
  53   0.0000       0.385208        10.4820 
  54   0.0000       0.426431        11.6038 
  55   0.0000       0.450362        12.2550 
  56   0.0000       0.466050        12.6819 
  57   0.0000       0.485806        13.2195 
  58   0.0000       0.494139        13.4462 
  59   0.0000       0.499919        13.6035 
  60   0.0000       0.530249        14.4288 
  61   0.0000       0.550209        14.9719 
  62   0.0000       0.573863        15.6156 
  63   0.0000       0.582349        15.8465 
  64   0.0000       0.592601        16.1255 
  65   0.0000       0.631718        17.1899 
  66   0.0000       0.632517        17.2117 
  67   0.0000       0.643783        17.5182 
  68   0.0000       0.663520        18.0553 
  69   0.0000       0.668010        18.1775 
  70   0.0000       0.706559        19.2265 
  71   0.0000       0.715932        19.4815 
  72   0.0000       0.734490        19.9865 
  73   0.0000       0.737887        20.0789 
  74   0.0000       0.751397        20.4465 
  75   0.0000       0.757643        20.6165 
  76   0.0000       0.764442        20.8015 
  77   0.0000       0.773203        21.0399 
  78   0.0000       0.776261        21.1231 
  79   0.0000       0.783773        21.3276 
  80   0.0000       0.785453        21.3733 
  81   0.0000       0.786905        21.4128 
  82   0.0000       0.796226        21.6664 
  83   0.0000       0.807732        21.9795 
  84   0.0000       0.823242        22.4016 
  85   0.0000       0.823398        22.4058 
  86   0.0000       0.835737        22.7416 
  87   0.0000       0.843004        22.9393 
  88   0.0000       0.853595        23.2275 
  89   0.0000       0.867566        23.6077 
  90   0.0000       0.877437        23.8763 
  91   0.0000       0.940554        25.5938 
  92   0.0000       0.994763        27.0689 
  93   0.0000       0.996269        27.1099 
  94   0.0000       1.013295        27.5731 
  95   0.0000       1.054650        28.6985 
  96   0.0000       1.073726        29.2176 
  97   0.0000       1.118617        30.4391 
  98   0.0000       1.158658        31.5287 
  99   0.0000       1.214695        33.0535 
 100   0.0000       1.233496        33.5651 
 101   0.0000       1.279985        34.8302 
 102   0.0000       1.299567        35.3630 
 103   0.0000       1.314010        35.7560 
 104   0.0000       1.325080        36.0573 
 105   0.0000       1.336190        36.3596 
 106   0.0000       1.413566        38.4651 
 107   0.0000       1.433803        39.0158 
 108   0.0000       1.549297        42.1585 
 109   0.0000       1.563846        42.5544 
 110   0.0000       1.572057        42.7778 
 111   0.0000       1.623515        44.1781 
 112   0.0000       1.641557        44.6691 
 113   0.0000       1.643818        44.7306 
 114   0.0000       1.652702        44.9723 
 115   0.0000       1.656881        45.0860 
 116   0.0000       1.657386        45.0998 
 117   0.0000       1.668824        45.4110 
 118   0.0000       1.692557        46.0568 
 119   0.0000       1.737951        47.2920 
 120   0.0000       1.760077        47.8941 
 121   0.0000       1.800506        48.9943 
 122   0.0000       1.829695        49.7885 
 123   0.0000       1.877574        51.0914 
 124   0.0000       1.889333        51.4114 
 125   0.0000       1.896197        51.5981 
 126   0.0000       1.897634        51.6372 
 127   0.0000       1.915704        52.1290 
 128   0.0000       1.920541        52.2606 
 129   0.0000       1.922054        52.3018 
 130   0.0000       1.927123        52.4397 
 131   0.0000       1.944528        52.9133 
 132   0.0000       1.952420        53.1280 
 133   0.0000       1.966478        53.5106 
 134   0.0000       1.995580        54.3025 
 135   0.0000       2.016017        54.8586 
 136   0.0000       2.038618        55.4736 
 137   0.0000       2.063622        56.1540 
 138   0.0000       2.087436        56.8020 
 139   0.0000       2.107395        57.3451 
 140   0.0000       2.130120        57.9635 
 141   0.0000       2.164655        58.9033 
 142   0.0000       2.171760        59.0966 
 143   0.0000       2.216859        60.3238 
 144   0.0000       2.226064        60.5743 
 145   0.0000       2.233104        60.7658 
 146   0.0000       2.266317        61.6696 
 147   0.0000       2.276591        61.9492 
 148   0.0000       2.309024        62.8317 
 149   0.0000       2.350596        63.9630 
 150   0.0000       2.387827        64.9761 
 151   0.0000       2.396770        65.2194 
 152   0.0000       2.401512        65.3485 
 153   0.0000       2.431201        66.1563 
 154   0.0000       2.443574        66.4930 
 155   0.0000       2.522833        68.6498 
 156   0.0000       2.535619        68.9977 
 157   0.0000       2.559818        69.6562 
 158   0.0000       2.581534        70.2471 
 159   0.0000       2.588208        70.4287 
 160   0.0000       2.637827        71.7789 
 161   0.0000       2.650724        72.1299 
 162   0.0000       2.681574        72.9693 
 163   0.0000       2.697016        73.3895 
 164   0.0000       2.792213        75.9800 
 165   0.0000       2.803538        76.2882 
 166   0.0000       2.803961        76.2997 
 167   0.0000       2.874578        78.2212 
 168   0.0000       2.881003        78.3961 
 169   0.0000       2.923351        79.5484 
 170   0.0000       2.924736        79.5861 
 171   0.0000       2.928512        79.6889 
 172   0.0000       2.938784        79.9684 
 173   0.0000       3.030507        82.4643 
 174   0.0000       3.033523        82.5464 
 175   0.0000       3.041891        82.7741 
 176   0.0000       3.073173        83.6253 
 177   0.0000       3.086995        84.0014 
 178   0.0000       3.094314        84.2006 
 179   0.0000       3.109770        84.6212 
 180   0.0000       3.142365        85.5081 
 181   0.0000       3.158530        85.9480 
 182   0.0000       3.328896        90.5839 
 183   0.0000       3.431918        93.3872 
 184   0.0000       3.454236        93.9945 
 185   0.0000       3.552653        96.6726 

                    ********************************
                    * MULLIKEN POPULATION ANALYSIS *
                    ********************************

-----------------------
MULLIKEN ATOMIC CHARGES
-----------------------
   0 N :   -0.219973
   1 C :   -0.251101
   2 N :   -0.229268
   3 C :   -0.123186
   4 C :   -0.137884
   5 C :    0.106795
   6 C :    0.110781
   7 H :    0.051443
   8 H :    0.045474
   9 H :    0.051480
  10 H :    0.052069
  11 H :    0.049108
  12 H :    0.048849
  13 C :    0.072798
  14 C :    0.101560
  15 H :    0.046959
  16 H :    0.033831
  17 H :    0.047073
  18 H :    0.034516
  19 H :    0.054397
  20 H :    0.054279
Sum of atomic charges:    0.0000000

--------------------------------
MULLIKEN REDUCED ORBITAL CHARGES
--------------------------------
  0 N s       :     3.390640  s :     3.390640
      pz      :     1.513085  p :     3.795985
      px      :     1.156441
      py      :     1.126460
      dz2     :     0.002215  d :     0.033347
      dxz     :     0.004570
      dyz     :     0.005893
      dx2y2   :     0.011497
      dxy     :     0.009172
  1 C s       :     3.624051  s :     3.624051
      pz      :     0.730242  p :     2.561800
      px      :     0.664266
      py      :     1.167292
      dz2     :     0.007651  d :     0.065250
      dxz     :     0.012006
      dyz     :     0.009455
      dx2y2   :     0.008003
      dxy     :     0.028135
  2 N s       :     3.393250  s :     3.393250
      pz      :     1.527233  p :     3.803305
      px      :     1.159885
      py      :     1.116187
      dz2     :     0.002196  d :     0.032713
      dxz     :     0.004175
      dyz     :     0.006061
      dx2y2   :     0.011035
      dxy     :     0.009245
  3 C s       :     3.094835  s :     3.094835
      pz      :     1.088201  p :     2.970625
      px      :     1.014803
      py      :     0.867622
      dz2     :     0.004306  d :     0.057726
      dxz     :     0.009439
      dyz     :     0.010770
      dx2y2   :     0.019505
      dxy     :     0.013706
  4 C s       :     3.102099  s :     3.102099
      pz      :     1.090399  p :     2.977974
      px      :     0.989842
      py      :     0.897733
      dz2     :     0.004381  d :     0.057811
      dxz     :     0.010207
      dyz     :     0.009703
      dx2y2   :     0.019506
      dxy     :     0.014014
  5 C s       :     2.973908  s :     2.973908
      pz      :     1.041491  p :     2.879627
      px      :     0.809245
      py      :     1.028891
      dz2     :     0.006949  d :     0.039670
      dxz     :     0.011791
      dyz     :     0.002861
      dx2y2   :     0.011344
      dxy     :     0.006724
  6 C s       :     2.971871  s :     2.971871
      pz      :     1.051457  p :     2.877729
      px      :     0.816083
      py      :     1.010188
      dz2     :     0.007149  d :     0.039619
      dxz     :     0.006344
      dyz     :     0.007988
      dx2y2   :     0.007490
      dxy     :     0.010648
  7 H s       :     0.925053  s :     0.925053
      pz      :     0.012267  p :     0.023503
      px      :     0.005497
      py      :     0.005740
  8 H s       :     0.931001  s :     0.931001
      pz      :     0.004888  p :     0.023525
      px      :     0.002683
      py      :     0.015954
  9 H s       :     0.925017  s :     0.925017
      pz      :     0.012272  p :     0.023504
      px      :     0.005491
      py      :     0.005740
 10 H s       :     0.923421  s :     0.923421
      pz      :     0.005237  p :     0.024510
      px      :     0.008496
      py      :     0.010777
 11 H s       :     0.927491  s :     0.927491
      pz      :     0.012245  p :     0.023402
      px      :     0.003054
      py      :     0.008103
 12 H s       :     0.927738  s :     0.927738
      pz      :     0.012082  p :     0.023413
      px      :     0.003024
      py      :     0.008307
 13 C s       :     2.898147  s :     2.898147
      pz      :     1.033519  p :     3.001665
      px      :     0.988227
      py      :     0.979919
      dz2     :     0.005350  d :     0.027391
      dxz     :     0.001913
      dyz     :     0.008912
      dx2y2   :     0.005028
      dxy     :     0.006187
 14 C s       :     2.873286  s :     2.873286
      pz      :     1.030275  p :     2.997470
      px      :     0.986028
      py      :     0.981167
      dz2     :     0.005297  d :     0.027683
      dxz     :     0.009180
      dyz     :     0.002034
      dx2y2   :     0.003389
      dxy     :     0.007784
 15 H s       :     0.928326  s :     0.928326
      pz      :     0.012010  p :     0.024715
      px      :     0.008349
      py      :     0.004356
 16 H s       :     0.941410  s :     0.941410
      pz      :     0.004988  p :     0.024759
      px      :     0.007031
      py      :     0.012740
 17 H s       :     0.928210  s :     0.928210
      pz      :     0.012047  p :     0.024717
      px      :     0.008312
      py      :     0.004358
 18 H s       :     0.940141  s :     0.940141
      pz      :     0.005188  p :     0.025343
      px      :     0.014833
      py      :     0.005322
 19 H s       :     0.920837  s :     0.920837
      pz      :     0.012048  p :     0.024766
      px      :     0.004975
      py      :     0.007744
 20 H s       :     0.920945  s :     0.920945
      pz      :     0.011857  p :     0.024776
      px      :     0.005033
      py      :     0.007886


                     *******************************
                     * LOEWDIN POPULATION ANALYSIS *
                     *******************************

----------------------
LOEWDIN ATOMIC CHARGES
----------------------
   0 N :    0.030770
   1 C :   -0.336559
   2 N :    0.021630
   3 C :   -0.049314
   4 C :   -0.054375
   5 C :    0.029022
   6 C :    0.030658
   7 H :    0.031565
   8 H :    0.032710
   9 H :    0.031566
  10 H :    0.032169
  11 H :    0.031672
  12 H :    0.031733
  13 C :   -0.055840
  14 C :   -0.053936
  15 H :    0.040297
  16 H :    0.041909
  17 H :    0.040339
  18 H :    0.037933
  19 H :    0.042989
  20 H :    0.043062

-------------------------------
LOEWDIN REDUCED ORBITAL CHARGES
-------------------------------
  0 N s       :     3.054503  s :     3.054503
      pz      :     1.441749  p :     3.836618
      px      :     1.192283
      py      :     1.202587
      dz2     :     0.004195  d :     0.078108
      dxz     :     0.007588
      dyz     :     0.011674
      dx2y2   :     0.028980
      dxy     :     0.025671
  1 C s       :     3.204079  s :     3.204079
      pz      :     0.779195  p :     2.990917
      px      :     0.823048
      py      :     1.388674
      dz2     :     0.017469  d :     0.141563
      dxz     :     0.026475
      dyz     :     0.013170
      dx2y2   :     0.018843
      dxy     :     0.065606
  2 N s       :     3.057418  s :     3.057418
      pz      :     1.454755  p :     3.844336
      px      :     1.193717
      py      :     1.195864
      dz2     :     0.004133  d :     0.076615
      dxz     :     0.007100
      dyz     :     0.011740
      dx2y2   :     0.027882
      dxy     :     0.025760
  3 C s       :     2.839854  s :     2.839854
      pz      :     1.065484  p :     3.069821
      px      :     1.055453
      py      :     0.948884
      dz2     :     0.009495  d :     0.139639
      dxz     :     0.019283
      dyz     :     0.020553
      dx2y2   :     0.053284
      dxy     :     0.037024
  4 C s       :     2.837872  s :     2.837872
      pz      :     1.072596  p :     3.076289
      px      :     1.056246
      py      :     0.947448
      dz2     :     0.009665  d :     0.140214
      dxz     :     0.020024
      dyz     :     0.019237
      dx2y2   :     0.053281
      dxy     :     0.038008
  5 C s       :     2.822022  s :     2.822022
      pz      :     1.083106  p :     3.049787
      px      :     0.900550
      py      :     1.066131
      dz2     :     0.017523  d :     0.099169
      dxz     :     0.030524
      dyz     :     0.006460
      dx2y2   :     0.029104
      dxy     :     0.015559
  6 C s       :     2.821203  s :     2.821203
      pz      :     1.089516  p :     3.049717
      px      :     0.905999
      py      :     1.054203
      dz2     :     0.017692  d :     0.098422
      dxz     :     0.014069
      dyz     :     0.021972
      dx2y2   :     0.017818
      dxy     :     0.026871
  7 H s       :     0.902823  s :     0.902823
      pz      :     0.032824  p :     0.065612
      px      :     0.017125
      py      :     0.015663
  8 H s       :     0.900534  s :     0.900534
      pz      :     0.013027  p :     0.066756
      px      :     0.009193
      py      :     0.044536
  9 H s       :     0.902823  s :     0.902823
      pz      :     0.032837  p :     0.065611
      px      :     0.017111
      py      :     0.015663
 10 H s       :     0.899964  s :     0.899964
      pz      :     0.013790  p :     0.067867
      px      :     0.024575
      py      :     0.029502
 11 H s       :     0.902661  s :     0.902661
      pz      :     0.032993  p :     0.065667
      px      :     0.010366
      py      :     0.022308
 12 H s       :     0.902558  s :     0.902558
      pz      :     0.032552  p :     0.065709
      px      :     0.010281
      py      :     0.022876
 13 C s       :     2.813944  s :     2.813944
      pz      :     1.077730  p :     3.168503
      px      :     1.050009
      py      :     1.040764
      dz2     :     0.014372  d :     0.073393
      dxz     :     0.003849
      dyz     :     0.023789
      dx2y2   :     0.014023
      dxy     :     0.017361
 14 C s       :     2.813101  s :     2.813101
      pz      :     1.073898  p :     3.166458
      px      :     1.047322
      py      :     1.045238
      dz2     :     0.014377  d :     0.074378
      dxz     :     0.024628
      dyz     :     0.004045
      dx2y2   :     0.009504
      dxy     :     0.021825
 15 H s       :     0.892524  s :     0.892524
      pz      :     0.031702  p :     0.067179
      px      :     0.022498
      py      :     0.012979
 16 H s       :     0.890570  s :     0.890570
      pz      :     0.013209  p :     0.067521
      px      :     0.019604
      py      :     0.034708
 17 H s       :     0.892481  s :     0.892481
      pz      :     0.031803  p :     0.067180
      px      :     0.022396
      py      :     0.012981
 18 H s       :     0.892890  s :     0.892890
      pz      :     0.013684  p :     0.069177
      px      :     0.039968
      py      :     0.015526
 19 H s       :     0.889795  s :     0.889795
      pz      :     0.032052  p :     0.067216
      px      :     0.013737
      py      :     0.021427
 20 H s       :     0.889701  s :     0.889701
      pz      :     0.031534  p :     0.067238
      px      :     0.013904
      py      :     0.021800


                      *****************************
                      * MAYER POPULATION ANALYSIS *
                      *****************************

  NA   - Mulliken gross atomic population
  ZA   - Total nuclear charge
  QA   - Mulliken gross atomic charge
  VA   - Mayer's total valence
  BVA  - Mayer's bonded valence
  FA   - Mayer's free valence

  ATOM       NA         ZA         QA         VA         BVA        FA
  0 N      7.2200     7.0000    -0.2200     3.4192     3.4192     0.0000
  1 C      6.2511     6.0000    -0.2511     2.7049     2.7049     0.0000
  2 N      7.2293     7.0000    -0.2293     3.3863     3.3863     0.0000
  3 C      6.1232     6.0000    -0.1232     4.0273     4.0273     0.0000
  4 C      6.1379     6.0000    -0.1379     4.0555     4.0555     0.0000
  5 C      5.8932     6.0000     0.1068     3.8992     3.8992    -0.0000
  6 C      5.8892     6.0000     0.1108     3.8988     3.8988    -0.0000
  7 H      0.9486     1.0000     0.0514     0.9926     0.9926     0.0000
  8 H      0.9545     1.0000     0.0455     1.0221     1.0221    -0.0000
  9 H      0.9485     1.0000     0.0515     0.9926     0.9926     0.0000
 10 H      0.9479     1.0000     0.0521     1.0023     1.0023     0.0000
 11 H      0.9509     1.0000     0.0491     1.0010     1.0010     0.0000
 12 H      0.9512     1.0000     0.0488     1.0016     1.0016    -0.0000
 13 C      5.9272     6.0000     0.0728     3.9488     3.9488     0.0000
 14 C      5.8984     6.0000     0.1016     3.9459     3.9459     0.0000
 15 H      0.9530     1.0000     0.0470     0.9943     0.9943     0.0000
 16 H      0.9662     1.0000     0.0338     1.0049     1.0049    -0.0000
 17 H      0.9529     1.0000     0.0471     0.9943     0.9943    -0.0000
 18 H      0.9655     1.0000     0.0345     1.0089     1.0089     0.0000
 19 H      0.9456     1.0000     0.0544     0.9920     0.9920    -0.0000
 20 H      0.9457     1.0000     0.0543     0.9922     0.9922    -0.0000

  Mayer bond orders larger than 0.100000
B(  0-N ,  1-C ) :   1.2560 B(  0-N ,  4-C ) :   1.1414 B(  0-N ,  5-C ) :   0.9634 
B(  1-C ,  2-N ) :   1.2288 B(  2-N ,  3-C ) :   1.1426 B(  2-N ,  6-C ) :   0.9486 
B(  3-C ,  4-C ) :   1.6421 B(  3-C , 13-C ) :   1.0768 B(  4-C , 14-C ) :   1.0956 
B(  5-C ,  7-H ) :   0.9752 B(  5-C ,  8-H ) :   0.9690 B(  5-C ,  9-H ) :   0.9752 
B(  6-C , 10-H ) :   0.9744 B(  6-C , 11-H ) :   0.9773 B(  6-C , 12-H ) :   0.9771 
B( 13-C , 18-H ) :   0.9491 B( 13-C , 19-H ) :   0.9548 B( 13-C , 20-H ) :   0.9547 
B( 14-C , 15-H ) :   0.9500 B( 14-C , 16-H ) :   0.9407 B( 14-C , 17-H ) :   0.9500 


-------
TIMINGS
-------

Total SCF time: 0 days 0 hours 4 min 0 sec 

Total time                  ....     240.328 sec
Sum of individual times     ....     239.721 sec  ( 99.7%)

Fock matrix formation       ....     236.089 sec  ( 98.2%)
  Split-RI-J                ....       8.942 sec  (  3.8% of F)
  Chain of spheres X        ....     188.760 sec  ( 80.0% of F)
  XC integration            ....      24.186 sec  ( 10.2% of F)
    Basis function eval.    ....       8.983 sec  ( 37.1% of XC)
    Density eval.           ....       5.263 sec  ( 21.8% of XC)
    XC-Functional eval.     ....       3.541 sec  ( 14.6% of XC)
    XC-Potential eval.      ....       5.684 sec  ( 23.5% of XC)
Diagonalization             ....       0.073 sec  (  0.0%)
Density matrix formation    ....       0.010 sec  (  0.0%)
Population analysis         ....       0.008 sec  (  0.0%)
Initial guess               ....       0.639 sec  (  0.3%)
Orbital Transformation      ....       0.000 sec  (  0.0%)
Orbital Orthonormalization  ....       0.000 sec  (  0.0%)
DIIS solution               ....       0.024 sec  (  0.0%)
SOSCF solution              ....       0.029 sec  (  0.0%)
Grid generation             ....       2.849 sec  (  1.2%)

Maximum memory used throughout the entire SCF-calculation: 77.4 MB


-------------------------------------------------------------------------------
                          DFT DISPERSION CORRECTION                            
                                                                               
                                 DFTD4 V2.5                                    
-------------------------------------------------------------------------------
The WB97X functional is recognized
Active option DFTDOPT                   ...         5   

Starting D4
-------------------------   ----------------
Dispersion correction           -0.002989523
-------------------------   ----------------


-------------------------   --------------------
FINAL SINGLE POINT ENERGY      -383.074127463517
-------------------------   --------------------

------------------------------------------------------------------------------
                         ORCA SCF GRADIENT CALCULATION
------------------------------------------------------------------------------

 ... reading COSX grid (gridx3)
Gradient of the Kohn-Sham DFT energy:
Kohn-Sham wavefunction type      ... RKS
Hartree-Fock exchange scaling    ...    0.158
Number of operators              ...    1
Number of atoms                  ...   21
Basis set dimensions             ...  186
Integral neglect threshold       ... 2.5e-11
Integral primitive cutoff        ... 2.5e-12
SHARK Integral package           ... ON

Nuc. rep. gradient       (SHARK) ... done (  0.0 sec)
HCore & Overlap gradient (SHARK) ... done (  0.3 sec)
RI-J gradient            (SHARK) ... done (  1.9 sec)
COSX-gradient                    ... done ( 36.0 sec)
Exchange-correlation gradient    ... done
Dispersion correction            ... Starting D4


------------------- 
Dispersion Gradient 
------------------- 
   1  :   -0.000014837   -0.000010505   -0.000000002
   2  :    0.000000455   -0.000023017   -0.000000002
   3  :    0.000014824   -0.000010431   -0.000000001
   4  :    0.000008576    0.000003414   -0.000000002
   5  :   -0.000008089    0.000002415   -0.000000001
   6  :   -0.000052791   -0.000022322   -0.000000013
   7  :    0.000052286   -0.000025281    0.000000014
   8  :   -0.000007497   -0.000006099   -0.000000793
   9  :   -0.000008568   -0.000005703   -0.000000004
  10  :   -0.000007499   -0.000006104    0.000000787
  11  :    0.000007160   -0.000006708    0.000000005
  12  :    0.000008513   -0.000006363    0.000000363
  13  :    0.000008524   -0.000006356   -0.000000353
  14  :    0.000032920    0.000039771   -0.000000014
  15  :   -0.000034204    0.000036919    0.000000020
  16  :   -0.000007635    0.000006431   -0.000000157
  17  :   -0.000006491    0.000008938    0.000000009
  18  :   -0.000007640    0.000006437    0.000000169
  19  :    0.000006997    0.000006615   -0.000000019
  20  :    0.000007507    0.000008963    0.000000625
  21  :    0.000007489    0.000008986   -0.000000632

  |G| =    0.000120436

done

------------------
CARTESIAN GRADIENT
------------------

   1   N   :   -0.013492352    0.003934046   -0.000003706
   2   C   :   -0.000655680    0.007807694   -0.000031811
   3   N   :    0.012612830    0.004177574   -0.000086483
   4   C   :    0.002975637   -0.007258765    0.000083319
   5   C   :   -0.001316875   -0.006054841    0.000035003
   6   C   :    0.004849492   -0.000106550   -0.000002318
   7   C   :   -0.002910588    0.003563658    0.000156772
   8   H   :    0.002961339   -0.001452714   -0.004110044
   9   H   :    0.000869698    0.005766850   -0.000002159
  10   H   :    0.002955407   -0.001454193    0.004107635
  11   H   :   -0.003725891   -0.004479558   -0.000102031
  12   H   :   -0.002125809    0.002217118    0.004310769
  13   H   :   -0.002073193    0.002363388   -0.004313729
  14   C   :    0.003956724    0.004046891   -0.000084364
  15   C   :   -0.003445653    0.006077904    0.000027655
  16   H   :    0.004989078   -0.001208027    0.005680770
  17   H   :   -0.003121896   -0.007702782    0.000015694
  18   H   :    0.004969490   -0.001212717   -0.005697999
  19   H   :   -0.007727087    0.001181457    0.000087584
  20   H   :   -0.000201294   -0.004871287   -0.005298949
  21   H   :    0.000006152   -0.004976300    0.005227373

Difference to translation invariance:
           :    0.0003495272    0.0003588468   -0.0000010171

Difference to rotation invariance:
           :   -0.0000347244    0.0000748808   -0.0010295790

Norm of the cartesian gradient     ...    0.0345302790
RMS gradient                       ...    0.0043504062
MAX gradient                       ...    0.0134923524

-------
TIMINGS
-------

Total SCF gradient time            ...       47.666 sec

One electron gradient       ....       0.345 sec  (  0.7%)
RI-J Coulomb gradient       ....       1.873 sec  (  3.9%)
COSX gradient               ....      36.027 sec  ( 75.6%)
XC gradient                 ....       7.441 sec  ( 15.6%)
CPCM gradient               ....       0.732 sec  (  1.5%)
   A-Matrix (El+Nuc)        ....       0.066 sec  (  0.1%)
   Potential                ....       0.665 sec  (  1.4%)

Maximum memory used throughout the entire SCFGRAD-calculation: 62.8 MB
------------------------------------------------------------------------------
                         ORCA GEOMETRY RELAXATION STEP
------------------------------------------------------------------------------

Reading the OPT-File                    .... done
Getting information on internals        .... done
Copying old internal coords+grads       .... done
Making the new internal coordinates     .... (new redundants).... done
Validating the new internal coordinates .... (new redundants).... done
Calculating the B-matrix                .... done
Calculating the G,G- and P matrices     .... done
Transforming gradient to internals      .... done
Projecting the internal gradient        .... done
Number of atoms                         ....  21
Number of internal coordinates          ....  98
Current Energy                          ....  -383.074127464 Eh
Current gradient norm                   ....     0.034530279 Eh/bohr
Maximum allowed component of the step   ....  0.300
Current trust radius                    ....  0.300
Evaluating the initial hessian          ....  (Almloef) done
Projecting the Hessian                  .... done
Forming the augmented Hessian           .... done
Diagonalizing the augmented Hessian     .... done
Last element of RFO vector              ....  0.996351338
Lowest eigenvalues of augmented Hessian:
 -0.002929906  0.013745337  0.014178462  0.018877292  0.019598236
Length of the computed step             ....  0.085658957
The final length of the internal step   ....  0.085658957
Converting the step to cartesian space:
 Initial RMS(Int)=    0.0086528613
Transforming coordinates:
 Iter   0:  RMS(Cart)=    0.0188077252 RMS(Int)=    0.8975864963
 Iter   1:  RMS(Cart)=    0.0001153065 RMS(Int)=    0.0000504115
 Iter   2:  RMS(Cart)=    0.0000013486 RMS(Int)=    0.0000007474
 Iter   3:  RMS(Cart)=    0.0000000122 RMS(Int)=    0.0000000071
done
Storing new coordinates                 .... done

                                .--------------------.
          ----------------------|Geometry convergence|-------------------------
          Item                value                   Tolerance       Converged
          ---------------------------------------------------------------------
          RMS gradient        0.0035369825            0.0001000000      NO
          MAX gradient        0.0118364537            0.0003000000      NO
          RMS step            0.0086528613            0.0020000000      NO
          MAX step            0.0245752886            0.0040000000      NO
          ........................................................
          Max(Bonds)      0.0130      Max(Angles)    0.67
          Max(Dihed)        0.38      Max(Improp)    0.00
          ---------------------------------------------------------------------

The optimization has not yet converged - more geometry cycles are needed


    ---------------------------------------------------------------------------
                         Redundant Internal Coordinates
                            (Angstroem and degrees)

        Definition                    Value    dE/dq     Step     New-Value
    ----------------------------------------------------------------------------
     1. B(C   1,N   0)                1.3544 -0.002638  0.0022    1.3565   
     2. B(N   2,C   1)                1.3597 -0.001470  0.0012    1.3609   
     3. B(C   3,N   2)                1.3830 -0.010483  0.0096    1.3926   
     4. B(C   4,C   3)                1.3617 -0.000171  0.0002    1.3619   
     5. B(C   4,N   0)                1.3795 -0.010025  0.0091    1.3886   
     6. B(C   5,N   0)                1.4325 -0.011836  0.0130    1.4455   
     7. B(C   6,N   2)                1.4375 -0.011460  0.0128    1.4503   
     8. B(H   7,C   5)                1.0933 -0.005248  0.0077    1.1011   
     9. B(H   8,C   5)                1.0883 -0.005738  0.0083    1.0966   
    10. B(H   9,C   5)                1.0933 -0.005241  0.0077    1.1011   
    11. B(H  10,C   6)                1.0877 -0.005837  0.0084    1.0962   
    12. B(H  11,C   6)                1.0918 -0.005070  0.0074    1.0993   
    13. B(H  12,C   6)                1.0916 -0.005124  0.0075    1.0991   
    14. B(C  13,C   3)                1.4908 -0.006170  0.0075    1.4983   
    15. B(C  14,C   4)                1.4865 -0.005290  0.0063    1.4928   
[...]
     11      -0.000013   0.000290   0.000344   0.000058  -0.000003  -0.000282
     12       0.000282  -0.000005   0.000011   0.000000  -0.001156   0.000005
     13       0.000135   0.000003   0.000014  -0.000001   0.000352   0.000002
     14      -0.000002  -0.000171   0.000344  -0.000146  -0.000003   0.000018
     15      -0.001898   0.000004  -0.000002  -0.000014   0.000143  -0.000003
     16      -0.000113   0.000009  -0.000003   0.000215  -0.000516   0.000009
     17       0.000002   0.000787   0.002047   0.095183   0.000026  -0.000016
     18       0.039780   0.000001  -0.000066   0.000002   0.000075  -0.000475
     19      -0.031928   0.000010  -0.000339   0.000008   0.000325   0.000749
     20      -0.001353   0.000043   0.000055   0.000032   0.000070  -0.095475
     21       0.010836   0.003059   0.007249   0.333052  -0.000358   0.000215
     22      -0.007262  -0.001441  -0.005187  -0.246072   0.000753  -0.000074
     23      -0.018136  -0.004552  -0.012202  -0.568860   0.000321  -0.000153
     24       0.000377  -0.000008   0.000007  -0.000008   0.000331  -0.000003
     25       0.014988  -0.000116   0.000097  -0.000307   0.004756  -0.000076
     26      -0.000031  -0.000309   0.000232   0.010731  -0.000007   0.000004
     27       0.010824  -0.003109  -0.007227  -0.332872  -0.000532  -0.000203
     28      -0.007184   0.001476   0.005136   0.243803   0.000880   0.000062
     29       0.018164  -0.004675  -0.012209  -0.570064  -0.000624  -0.000118
     30      -0.273629  -0.000040   0.001397  -0.000045  -0.001550   0.013607
     31      -0.329413  -0.000035   0.001389  -0.000048  -0.001826   0.016395
     32      -0.008769   0.000003  -0.000051  -0.000019  -0.000040  -0.010265
     33      -0.100383   0.000089  -0.000347   0.000028   0.000378  -0.109955
     34       0.342579  -0.000300   0.000757  -0.000117  -0.001107   0.385667
     35       0.529084  -0.000433   0.001231  -0.000188  -0.001758   0.575283
     36      -0.089435  -0.000059  -0.000297  -0.000011   0.000217   0.100998
     37       0.352938   0.000234   0.001471   0.000071  -0.000625  -0.410321
     38      -0.504284  -0.000308  -0.002098  -0.000107   0.000969   0.565548
     39      -0.000312   0.000070  -0.000679   0.000004  -0.001063   0.000927
     40       0.008329  -0.000120   0.001855  -0.000036   0.000662  -0.000593
     41       0.000455   0.005457  -0.093668   0.001991   0.000115  -0.000085
     42      -0.000586   0.000099  -0.000074   0.000021  -0.065387  -0.000057
     43       0.000411   0.000235  -0.000058   0.000015  -0.066323  -0.000056
     44       0.000002   0.093558   0.005311  -0.000896   0.000221   0.000057
     45       0.005336  -0.420895  -0.024741   0.003716   0.177369  -0.000155
     46      -0.000149  -0.021737  -0.001820   0.001084   0.002220   0.000061
     47       0.007063  -0.561866  -0.032432   0.005237   0.254642  -0.000131
     48      -0.002444   0.000867   0.000563  -0.000120   0.438627   0.000364
     49      -0.004860   0.001576   0.000852  -0.000214   0.779563   0.000661
     50       0.000027   0.011098   0.000586  -0.000711  -0.003950  -0.000016
     51       0.005293   0.418856   0.025043  -0.003850   0.174668   0.000477
     52      -0.000198   0.017264   0.001519  -0.001030   0.000012  -0.000055
     53      -0.007052  -0.564413  -0.033232   0.005482  -0.253364  -0.000598
     54      -0.027055   0.001088  -0.024446   0.000633   0.010777  -0.009819
     55       0.012043  -0.000318   0.007436  -0.000196  -0.002825   0.002712
     56       0.000784   0.000661  -0.011248   0.000234  -0.000366   0.000221
     57       0.012386   0.005311  -0.095645   0.002110   0.000425  -0.000297
     58      -0.051911  -0.023019   0.389697  -0.008141  -0.002235   0.002289
     59      -0.078850  -0.033471   0.571401  -0.012031  -0.003334   0.003475
     60       0.015888  -0.007243   0.128807  -0.002811   0.000349  -0.000667
     61      -0.052592   0.024699  -0.417778   0.008728  -0.001663   0.001946
     62       0.072486  -0.032588   0.554886  -0.011664   0.002341  -0.002850
                 60         61         62    
      0      -0.000021  -0.000370   0.000040
      1      -0.000009   0.000171  -0.000010
      2      -0.000002   0.000000  -0.000001
      3       0.000143  -0.000124   0.000079
      4      -0.000041  -0.000028  -0.000085
      5       0.000004  -0.000000  -0.000005
      6      -0.000680   0.000046   0.000531
      7      -0.000028  -0.000270  -0.000111
      8      -0.000013   0.000001  -0.000006
      9       0.000630  -0.000100  -0.000399
     10       0.000875  -0.000010  -0.000036
     11       0.000012   0.000000   0.000019
     12      -0.000007  -0.000504   0.000049
     13       0.000154  -0.000090   0.000235
     14       0.000027  -0.000000   0.000003
     15      -0.000020  -0.020851   0.000073
     16       0.000192   0.091925  -0.000199
     17      -0.000019  -0.000215  -0.000001
     18       0.010089  -0.000093  -0.040075
     19       0.023614  -0.000191  -0.080180
     20      -0.000948   0.000009  -0.000556
     21       0.000188   0.135853  -0.000425
     22      -0.000139  -0.094674   0.000302
     23      -0.000365  -0.244595   0.000702
     24      -0.000054  -0.011608   0.000048
     25      -0.002175  -0.903455   0.001804
     26      -0.000009   0.001817  -0.000005
     27       0.000260   0.135929  -0.000419
     28      -0.000191  -0.093818   0.000291
     29       0.000489   0.245327  -0.000691
     30      -0.146651   0.001626   0.557593
     31      -0.169069   0.001816   0.670536
     32      -0.004602   0.000048   0.017430
     33       0.014784  -0.000156  -0.046474
     34      -0.044529   0.000389   0.139886
     35      -0.072560   0.000599   0.230170
     36       0.016763  -0.000177  -0.045490
     37      -0.059843   0.000537   0.160038
     38       0.088425  -0.000757  -0.241240
     39      -0.076807   0.000134  -0.020608
     40       0.044943  -0.000078   0.010837
     41       0.001115  -0.000010   0.000551
     42       0.000950  -0.000188   0.000056
     43       0.000750  -0.000316  -0.000038
     44       0.000035  -0.000005  -0.000001
     45      -0.003290   0.000549  -0.000484
     46      -0.000183  -0.000564   0.000034
     47      -0.004392   0.001296  -0.000530
     48      -0.004589   0.002449   0.000217
     49      -0.009449   0.004028   0.000189
     50       0.000045  -0.000017  -0.000004
     51      -0.002901   0.000486  -0.000468
     52      -0.000124  -0.000564   0.000028
     53       0.003981  -0.001217   0.000534
     54       0.839898  -0.001392   0.237596
     55      -0.246471   0.000452  -0.074365
     56      -0.028388   0.000050  -0.007649
     57       0.026243  -0.000082   0.005747
     58      -0.140542   0.000198  -0.032467
     59      -0.221400   0.000309  -0.051443
     60       0.043863  -0.000090   0.009389
     61      -0.166698   0.000175  -0.036882
     62       0.236292  -0.000250   0.052691


-----------
IR SPECTRUM
-----------

 Mode   freq       eps      Int      T**2         TX        TY        TZ
       cm**-1   L/(mol*cm) km/mol    a.u.
----------------------------------------------------------------------------
  8:    114.73   0.000168    0.85  0.000456  (-0.000068  0.000039 -0.021350)
  9:    135.68   0.000034    0.17  0.000077  (-0.000036 -0.000249  0.008775)
 10:    166.22   0.000529    2.67  0.000992  (-0.000218 -0.000185  0.031500)
 11:    174.07   0.003702   18.71  0.006637  ( 0.000081  0.000089  0.081469)
 12:    264.24   0.000204    1.03  0.000241  ( 0.013069  0.008353 -0.000672)
 13:    271.48   0.000035    0.18  0.000040  (-0.001718  0.000319 -0.006104)
 14:    288.19   0.001268    6.41  0.001373  (-0.014663  0.034033  0.000171)
 15:    341.60   0.000001    0.00  0.000000  ( 0.000378  0.000482  0.000339)
 16:    348.92   0.000676    3.41  0.000604  (-0.017281 -0.017483 -0.000045)
 17:    555.07   0.000535    2.70  0.000301  ( 0.016392  0.005670  0.000053)
 18:    581.76   0.001216    6.15  0.000653  ( 0.025542  0.000387  0.000033)
 19:    630.17   0.000678    3.43  0.000336  (-0.002685 -0.018118 -0.000396)
 20:    643.58   0.000992    5.01  0.000481  (-0.000397 -0.000217  0.021929)
 21:    683.31   0.000019    0.09  0.000009  (-0.000114 -0.000008 -0.002921)
 22:    734.70   0.002831   14.31  0.001202  (-0.001942  0.034622 -0.000058)
 23:    866.78   0.002988   15.10  0.001076  (-0.032084  0.006809  0.000026)
 24:    969.17   0.001580    7.99  0.000509  (-0.022302 -0.003375  0.000134)
 25:   1030.97   0.000924    4.67  0.000280  ( 0.001557  0.000848  0.016629)
 26:   1063.25   0.000119    0.60  0.000035  ( 0.001201  0.000383 -0.005779)
 27:   1077.95   0.000523    2.64  0.000151  (-0.011947 -0.002931 -0.000121)
 28:   1085.16   0.001381    6.98  0.000397  (-0.019671  0.003169 -0.000122)
 29:   1124.40   0.000411    2.08  0.000114  (-0.002456  0.010390 -0.000232)
 30:   1137.16   0.000036    0.18  0.000010  ( 0.001496 -0.000829 -0.002627)
 31:   1143.76   0.000002    0.01  0.000001  ( 0.000143 -0.000007  0.000750)
 32:   1186.36   0.002258   11.41  0.000594  ( 0.000328  0.024368  0.000089)
 33:   1255.90   0.000953    4.82  0.000237  (-0.014687 -0.004593 -0.000309)
 34:   1390.93   0.000113    0.57  0.000025  ( 0.005025  0.000120  0.000039)
 35:   1396.49   0.000344    1.74  0.000077  (-0.002457  0.008408 -0.000299)
 36:   1409.09   0.001955    9.88  0.000433  ( 0.020717  0.001804 -0.000789)
 37:   1423.19   0.009175   46.37  0.002012  (-0.040584  0.019100 -0.000161)
 38:   1434.18   0.008387   42.38  0.001825  ( 0.042633 -0.002297 -0.001424)
 39:   1438.74   0.003515   17.77  0.000763  ( 0.002975  0.001201 -0.027427)
 40:   1444.32   0.000287    1.45  0.000062  (-0.002131 -0.003376 -0.006787)
 41:   1445.41   0.004866   24.59  0.001051  ( 0.020762  0.024891 -0.000127)
 42:   1447.37   0.003918   19.80  0.000845  (-0.022766 -0.017563 -0.004252)
 43:   1451.01   0.003411   17.24  0.000734  ( 0.000263 -0.001394 -0.027049)
 44:   1451.82   0.004522   22.85  0.000972  ( 0.005979 -0.004797  0.030221)
 45:   1456.68   0.001022    5.17  0.000219  (-0.013029  0.005360  0.004528)
 46:   1471.66   0.003278   16.57  0.000695  ( 0.022013 -0.014368 -0.002019)
 47:   1487.84   0.008722   44.08  0.001829  (-0.028186 -0.032159  0.000813)
 48:   1494.83   0.005986   30.25  0.001250  ( 0.035342  0.000393 -0.000650)
 49:   1509.64   0.004085   20.64  0.000844  (-0.024337  0.015872 -0.000476)
 50:   1747.79   0.000757    3.82  0.000135  (-0.001562  0.011518 -0.000091)
 51:   3061.54   0.006447   32.58  0.000657  ( 0.020736 -0.015073  0.000008)
 52:   3071.67   0.011601   58.63  0.001179  ( 0.034138  0.003631  0.000037)
 53:   3075.36   0.004499   22.74  0.000457  (-0.008250 -0.019700 -0.000598)
 54:   3090.15   0.009358   47.29  0.000945  ( 0.028871 -0.010556 -0.000382)
 55:   3147.39   0.002931   14.81  0.000291  ( 0.000058  0.000023  0.017049)
 56:   3159.25   0.001520    7.68  0.000150  (-0.000212  0.000156 -0.012251)
 57:   3165.99   0.003671   18.55  0.000362  ( 0.000005  0.000036  0.019021)
 58:   3183.57   0.001906    9.63  0.000187  (-0.009920 -0.009401  0.000047)
 59:   3185.85   0.003079   15.56  0.000302  ( 0.000053 -0.000046 -0.017366)
 60:   3200.43   0.001776    8.97  0.000173  (-0.008769  0.009811 -0.000004)
 61:   3212.57   0.000906    4.58  0.000088  (-0.001928  0.009183 -0.000028)
 62:   3224.10   0.001480    7.48  0.000143  (-0.008478 -0.008450 -0.000036)

* The epsilon (eps) is given for a Dirac delta lineshape.
** The dipole moment derivative (T) already includes vibrational overlap.

The first frequency considered to be a vibration is 8
The total number of vibrations considered is 55


--------------------------
THERMOCHEMISTRY AT 298.15K
--------------------------

Temperature         ... 298.15 K
Pressure            ... 1.00 atm
Total Mass          ... 124.19 AMU

Throughout the following assumptions are being made:
  (1) The electronic state is orbitally nondegenerate
  (2) There are no thermally accessible electronically excited states
  (3) Hindered rotations indicated by low frequency modes are not
      treated as such but are treated as vibrations and this may
      cause some error
  (4) All equations used are the standard statistical mechanics
      equations for an ideal gas
  (5) All vibrations are strictly harmonic

freq.     114.73  E(vib)   ...       0.44 
freq.     135.68  E(vib)   ...       0.42 
freq.     166.22  E(vib)   ...       0.39 
freq.     174.07  E(vib)   ...       0.38 
freq.     264.24  E(vib)   ...       0.29 
freq.     271.48  E(vib)   ...       0.29 
freq.     288.19  E(vib)   ...       0.27 
freq.     341.60  E(vib)   ...       0.23 
freq.     348.92  E(vib)   ...       0.23 
freq.     555.07  E(vib)   ...       0.12 
freq.     581.76  E(vib)   ...       0.11 
freq.     630.17  E(vib)   ...       0.09 
freq.     643.58  E(vib)   ...       0.09 
freq.     683.31  E(vib)   ...       0.08 
freq.     734.70  E(vib)   ...       0.06 
freq.     866.78  E(vib)   ...       0.04 
freq.     969.17  E(vib)   ...       0.03 
freq.    1030.97  E(vib)   ...       0.02 
freq.    1063.25  E(vib)   ...       0.02 
freq.    1077.95  E(vib)   ...       0.02 
freq.    1085.16  E(vib)   ...       0.02 
freq.    1124.40  E(vib)   ...       0.01 
freq.    1137.16  E(vib)   ...       0.01 
freq.    1143.76  E(vib)   ...       0.01 
freq.    1186.36  E(vib)   ...       0.01 
freq.    1255.90  E(vib)   ...       0.01 
freq.    1390.93  E(vib)   ...       0.00 
freq.    1396.49  E(vib)   ...       0.00 
freq.    1409.09  E(vib)   ...       0.00 
freq.    1423.19  E(vib)   ...       0.00 
freq.    1434.18  E(vib)   ...       0.00 
freq.    1438.74  E(vib)   ...       0.00 
freq.    1444.32  E(vib)   ...       0.00 
freq.    1445.41  E(vib)   ...       0.00 
freq.    1447.37  E(vib)   ...       0.00 
freq.    1451.01  E(vib)   ...       0.00 
freq.    1451.82  E(vib)   ...       0.00 
freq.    1456.68  E(vib)   ...       0.00 
freq.    1471.66  E(vib)   ...       0.00 
freq.    1487.84  E(vib)   ...       0.00 
freq.    1494.83  E(vib)   ...       0.00 
freq.    1509.64  E(vib)   ...       0.00 
freq.    1747.79  E(vib)   ...       0.00 
freq.    3061.54  E(vib)   ...       0.00 
freq.    3071.67  E(vib)   ...       0.00 
freq.    3075.36  E(vib)   ...       0.00 
freq.    3090.15  E(vib)   ...       0.00 
freq.    3147.39  E(vib)   ...       0.00 
freq.    3159.25  E(vib)   ...       0.00 
freq.    3165.99  E(vib)   ...       0.00 
freq.    3183.57  E(vib)   ...       0.00 
freq.    3185.85  E(vib)   ...       0.00 
freq.    3200.43  E(vib)   ...       0.00 
freq.    3212.57  E(vib)   ...       0.00 
freq.    3224.10  E(vib)   ...       0.00 

------------
INNER ENERGY
------------

The inner energy is: U= E(el) + E(ZPE) + E(vib) + E(rot) + E(trans)
    E(el)   - is the total energy from the electronic structure calculation
              = E(kin-el) + E(nuc-el) + E(el-el) + E(nuc-nuc)
    E(ZPE)  - the the zero temperature vibrational energy from the frequency calculation
    E(vib)  - the the finite temperature correction to E(ZPE) due to population
              of excited vibrational states
    E(rot)  - is the rotational thermal energy
    E(trans)- is the translational thermal energy

Summary of contributions to the inner energy U:
Electronic energy                ...   -383.07584808 Eh
Zero point energy                ...      0.18351427 Eh     115.16 kcal/mol
Thermal vibrational correction   ...      0.00595782 Eh       3.74 kcal/mol
Thermal rotational correction    ...      0.00141627 Eh       0.89 kcal/mol
Thermal translational correction ...      0.00141627 Eh       0.89 kcal/mol
-----------------------------------------------------------------------
Total thermal energy                   -382.88354344 Eh


Summary of corrections to the electronic energy:
(perhaps to be used in another calculation)
Total thermal correction                  0.00879037 Eh       5.52 kcal/mol
Non-thermal (ZPE) correction              0.18351427 Eh     115.16 kcal/mol
-----------------------------------------------------------------------
Total correction                          0.19230463 Eh     120.67 kcal/mol


--------
ENTHALPY
--------

The enthalpy is H = U + kB*T
                kB is Boltzmann's constant
Total free energy                 ...   -382.88354344 Eh 
Thermal Enthalpy correction       ...      0.00094421 Eh       0.59 kcal/mol
-----------------------------------------------------------------------
Total Enthalpy                    ...   -382.88259923 Eh


Note: Only C1 symmetry has been detected, increase convergence thresholds 
      if your molecule has a higher symmetry. Symmetry factor of 1.0 is   
      used for the rotational entropy correction. 
 

Note: Rotational entropy computed according to Herzberg 
Infrared and Raman Spectra, Chapter V,1, Van Nostrand Reinhold, 1945 
Point Group:  C1, Symmetry Number:   1  
Rotational constants in cm-1:     0.080285     0.051703     0.032219 

Vibrational entropy computed according to the QRRHO of S. Grimme
Chem.Eur.J. 2012 18 9955


-------
ENTROPY
-------

The entropy contributions are T*S = T*(S(el)+S(vib)+S(rot)+S(trans))
     S(el)   - electronic entropy
     S(vib)  - vibrational entropy
     S(rot)  - rotational entropy
     S(trans)- translational entropy
The entropies will be listed as multiplied by the temperature to get
units of energy

Electronic entropy                ...      0.00000000 Eh      0.00 kcal/mol
Vibrational entropy               ...      0.01006579 Eh      6.32 kcal/mol
Rotational entropy                ...      0.01372167 Eh      8.61 kcal/mol
Translational entropy             ...      0.01917803 Eh     12.03 kcal/mol
-----------------------------------------------------------------------
Final entropy term                ...      0.04296550 Eh     26.96 kcal/mol

In case the symmetry of your molecule has not been determined correctly
or in case you have a reason to use a different symmetry number we print 
out the resulting rotational entropy values for sn=1,12 :
 --------------------------------------------------------
|  sn= 1 | S(rot)=       0.01372167 Eh      8.61 kcal/mol|
|  sn= 2 | S(rot)=       0.01306722 Eh      8.20 kcal/mol|
|  sn= 3 | S(rot)=       0.01268438 Eh      7.96 kcal/mol|
|  sn= 4 | S(rot)=       0.01241276 Eh      7.79 kcal/mol|
|  sn= 5 | S(rot)=       0.01220207 Eh      7.66 kcal/mol|
|  sn= 6 | S(rot)=       0.01202993 Eh      7.55 kcal/mol|
|  sn= 7 | S(rot)=       0.01188438 Eh      7.46 kcal/mol|
|  sn= 8 | S(rot)=       0.01175830 Eh      7.38 kcal/mol|
|  sn= 9 | S(rot)=       0.01164710 Eh      7.31 kcal/mol|
|  sn=10 | S(rot)=       0.01154762 Eh      7.25 kcal/mol|
|  sn=11 | S(rot)=       0.01145763 Eh      7.19 kcal/mol|
|  sn=12 | S(rot)=       0.01137547 Eh      7.14 kcal/mol|
 --------------------------------------------------------


-------------------
GIBBS FREE ENERGY
-------------------

The Gibbs free energy is G = H - T*S

Total enthalpy                    ...   -382.88259923 Eh 
Total entropy correction          ...     -0.04296550 Eh    -26.96 kcal/mol
-----------------------------------------------------------------------
Final Gibbs free energy         ...   -382.92556473 Eh

For completeness - the Gibbs free energy minus the electronic energy
G-E(el)                           ...      0.15028334 Eh     94.30 kcal/mol


Timings for individual modules:

Sum of individual times         ...     1997.372 sec (=  33.290 min)
GTO integral calculation        ...        1.543 sec (=   0.026 min)   0.1 %
SCF iterations                  ...      939.641 sec (=  15.661 min)  47.0 %
SCF Gradient evaluation         ...      238.578 sec (=   3.976 min)  11.9 %
Geometry relaxation             ...        0.256 sec (=   0.004 min)   0.0 %
Analytical frequency calculation...      817.352 sec (=  13.623 min)  40.9 %
                             ****ORCA TERMINATED NORMALLY****
TOTAL RUN TIME: 0 days 0 hours 33 minutes 18 seconds 161 msec
