
                                 *****************
                                 * O   R   C   A *
                                 *****************

                                            #,                                       
                                            ###                                      
                                            ####                                     
                                            #####                                    
                                            ######                                   
                                           ########,                                 
                                     ,,################,,,,,                         
                               ,,#################################,,                 
                          ,,##########################################,,             
                       ,#########################################, ''#####,          
                    ,#############################################,,   '####,        
                  ,##################################################,,,,####,       
                ,###########''''           ''''###############################       
              ,#####''   ,,,,##########,,,,          '''####'''          '####       
            ,##' ,,,,###########################,,,                        '##       
           ' ,,###''''                  '''############,,,                           
         ,,##''                                '''############,,,,        ,,,,,,###''
      ,#''                                            '''#######################'''  
     '                                                          ''''####''''         
             ,#######,   #######,   ,#######,      ##                                
            ,#'     '#,  ##    ##  ,#'     '#,    #''#        ######   ,####,        
            ##       ##  ##   ,#'  ##            #'  '#       #        #'  '#        
            ##       ##  #######   ##           ,######,      #####,   #    #        
            '#,     ,#'  ##    ##  '#,     ,#' ,#      #,         ##   #,  ,#        
             '#######'   ##     ##  '#######'  #'      '#     #####' # '####'        



                  #######################################################
                  #                        -***-                        #
                  #          Department of theory and spectroscopy      #
                  #    Directorship and core code : Frank Neese         #
                  #        Max Planck Institute fuer Kohlenforschung    #
                  #                Kaiser Wilhelm Platz 1               #
                  #                 D-45470 Muelheim/Ruhr               #
                  #                      Germany                        #
                  #                                                     #
                  #                  All rights reserved                #
                  #                        -***-                        #
                  #######################################################


                         Program Version 5.0.4 -  RELEASE  -


 With contributions from (in alphabetic order):
   Daniel Aravena         : Magnetic Suceptibility
   Michael Atanasov       : Ab Initio Ligand Field Theory (pilot matlab implementation)
   Alexander A. Auer      : GIAO ZORA, VPT2 properties, NMR spectrum
   Ute Becker             : Parallelization
   Giovanni Bistoni       : ED, misc. LED, open-shell LED, HFLD
   Martin Brehm           : Molecular dynamics
   Dmytro Bykov           : SCF Hessian
   Vijay G. Chilkuri      : MRCI spin determinant printing, contributions to CSF-ICE
   Dipayan Datta          : RHF DLPNO-CCSD density
   Achintya Kumar Dutta   : EOM-CC, STEOM-CC
   Dmitry Ganyushin       : Spin-Orbit,Spin-Spin,Magnetic field MRCI
   Miquel Garcia          : C-PCM and meta-GGA Hessian, CC/C-PCM, Gaussian charge scheme
   Yang Guo               : DLPNO-NEVPT2, F12-NEVPT2, CIM, IAO-localization
   Andreas Hansen         : Spin unrestricted coupled pair/coupled cluster methods
   Benjamin Helmich-Paris : MC-RPA, TRAH-SCF, COSX integrals
   Lee Huntington         : MR-EOM, pCC
   Robert Izsak           : Overlap fitted RIJCOSX, COSX-SCS-MP3, EOM
   Marcus Kettner         : VPT2
   Christian Kollmar      : KDIIS, OOCD, Brueckner-CCSD(T), CCSD density, CASPT2, CASPT2-K
   Simone Kossmann        : Meta GGA functionals, TD-DFT gradient, OOMP2, MP2 Hessian
   Martin Krupicka        : Initial AUTO-CI
   Lucas Lang             : DCDCAS
   Marvin Lechner         : AUTO-CI (C++ implementation), FIC-MRCC
   Dagmar Lenk            : GEPOL surface, SMD
   Dimitrios Liakos       : Extrapolation schemes; Compound Job, initial MDCI parallelization
   Dimitrios Manganas     : Further ROCIS development; embedding schemes
   Dimitrios Pantazis     : SARC Basis sets
   Anastasios Papadopoulos: AUTO-CI, single reference methods and gradients
   Taras Petrenko         : DFT Hessian,TD-DFT gradient, ASA, ECA, R-Raman, ABS, FL, XAS/XES, NRVS
   Peter Pinski           : DLPNO-MP2, DLPNO-MP2 Gradient
   Christoph Reimann      : Effective Core Potentials
   Marius Retegan         : Local ZFS, SOC
   Christoph Riplinger    : Optimizer, TS searches, QM/MM, DLPNO-CCSD(T), (RO)-DLPNO pert. Triples
   Tobias Risthaus        : Range-separated hybrids, TD-DFT gradient, RPA, STAB
   Michael Roemelt        : Original ROCIS implementation
   Masaaki Saitow         : Open-shell DLPNO-CCSD energy and density
   Barbara Sandhoefer     : DKH picture change effects
   Avijit Sen             : IP-ROCIS
   Kantharuban Sivalingam : CASSCF convergence, NEVPT2, FIC-MRCI
   Bernardo de Souza      : ESD, SOC TD-DFT
   Georgi Stoychev        : AutoAux, RI-MP2 NMR, DLPNO-MP2 response
   Willem Van den Heuvel  : Paramagnetic NMR
   Boris Wezisla          : Elementary symmetry handling
   Frank Wennmohs         : Technical directorship


 We gratefully acknowledge several colleagues who have allowed us to
 interface, adapt or use parts of their codes:
   Stefan Grimme, W. Hujo, H. Kruse, P. Pracht,  : VdW corrections, initial TS optimization,
                  C. Bannwarth, S. Ehlert          DFT functionals, gCP, sTDA/sTD-DF
   Ed Valeev, F. Pavosevic, A. Kumar             : LibInt (2-el integral package), F12 methods
   Garnet Chan, S. Sharma, J. Yang, R. Olivares  : DMRG
   Ulf Ekstrom                                   : XCFun DFT Library
   Mihaly Kallay                                 : mrcc  (arbitrary order and MRCC methods)
   Jiri Pittner, Ondrej Demel                    : Mk-CCSD
   Frank Weinhold                                : gennbo (NPA and NBO analysis)
   Christopher J. Cramer and Donald G. Truhlar   : smd solvation model
   Lars Goerigk                                  : TD-DFT with DH, B97 family of functionals
   V. Asgeirsson, H. Jonsson                     : NEB implementation
   FAccTs GmbH                                   : IRC, NEB, NEB-TS, DLPNO-Multilevel, CI-OPT
                                                   MM, QMMM, 2- and 3-layer-ONIOM, Crystal-QMMM,
                                                   LR-CPCM, SF, NACMEs, symmetry and pop. for TD-DFT,
                                                   nearIR, NL-DFT gradient (VV10), updates on ESD,
                                                   ML-optimized integration grids
   S Lehtola, MJT Oliveira, MAL Marques          : LibXC Library
   Liviu Ungur et al                             : ANISO software


 Your calculation uses the libint2 library for the computation of 2-el integrals
 For citations please refer to: http://libint.valeyev.net

 Your ORCA version has been built with support for libXC version: 5.1.0
 For citations please refer to: https://tddft.org/programs/libxc/

 This ORCA versions uses:
   CBLAS   interface :  Fast vector & matrix operations
   LAPACKE interface :  Fast linear algebra routines
   SCALAPACK package :  Parallel linear algebra routines
   Shared memory     :  Shared parallel matrices
   BLAS/LAPACK       :  OpenBLAS 0.3.15  USE64BITINT DYNAMIC_ARCH NO_AFFINITY SkylakeX SINGLE_THREADED
        Core in use  :  SkylakeX
   Copyright (c) 2011-2014, The OpenBLAS Project




***************************************
The coordinates will be read from file: 2_prot_aq_3.xyz
***************************************


Your calculation utilizes the atom-pairwise dispersion correction
based on tight binding partial charges (D4)
Cite in your paper:
E.Caldeweyher, C.Bannwarth, S.Grimme, J.Chem.Phys., (2017), 147, 034112.
E.Caldeweyher, S.Ehlert, A.Hansen, H.Neugebauer, S.Grimme, J.Chem.Phys., (2018), in progress.
   

XCFun DFT library Copyright 2009-2010 Ulf Ekstrom and contributors.
See http://admol.org/xcfun for more information.
This is free software; see the source code for copying conditions.
There is ABSOLUTELY NO WARRANTY; not even for MERCHANTABILITY or FITNESS FOR A PARTICULAR PURPOSE.
For details see the documentation.
Scientific users of this library should cite U. Ekstrom, L. Visscher, R. Bast, A. J. Thorvaldsen and K. Ruud;
J.Chem.Theor.Comp. 2010, DOI: 10.1021/ct100117s
XCFun Version 0.99 

================================================================================

----- Orbital basis set information -----
Your calculation utilizes the basis: def2-SVP
   F. Weigend and R. Ahlrichs, Phys. Chem. Chem. Phys. 7, 3297 (2005).

----- AuxJ basis set information -----
Your calculation utilizes the auxiliary basis: def2/J
   F. Weigend, Phys. Chem. Chem. Phys. 8, 1057 (2006).

================================================================================
                                        WARNINGS
                       Please study these warnings very carefully!
================================================================================


WARNING: Geometry Optimization
  ===> : Switching off AutoStart
         For restart on a previous wavefunction, please use MOREAD

INFO   : the flag for use of the SHARK integral package has been found!

================================================================================
                                       INPUT FILE
================================================================================
NAME = 2_prot_aq_3.inp
|  1> # ORCA 5.0.4 - /users/bwb16179/postgrad/2024_03/DFT_Crest_Conformers/Opt/prot/2_prot_aq_3.inp # write input file
|  2> # Basic Mode
|  3> #
|  4> ! Opt Freq wB97X Def2-SVP D4 SlowConv TightSCF Defgrid2 Def2/J RIJCOSX CPCM(Water)
|  5> 
|  6> 
|  7> 
|  8> %maxcore 4500
|  9> 
| 10> %geom
| 11> Maxiter 150
| 12> END
| 13> 
| 14> * xyzfile 1 1 2_prot_aq_3.xyz
| 15> 
| 16>                          ****END OF INPUT****
================================================================================

                       *****************************
                       * Geometry Optimization Run *
                       *****************************

Geometry optimization settings:
Update method            Update   .... BFGS
Choice of coordinates    CoordSys .... Z-matrix Internals
Initial Hessian          InHess   .... Almoef's Model

Convergence Tolerances:
Energy Change            TolE     ....  5.0000e-06 Eh
Max. Gradient            TolMAXG  ....  3.0000e-04 Eh/bohr
RMS Gradient             TolRMSG  ....  1.0000e-04 Eh/bohr
Max. Displacement        TolMAXD  ....  4.0000e-03 bohr
RMS Displacement         TolRMSD  ....  2.0000e-03 bohr
Strict Convergence                ....  False
------------------------------------------------------------------------------
                        ORCA OPTIMIZATION COORDINATE SETUP
------------------------------------------------------------------------------

The optimization will be done in new redundant internal coordinates
Making redundant internal coordinates   ...  (new redundants) done
Evaluating the initial hessian          ...  (Almloef) done
Evaluating the coordinates              ...  done
Calculating the B-matrix                .... done
Calculating the G-matrix                .... done
Diagonalizing the G-matrix              .... done
The first mode is                       ....   45
The number of degrees of freedom        ....   60

    -----------------------------------------------------------------
                    Redundant Internal Coordinates


    -----------------------------------------------------------------
         Definition                    Initial Value    Approx d2E/dq
    -----------------------------------------------------------------
      1. B(C   1,N   0)                  1.3292         0.699666   
      2. B(N   2,C   1)                  1.3317         0.693256   
      3. B(C   3,N   2)                  1.3723         0.597201   
      4. B(C   4,C   3)                  1.3743         0.661905   
      5. B(C   4,N   0)                  1.3721         0.597691   
      6. B(C   5,N   0)                  1.4370         0.470775   
      7. B(C   6,N   2)                  1.4407         0.464563   
      8. B(H   7,C   5)                  1.0873         0.363635   
      9. B(H   8,C   5)                  1.0906         0.359300   
     10. B(H   9,C   5)                  1.0906         0.359275   
     11. B(H  10,C   6)                  1.0902         0.359838   
     12. B(H  11,C   6)                  1.0861         0.365353   
     13. B(H  12,C   6)                  1.0904         0.359617   
     14. B(C  13,C   3)                  1.4816         0.446308   
     15. B(C  14,C   4)                  1.4800         0.448878   
     16. B(H  15,C  14)                  1.0893         0.361000   
     17. B(H  16,C  14)                  1.0893         0.360979   
     18. B(H  17,C  14)                  1.0848         0.367015   
     19. B(H  18,C  13)                  1.0893         0.361074   
     20. B(H  19,C  13)                  1.0851         0.366635   
     21. B(H  20,C  13)                  1.0893         0.361010   
     22. B(H  21,C   1)                  1.0721         0.384521   
     23. A(C   1,N   0,C   5)          126.2916         0.416750   
     24. A(C   4,N   0,C   5)          125.2161         0.405270   
     25. A(C   1,N   0,C   4)          108.4922         0.434944   
     26. A(N   2,C   1,H  21)          125.1693         0.361454   
     27. A(N   0,C   1,N   2)          109.3023         0.446755   
     28. A(N   0,C   1,H  21)          125.5283         0.362022   
     29. A(C   1,N   2,C   3)          108.4817         0.434160   
     30. A(C   1,N   2,C   6)          124.6439         0.415086   
     31. A(C   3,N   2,C   6)          126.8743         0.404262   
     32. A(C   4,C   3,C  13)          130.1234         0.414102   
     33. A(N   2,C   3,C  13)          123.0757         0.404007   
     34. A(N   2,C   3,C   4)          106.8009         0.433397   
     35. A(N   0,C   4,C  14)          121.9164         0.404475   
     36. A(N   0,C   4,C   3)          106.9229         0.433461   
     37. A(C   3,C   4,C  14)          131.1607         0.414525   
     38. A(H   8,C   5,H   9)          108.4711         0.290633   
     39. A(H   7,C   5,H   9)          109.1361         0.291181   
     40. A(N   0,C   5,H   9)          110.1772         0.334796   
     41. A(H   7,C   5,H   8)          109.1346         0.291184   
     42. A(N   0,C   5,H   8)          110.1674         0.334800   
     43. A(N   0,C   5,H   7)          109.7253         0.335468   
     44. A(H  10,C   6,H  11)          108.9703         0.291469   
     45. A(H  11,C   6,H  12)          108.9401         0.291441   
     46. A(H  10,C   6,H  12)          108.6611         0.290745   
     47. A(N   2,C   6,H  12)          110.1830         0.334111   
     48. A(N   2,C   6,H  11)          109.8950         0.334991   
     49. A(N   2,C   6,H  10)          110.1578         0.334145   
     50. A(H  19,C  13,H  20)          108.1797         0.291778   
     51. A(H  18,C  13,H  20)          108.4945         0.291078   
     52. A(C   3,C  13,H  20)          110.9304         0.334127   
     53. A(H  18,C  13,H  19)          108.1635         0.291787   
     54. A(C   3,C  13,H  19)          110.0342         0.334986   
     55. A(C   3,C  13,H  18)          110.9463         0.334137   
     56. A(H  16,C  14,H  17)          108.4191         0.291822   
     57. A(H  15,C  14,H  17)          108.4321         0.291825   
     58. A(C   4,C  14,H  17)          110.5359         0.335364   
     59. A(H  15,C  14,H  16)          107.9362         0.291065   
     60. A(C   4,C  14,H  16)          110.7141         0.334441   
     61. A(C   4,C  14,H  15)          110.7137         0.334444   
     62. D(N   2,C   1,N   0,C   4)      0.0039         0.040506   
     63. D(H  21,C   1,N   0,C   4)    179.9958         0.040506   
     64. D(N   2,C   1,N   0,C   5)   -179.9669         0.040506   
     65. D(H  21,C   1,N   0,C   5)      0.0250         0.040506   
     66. D(C   6,N   2,C   1,H  21)      0.1190         0.039695   
     67. D(C   6,N   2,C   1,N   0)   -179.8891         0.039695   
     68. D(C   3,N   2,C   1,H  21)   -179.9971         0.039695   
     69. D(C   3,N   2,C   1,N   0)     -0.0051         0.039695   
     70. D(C  13,C   3,N   2,C   6)     -0.0883         0.028719   
     71. D(C   4,C   3,N   2,C   6)    179.8849         0.028719   
     72. D(C   4,C   3,N   2,C   1)      0.0043         0.028719   
     73. D(C  13,C   3,N   2,C   1)   -179.9689         0.028719   
     74. D(C  14,C   4,N   0,C   1)   -179.9936         0.028769   
     75. D(C   3,C   4,N   0,C   5)    179.9701         0.028769   
     76. D(C   3,C   4,N   0,C   1)     -0.0012         0.028769   
     77. D(C  14,C   4,C   3,C  13)     -0.0398         0.030585   
     78. D(N   0,C   4,C   3,C  13)    179.9687         0.030585   
     79. D(N   0,C   4,C   3,N   2)     -0.0019         0.030585   
     80. D(C  14,C   4,N   0,C   5)     -0.0224         0.028769   
     81. D(C  14,C   4,C   3,N   2)    179.9896         0.030585   
     82. D(H   9,C   5,N   0,C   4)    -60.1564         0.018937   
     83. D(H   9,C   5,N   0,C   1)    119.8098         0.018937   
     84. D(H   8,C   5,N   0,C   4)     59.4840         0.018937   
     85. D(H   8,C   5,N   0,C   1)   -120.5498         0.018937   
     86. D(H   7,C   5,N   0,C   4)    179.6598         0.018937   
     87. D(H   7,C   5,N   0,C   1)     -0.3740         0.018937   
     88. D(H  11,C   6,N   2,C   3)      1.3110         0.018430   
     89. D(H  11,C   6,N   2,C   1)   -178.8267         0.018430   
     90. D(H  10,C   6,N   2,C   3)    121.3850         0.018430   
     91. D(H  12,C   6,N   2,C   1)     61.1208         0.018430   
     92. D(H  10,C   6,N   2,C   1)    -58.7526         0.018430   
     93. D(H  12,C   6,N   2,C   3)   -118.7416         0.018430   
     94. D(H  20,C  13,C   3,C   4)   -119.3031         0.014692   
     95. D(H  20,C  13,C   3,N   2)     60.6634         0.014692   
     96. D(H  19,C  13,C   3,C   4)      0.3680         0.014692   
     97. D(H  19,C  13,C   3,N   2)   -179.6656         0.014692   
     98. D(H  18,C  13,C   3,C   4)    120.0291         0.014692   
     99. D(H  18,C  13,C   3,N   2)    -60.0044         0.014692   
    100. D(H  17,C  14,C   4,C   3)     -0.0569         0.014860   
    101. D(H  17,C  14,C   4,N   0)    179.9335         0.014860   
    102. D(H  16,C  14,C   4,C   3)    120.1006         0.014860   
    103. D(H  16,C  14,C   4,N   0)    -59.9090         0.014860   
    104. D(H  15,C  14,C   4,C   3)   -120.2304         0.014860   
    105. D(H  15,C  14,C   4,N   0)     59.7600         0.014860   
    -----------------------------------------------------------------

Number of atoms                         .... 22
Number of degrees of freedom            .... 105

         *************************************************************
         *                GEOMETRY OPTIMIZATION CYCLE   1            *
         *************************************************************
---------------------------------
CARTESIAN COORDINATES (ANGSTROEM)
---------------------------------
  N     -1.080263   -0.644809   -0.000114
  C      0.004529   -1.412909    0.000354
  N      1.090075   -0.641543    0.000796
  C      0.690800    0.671383    0.000489
  C     -0.683492    0.668644   -0.000060
  C     -2.443784   -1.098589   -0.000009
  C      2.444206   -1.133316   -0.000923
  H     -2.468799   -2.185625   -0.006162
  H     -2.964785   -0.724020   -0.881869
  H     -2.961493   -0.734080    0.888007
  H      2.616725   -1.761919    0.872935
  H      3.140135   -0.299810    0.020802
  H      2.628457   -1.724916   -0.898117
  C      1.643322    1.806183    0.000161
  C     -1.659816    1.780951   -0.000372
  H     -2.299878    1.732045    0.879712
  H     -2.297689    1.733489   -0.882143
  H     -1.147365    2.737105    0.000908
  H      2.283252    1.777695    0.881169
  H      1.101495    2.746312    0.005904
  H      2.275269    1.783540   -0.886819
  H      0.008785   -2.485039    0.000498

----------------------------
CARTESIAN COORDINATES (A.U.)
----------------------------
  NO LB      ZA    FRAG     MASS         X           Y           Z
   0 N     7.0000    0    14.007   -2.041401   -1.218512   -0.000216
   1 C     6.0000    0    12.011    0.008558   -2.670012    0.000669
   2 N     7.0000    0    14.007    2.059944   -1.212341    0.001504
   3 C     6.0000    0    12.011    1.305423    1.268730    0.000924
   4 C     6.0000    0    12.011   -1.291612    1.263554   -0.000113
   5 C     6.0000    0    12.011   -4.618083   -2.076032   -0.000018
   6 C     6.0000    0    12.011    4.618880   -2.141657   -0.001744
   7 H     1.0000    0     1.008   -4.665353   -4.130232   -0.011644
   8 H     1.0000    0     1.008   -5.602633   -1.368200   -1.666492
   9 H     1.0000    0     1.008   -5.596410   -1.387211    1.678091
  10 H     1.0000    0     1.008    4.944894   -3.329545    1.649609
  11 H     1.0000    0     1.008    5.933994   -0.566559    0.039310
  12 H     1.0000    0     1.008    4.967064   -3.259619   -1.697196
  13 C     6.0000    0    12.011    3.105428    3.413191    0.000305
  14 C     6.0000    0    12.011   -3.136599    3.365510   -0.000704
  15 H     1.0000    0     1.008   -4.346140    3.273091    1.662415
  16 H     1.0000    0     1.008   -4.342002    3.275820   -1.667009
  17 H     1.0000    0     1.008   -2.168206    5.172380    0.001716
  18 H     1.0000    0     1.008    4.314722    3.359356    1.665168
  19 H     1.0000    0     1.008    2.081524    5.189777    0.011157
  20 H     1.0000    0     1.008    4.299635    3.370402   -1.675844
  21 H     1.0000    0     1.008    0.016600   -4.696043    0.000941

--------------------------------
INTERNAL COORDINATES (ANGSTROEM)
--------------------------------
 N      0   0   0     0.000000000000     0.00000000     0.00000000
 C      1   0   0     1.329192021057     0.00000000     0.00000000
 N      2   1   0     1.331697201401   109.30233760     0.00000000
 C      3   2   1     1.372296330643   108.48167466     0.00000000
 C      1   2   3     1.372073111921   108.49223560     0.00000000
 C      1   2   3     1.437048154477   126.29164770   180.03308893
 C      3   2   1     1.440663957852   124.64392327   180.11093425
 H      6   1   2     1.087340973537   109.72532085   359.62599385
 H      6   1   2     1.090605697655   110.16737159   239.45019337
 H      6   1   2     1.090624687155   110.17718307   119.80977304
 H      7   3   2     1.090198414762   110.15775875   301.24735182
 H      7   3   2     1.086057560775   109.89502901   181.17333631
 H      7   3   2     1.090365490451   110.18300851    61.12078866
 C      4   3   2     1.481576409767   123.07568047   180.03109470
 C      5   1   2     1.480012965185   121.91638255   180.00637120
 H     15   5   1     1.089320716646   110.71365348    59.75997203
 H     15   5   1     1.089336330678   110.71406871   300.09104643
 H     15   5   1     1.084821997761   110.53591132   179.93346907
 H     14   4   3     1.089264345497   110.94625014   299.99556748
 H     14   4   3     1.085104242990   110.03415367   180.33442935
 H     14   4   3     1.089313202893   110.93035031    60.66335395
 H      2   1   3     1.072138156533   125.52833407   179.99187777

---------------------------
INTERNAL COORDINATES (A.U.)
---------------------------
 N      0   0   0     0.000000000000     0.00000000     0.00000000
 C      1   0   0     2.511808899192     0.00000000     0.00000000
 N      2   1   0     2.516543003956   109.30233760     0.00000000
 C      3   2   1     2.593264239501   108.48167466     0.00000000
 C      1   2   3     2.592842417247   108.49223560     0.00000000
 C      1   2   3     2.715627453219   126.29164770   180.03308893
 C      3   2   1     2.722460331351   124.64392327   180.11093425
 H      6   1   2     2.054776654177   109.72532085   359.62599385
 H      6   1   2     2.060946088662   110.16737159   239.45019337
 H      6   1   2     2.060981973616   110.17718307   119.80977304
 H      7   3   2     2.060176435535   110.15775875   301.24735182
 H      7   3   2     2.052351355540   109.89502901   181.17333631
 H      7   3   2     2.060492162832   110.18300851    61.12078866
 C      4   3   2     2.799773660939   123.07568047   180.03109470
 C      5   1   2     2.796819178852   121.91638255   180.00637120
 H     15   5   1     2.058517826467   110.71365348    59.75997203
 H     15   5   1     2.058547332712   110.71406871   300.09104643
 H     15   5   1     2.050016479821   110.53591132   179.93346907
 H     14   4   3     2.058411300434   110.94625014   299.99556748
 H     14   4   3     2.050549846008   110.03415367   180.33442935
 H     14   4   3     2.058503627532   110.93035031    60.66335395
 H      2   1   3     2.026047493574   125.52833407   179.99187777

---------------------
BASIS SET INFORMATION
---------------------
There are 3 groups of distinct atoms

 Group   1 Type N   : 7s4p1d contracted to 3s2p1d pattern {511/31/1}
 Group   2 Type C   : 7s4p1d contracted to 3s2p1d pattern {511/31/1}
 Group   3 Type H   : 4s1p contracted to 2s1p pattern {31/1}

Atom   0N    basis set group =>   1
Atom   1C    basis set group =>   2
Atom   2N    basis set group =>   1
Atom   3C    basis set group =>   2
Atom   4C    basis set group =>   2
Atom   5C    basis set group =>   2
Atom   6C    basis set group =>   2
Atom   7H    basis set group =>   3
Atom   8H    basis set group =>   3
Atom   9H    basis set group =>   3
Atom  10H    basis set group =>   3
Atom  11H    basis set group =>   3
Atom  12H    basis set group =>   3
Atom  13C    basis set group =>   2
Atom  14C    basis set group =>   2
Atom  15H    basis set group =>   3
Atom  16H    basis set group =>   3
Atom  17H    basis set group =>   3
Atom  18H    basis set group =>   3
Atom  19H    basis set group =>   3
Atom  20H    basis set group =>   3
Atom  21H    basis set group =>   3
---------------------------------
AUXILIARY/J BASIS SET INFORMATION
---------------------------------
There are 3 groups of distinct atoms

 Group   1 Type N   : 12s5p4d2f1g contracted to 6s4p3d1f1g pattern {711111/2111/211/2/1}
 Group   2 Type C   : 12s5p4d2f1g contracted to 6s4p3d1f1g pattern {711111/2111/211/2/1}
 Group   3 Type H   : 5s2p1d contracted to 3s1p1d pattern {311/2/1}

Atom   0N    basis set group =>   1
Atom   1C    basis set group =>   2
Atom   2N    basis set group =>   1
Atom   3C    basis set group =>   2
Atom   4C    basis set group =>   2
Atom   5C    basis set group =>   2
Atom   6C    basis set group =>   2
Atom   7H    basis set group =>   3
Atom   8H    basis set group =>   3
Atom   9H    basis set group =>   3
Atom  10H    basis set group =>   3
Atom  11H    basis set group =>   3
Atom  12H    basis set group =>   3
Atom  13C    basis set group =>   2
Atom  14C    basis set group =>   2
Atom  15H    basis set group =>   3
Atom  16H    basis set group =>   3
Atom  17H    basis set group =>   3
Atom  18H    basis set group =>   3
Atom  19H    basis set group =>   3
Atom  20H    basis set group =>   3
Atom  21H    basis set group =>   3
------------------------------------------------------------------------------
                           ORCA GTO INTEGRAL CALCULATION
                           -- RI-GTO INTEGRALS CHOSEN --
------------------------------------------------------------------------------
------------------------------------------------------------------------------
                   ___                                                        
                  /   \      - P O W E R E D   B Y -                         
                 /     \                                                     
                 |  |  |   _    _      __       _____    __    __             
                 |  |  |  | |  | |    /  \     |  _  \  |  |  /  |          
                  \  \/   | |  | |   /    \    | | | |  |  | /  /          
                 / \  \   | |__| |  /  /\  \   | |_| |  |  |/  /          
                |  |  |   |  __  | /  /__\  \  |    /   |      \           
                |  |  |   | |  | | |   __   |  |    \   |  |\   \          
                \     /   | |  | | |  |  |  |  | |\  \  |  | \   \       
                 \___/    |_|  |_| |__|  |__|  |_| \__\ |__|  \__/        
                                                                              
                      - O R C A' S   B I G   F R I E N D -                    
                                      &                                       
                       - I N T E G R A L  F E E D E R -                       
                                                                              
 v1 FN, 2020, v2 2021                                                         
------------------------------------------------------------------------------


Reading SHARK input file 2_prot_aq_3.SHARKINP.tmp ... ok
----------------------
SHARK INTEGRAL PACKAGE
----------------------

Number of atoms                             ...     22
Number of basis functions                   ...    191
Number of shells                            ...     93
Maximum angular momentum                    ...      2
Integral batch strategy                     ... SHARK/LIBINT Hybrid
RI-J (if used) integral strategy            ... SPLIT-RIJ (Revised 2003 algorithm where possible)
Printlevel                                  ...      1
Contraction scheme used                     ... SEGMENTED contraction
Coulomb Range Separation                    ... NOT USED
Exchange Range Separation                   ... Long Range
   Mu parameter                             ...  0.300000
   Scaling (regular/separated)              ...  0.157706  0.842294
Finite Nucleus Model                        ... NOT USED
Auxiliary Coulomb fitting basis             ... AVAILABLE
   # of basis functions in Aux-J            ...    584
   # of shells in Aux-J                     ...    200
   Maximum angular momentum in Aux-J        ...      4
Auxiliary J/K fitting basis                 ... NOT available
Auxiliary Correlation fitting basis         ... NOT available
Auxiliary 'external' fitting basis          ... NOT available
Integral threshold                          ...     2.500000e-11
Primitive cut-off                           ...     2.500000e-12
Primitive pair pre-selection threshold      ...     2.500000e-12

Calculating pre-screening integrals         ... done (  0.0 sec) Dimension = 93
Organizing shell pair data                  ... done (  0.0 sec)
Shell pair information
Total number of shell pairs                 ...      4371
Shell pairs after pre-screening             ...      4052
Total number of primitive shell pairs       ...     15207
Primitive shell pairs kept                  ...     10320
          la=0 lb=0:   1350 shell pairs
          la=1 lb=0:   1513 shell pairs
          la=1 lb=1:    441 shell pairs
          la=2 lb=0:    445 shell pairs
          la=2 lb=1:    261 shell pairs
          la=2 lb=2:     42 shell pairs

Calculating one electron integrals          ... done (  0.0 sec)
Calculating RI/J V-Matrix + Cholesky decomp.... done (  0.0 sec)
Calculating Nuclear repulsion               ... done (  0.0 sec) ENN=    476.922848923022 Eh

SHARK setup successfully completed in   0.2 seconds

Maximum memory used throughout the entire GTOINT-calculation: 27.3 MB
-------------------------------------------------------------------------------
                                 ORCA SCF
-------------------------------------------------------------------------------

------------
SCF SETTINGS
------------
Hamiltonian:
 Density Functional     Method          .... DFT(GTOs)
 Exchange Functional    Exchange        .... WB97X
 Correlation Functional Correlation     .... WB97X
 Gradients option       PostSCFGGA      .... off
 Hybrid DFT is turned on
   Fraction HF Exchange ScalHFX         ....  0.157706
   Scaling of DF-GGA-X  ScalDFX         ....  0.000000
   Scaling of DF-GGA-C  ScalDFC         ....  1.000000
   Scaling of DF-LDA-C  ScalLDAC        ....  1.000000
   Perturbative correction              ....  0.000000
   Density functional embedding theory  .... OFF
 Long-range corrected/Screened/Range-Separated Hybrid DFT is turned on
   Amount of maximum screened exact exchange              ....  0.842294
   Range separation parameter mu (erf(mu*r12)/r12)        ....  0.300000
 RI-approximation to the Coulomb term is turned on
   Number of AuxJ basis functions       .... 584
   RIJ-COSX (HFX calculated with COS-X)).... on


General Settings:
 Integral files         IntName         .... 2_prot_aq_3
 Hartree-Fock type      HFTyp           .... RHF
 Total Charge           Charge          ....    1
 Multiplicity           Mult            ....    1
 Number of Electrons    NEL             ....   68
 Basis Dimension        Dim             ....  191
 Nuclear Repulsion      ENuc            ....    476.9228489230 Eh

Convergence Acceleration:
 DIIS                   CNVDIIS         .... on
   Start iteration      DIISMaxIt       ....     0
   Startup error        DIISStart       ....  0.200000
   # of expansion vecs  DIISMaxEq       ....     5
   Bias factor          DIISBfac        ....   1.050
   Max. coefficient     DIISMaxC        ....  10.000
 Trust-Rad. Augm. Hess. CNVTRAH         .... auto
   Auto Start mean grad. ratio tolernc. ....  1.125000
   Auto Start start iteration           ....    20
   Auto Start num. interpolation iter.  ....    10
   Max. Number of Micro iterations      ....    16
   Max. Number of Macro iterations      .... Maxiter - #DIIS iter
   Number of Davidson start vectors     ....     2
   Converg. threshold I  (grad. norm)   ....   1.000e-05
   Converg. threshold II (energy diff.) ....   1.000e-08
   Grad. Scal. Fac. for Micro threshold ....   0.100
   Minimum threshold for Micro iter.    ....   0.010
   NR start threshold (gradient norm)   ....   0.001
   Initial trust radius                 ....   0.400
   Minimum AH scaling param. (alpha)    ....   1.000
   Maximum AH scaling param. (alpha)    .... 1000.000
   Orbital update algorithm             .... Taylor
   White noise on init. David. guess    .... on
   Maximum white noise                  ....   0.010
   Quad. conv. algorithm                .... NR
 SOSCF                  CNVSOSCF        .... on
   Start iteration      SOSCFMaxIt      ....   150
   Startup grad/error   SOSCFStart      ....  0.001000
 Level Shifting         CNVShift        .... on
   Level shift para.    LevelShift      ....    0.2500
   Turn off err/grad.   ShiftErr        ....    0.0000
 Zerner damping         CNVZerner       .... off
 Static damping         CNVDamp         .... on
   Fraction old density DampFac         ....    0.8500
   Max. Damping (<1)    DampMax         ....    0.9800
   Min. Damping (>=0)   DampMin         ....    0.0000
   Turn off err/grad.   DampErr         ....    0.0300
 Fernandez-Rico         CNVRico         .... off

SCF Procedure:
 Maximum # iterations   MaxIter         ....   125
 SCF integral mode      SCFMode         .... Direct
   Integral package                     .... SHARK and LIBINT hybrid scheme
 Reset frequency        DirectResetFreq ....    20
 Integral Threshold     Thresh          ....  2.500e-11 Eh
 Primitive CutOff       TCut            ....  2.500e-12 Eh

Convergence Tolerance:
 Convergence Check Mode ConvCheckMode   .... Total+1el-Energy
 Convergence forced     ConvForced      .... 0
 Energy Change          TolE            ....  1.000e-08 Eh
 1-El. energy change                    ....  1.000e-05 Eh
 Orbital Gradient       TolG            ....  1.000e-05
 Orbital Rotation angle TolX            ....  1.000e-05
 DIIS Error             TolErr          ....  5.000e-07


Diagonalization of the overlap matrix:
Smallest eigenvalue                        ... 8.948e-04
Time for diagonalization                   ...    0.007 sec
Threshold for overlap eigenvalues          ... 1.000e-08
Number of eigenvalues below threshold      ... 0
Time for construction of square roots      ...    0.003 sec
Total time needed                          ...    0.010 sec

Time for model grid setup =    0.311 sec

------------------------------
INITIAL GUESS: MODEL POTENTIAL
------------------------------
Loading Hartree-Fock densities                     ... done
Calculating cut-offs                               ... done
Initializing the effective Hamiltonian             ... done
Setting up the integral package (SHARK)            ... done
Starting the Coulomb interaction                   ... done (   0.3 sec)
Reading the grid                                   ... done
Mapping shells                                     ... done
Starting the XC term evaluation                    ... done (   0.4 sec)
  promolecular density results
     # of electrons  =     68.998016217
     EX              =    -52.845337622
     EC              =     -2.293590217
     EX+EC           =    -55.138927840
Transforming the Hamiltonian                       ... done (   0.0 sec)
Diagonalizing the Hamiltonian                      ... done (   0.0 sec)
Back transforming the eigenvectors                 ... done (   0.0 sec)
Now organizing SCF variables                       ... done
                      ------------------
                      INITIAL GUESS DONE (   1.0 sec)
                      ------------------
-------------------
DFT GRID GENERATION
-------------------

General Integration Accuracy     IntAcc      ... 4.388
Radial Grid Type                 RadialGrid  ... OptM3 with GC (2021)
Angular Grid (max. ang.)         AngularGrid ... 4 (Lebedev-302)
Angular grid pruning method      GridPruning ... 4 (adaptive)
Weight generation scheme         WeightScheme... Becke
Basis function cutoff            BFCut       ... 1.0000e-11
Integration weight cutoff        WCut        ... 1.0000e-14
Angular grids for H and He will be reduced by one unit
Partially contracted basis set               ... off
Rotationally invariant grid construction     ... off

Total number of grid points                  ...    95601
Total number of batches                      ...     1504
Average number of points per batch           ...       63
Average number of grid points per atom       ...     4346
Time for grid setup =    1.251 sec

--------------------
COSX GRID GENERATION
--------------------

GRIDX 1
-------
General Integration Accuracy     IntAcc      ... 3.816
Radial Grid Type                 RadialGrid  ... OptM3 with GC (2021)
Angular Grid (max. ang.)         AngularGrid ... 1 (Lebedev-50)
Angular grid pruning method      GridPruning ... 4 (adaptive)
Weight generation scheme         WeightScheme... Becke
Basis function cutoff            BFCut       ... 1.0000e-11
Integration weight cutoff        WCut        ... 1.0000e-14
Angular grids for H and He will be reduced by one unit
Partially contracted basis set               ... on
Rotationally invariant grid construction     ... off

Total number of grid points                  ...    12242
Total number of batches                      ...      204
Average number of points per batch           ...       60
Average number of grid points per atom       ...      556
UseSFitting                                  ... on

GRIDX 2
-------
General Integration Accuracy     IntAcc      ... 4.020
Radial Grid Type                 RadialGrid  ... OptM3 with GC (2021)
Angular Grid (max. ang.)         AngularGrid ... 2 (Lebedev-110)
Angular grid pruning method      GridPruning ... 4 (adaptive)
Weight generation scheme         WeightScheme... Becke
Basis function cutoff            BFCut       ... 1.0000e-11
Integration weight cutoff        WCut        ... 1.0000e-14
Angular grids for H and He will be reduced by one unit
Partially contracted basis set               ... on
Rotationally invariant grid construction     ... off

Total number of grid points                  ...    25761
Total number of batches                      ...      416
Average number of points per batch           ...       61
Average number of grid points per atom       ...     1171
UseSFitting                                  ... on

GRIDX 3
-------
General Integration Accuracy     IntAcc      ... 4.338
Radial Grid Type                 RadialGrid  ... OptM3 with GC (2021)
Angular Grid (max. ang.)         AngularGrid ... 3 (Lebedev-194)
Angular grid pruning method      GridPruning ... 4 (adaptive)
Weight generation scheme         WeightScheme... Becke
Basis function cutoff            BFCut       ... 1.0000e-11
Integration weight cutoff        WCut        ... 1.0000e-14
Angular grids for H and He will be reduced by one unit
Partially contracted basis set               ... on
Rotationally invariant grid construction     ... off

Total number of grid points                  ...    56295
Total number of batches                      ...      891
Average number of points per batch           ...       63
Average number of grid points per atom       ...     2559
UseSFitting                                  ... on

Time for X-Grid setup             =    1.659 sec


--------------------
CPCM SOLVATION MODEL
--------------------
CPCM parameters:
  Epsilon                                         ...      80.4000
  Refrac                                          ...       1.3300
  Rsolv                                           ...       1.3000
  Surface type                                    ... GAUSSIAN VDW
  Epsilon function type                           ...         CPCM
Radii:
 Radius for N  used is    3.5149 Bohr (=   1.8600 Ang.)
 Radius for C  used is    3.8550 Bohr (=   2.0400 Ang.)
 Radius for H  used is    2.4944 Bohr (=   1.3200 Ang.)
Calculating surface                               ...        done! (  0.0s)
GEPOL surface points                              ...         1187
GEPOL Volume                                      ...    1163.9594
GEPOL Surface-area                                ...     659.5477
Calculating surface distance matrix               ...        done! (  0.0s)
Performing Cholesky decomposition & store         ...        done! (  0.0s)
Overall time for CPCM initialization              ...                 0.1s
--------------
SCF ITERATIONS
--------------
ITER       Energy         Delta-E        Max-DP      RMS-DP      [F,P]     Damp
               ***  Starting incremental Fock matrix formation  ***
  0   -383.4419645535   0.000000000000 0.03148657  0.00071070  0.1480755 0.8500
  1   -383.4701628156  -0.028198262068 0.02837949  0.00065559  0.1195318 0.8500
                               ***Turning on DIIS***
  2   -383.4917698891  -0.021607073459 0.02230744  0.00053570  0.0920586 0.8500
  3   -383.5079797042  -0.016209815184 0.01414879  0.00039225  0.0700530 0.8500
  4   -383.5205589100  -0.012579205812 0.00957876  0.00030680  0.0559112 0.8500
  5   -383.5305016336  -0.009942723556 0.00734380  0.00025448  0.0463407 0.8500
  6   -383.5385940729  -0.008092439268 0.00600026  0.00021573  0.0390521 0.8500
  7   -383.5452929552  -0.006698882359 0.00516273  0.00018576  0.0331166 0.8500
  8   -383.5508950155  -0.005602060222 0.02946288  0.00106416  0.0280146 0.0000
  9   -383.5809856559  -0.030090640484 0.00126084  0.00003097  0.0011691 0.0000
                      *** Initiating the SOSCF procedure ***
                           *** Shutting down DIIS ***
                      *** Re-Reading the Fockian *** 
                      *** Removing any level shift *** 
ITER      Energy       Delta-E        Grad      Rot      Max-DP    RMS-DP
 10   -383.58099693  -0.0000112717  0.000147  0.000147  0.000359  0.000012
               *** Restarting incremental Fock matrix formation ***
 11   -383.58107513  -0.0000782007  0.000089  0.000139  0.000358  0.000013
 12   -383.58107543  -0.0000002986  0.000043  0.000119  0.000172  0.000006
 13   -383.58107547  -0.0000000411  0.000022  0.000022  0.000055  0.000002
 14   -383.58107548  -0.0000000125  0.000003  0.000005  0.000008  0.000000
                  ***Gradient check signals convergence***
              ***Rediagonalizing the Fockian in SOSCF/NRSCF***

               *****************************************************
               *                     SUCCESS                       *
               *           SCF CONVERGED AFTER  15 CYCLES          *
               *****************************************************

Old exchange energy                            =    -17.462371470 Eh
New exchange energy                            =    -17.462352447 Eh
Exchange energy change after final integration =      0.000019023 Eh
Total energy after final integration           =   -383.581056455 Eh
Final COS-X integration done in                =    36.063 sec

----------------
TOTAL SCF ENERGY
----------------

Total Energy       :         -383.58105646 Eh          -10437.77119 eV

Components:
Nuclear Repulsion  :          476.92284892 Eh           12977.73049 eV
Electronic Energy  :         -860.50390538 Eh          -23415.50169 eV
One Electron Energy:        -1448.89871189 Eh          -39426.53836 eV
Two Electron Energy:          588.39480652 Eh           16011.03667 eV
Max COSX asymmetry :            0.00000206 Eh               0.00006 eV
CPCM Dielectric    :           -0.07929731 Eh              -2.15779 eV

Virial components:
Potential Energy   :         -762.80621457 Eh          -20757.01236 eV
Kinetic Energy     :          379.22515812 Eh           10319.24117 eV
Virial Ratio       :            2.01148631


DFT components:
N(Alpha)           :       34.000026581320 electrons
N(Beta)            :       34.000026581320 electrons
N(Total)           :       68.000053162641 electrons
E(XC)              :      -38.882955482712 Eh       
DFET-embed. en.    :        0.000000000000 Eh       
CPCM Solvation Model Properties:
Surface-charge          :           -1.01568112
Charge-correction       :            0.00226175 Eh               0.06155 eV
Free-energy (cav+disp)  :  This term is not implemented in the current solvation scheme

---------------
SCF CONVERGENCE
---------------

  Last Energy change         ...    1.8056e-09  Tolerance :   1.0000e-08
  Last MAX-Density change    ...    7.5495e-15  Tolerance :   1.0000e-07
  Last RMS-Density change    ...    5.9437e-17  Tolerance :   5.0000e-09
  Last Orbital Gradient      ...    1.8527e-06  Tolerance :   1.0000e-05
  Last Orbital Rotation      ...    3.9601e-06  Tolerance :   1.0000e-05

             **** THE GBW FILE WAS UPDATED (2_prot_aq_3.gbw) ****
             **** DENSITY 2_prot_aq_3.scfp WAS UPDATED ****
             **** ENERGY FILE WAS UPDATED (2_prot_aq_3.en.tmp) ****
             **** THE GBW FILE WAS UPDATED (2_prot_aq_3.gbw) ****
             **** DENSITY 2_prot_aq_3.scfp WAS UPDATED ****
----------------
ORBITAL ENERGIES
----------------

  NO   OCC          E(Eh)            E(eV) 
   0   2.0000     -14.508397      -394.7936 
   1   2.0000     -14.507168      -394.7601 
   2   2.0000     -10.374855      -282.3142 
   3   2.0000     -10.331187      -281.1259 
   4   2.0000     -10.329056      -281.0679 
   5   2.0000     -10.322775      -280.8970 
   6   2.0000     -10.321839      -280.8715 
   7   2.0000     -10.282831      -279.8100 
   8   2.0000     -10.282458      -279.7999 
   9   2.0000      -1.215298       -33.0699 
  10   2.0000      -1.098273       -29.8855 
  11   2.0000      -0.956135       -26.0178 
  12   2.0000      -0.916454       -24.9380 
  13   2.0000      -0.880609       -23.9626 
  14   2.0000      -0.828811       -22.5531 
  15   2.0000      -0.827339       -22.5130 
  16   2.0000      -0.736238       -20.0341 
  17   2.0000      -0.725223       -19.7343 
  18   2.0000      -0.665648       -18.1132 
  19   2.0000      -0.645622       -17.5683 
  20   2.0000      -0.609357       -16.5814 
  21   2.0000      -0.599188       -16.3047 
  22   2.0000      -0.584266       -15.8987 
  23   2.0000      -0.556006       -15.1297 
  24   2.0000      -0.543088       -14.7782 
  25   2.0000      -0.539505       -14.6807 
  26   2.0000      -0.529921       -14.4199 
  27   2.0000      -0.526777       -14.3343 
  28   2.0000      -0.511739       -13.9251 
  29   2.0000      -0.504620       -13.7314 
  30   2.0000      -0.504470       -13.7273 
  31   2.0000      -0.499002       -13.5785 
  32   2.0000      -0.410531       -11.1711 
  33   2.0000      -0.345851        -9.4111 
  34   0.0000       0.061045         1.6611 
  35   0.0000       0.110601         3.0096 
  36   0.0000       0.141140         3.8406 
  37   0.0000       0.158305         4.3077 
  38   0.0000       0.173344         4.7169 
  39   0.0000       0.186924         5.0865 
  40   0.0000       0.198520         5.4020 
  41   0.0000       0.200631         5.4594 
  42   0.0000       0.215438         5.8624 
  43   0.0000       0.224283         6.1030 
  44   0.0000       0.229794         6.2530 
  45   0.0000       0.235588         6.4107 
  46   0.0000       0.241775         6.5790 
  47   0.0000       0.248195         6.7537 
  48   0.0000       0.261626         7.1192 
  49   0.0000       0.272942         7.4271 
  50   0.0000       0.285206         7.7609 
  51   0.0000       0.301162         8.1950 
  52   0.0000       0.323669         8.8075 
  53   0.0000       0.327590         8.9142 
  54   0.0000       0.353029         9.6064 
  55   0.0000       0.360550         9.8111 
  56   0.0000       0.439487        11.9591 
  57   0.0000       0.462228        12.5779 
  58   0.0000       0.470875        12.8132 
  59   0.0000       0.474566        12.9136 
  60   0.0000       0.476461        12.9652 
  61   0.0000       0.499814        13.6006 
  62   0.0000       0.509403        13.8616 
  63   0.0000       0.542531        14.7630 
  64   0.0000       0.550531        14.9807 
  65   0.0000       0.579266        15.7626 
  66   0.0000       0.585628        15.9357 
  67   0.0000       0.618591        16.8327 
  68   0.0000       0.623473        16.9656 
  69   0.0000       0.632183        17.2026 
  70   0.0000       0.683400        18.5963 
  71   0.0000       0.683940        18.6110 
  72   0.0000       0.692530        18.8447 
  73   0.0000       0.713837        19.4245 
  74   0.0000       0.720582        19.6080 
  75   0.0000       0.727422        19.7942 
  76   0.0000       0.738344        20.0914 
  77   0.0000       0.750068        20.4104 
  78   0.0000       0.756421        20.5833 
  79   0.0000       0.760977        20.7072 
  80   0.0000       0.761567        20.7233 
  81   0.0000       0.773172        21.0391 
  82   0.0000       0.778465        21.1831 
  83   0.0000       0.782486        21.2925 
  84   0.0000       0.797087        21.6898 
  85   0.0000       0.797384        21.6979 
  86   0.0000       0.807523        21.9738 
  87   0.0000       0.812992        22.1226 
  88   0.0000       0.816999        22.2317 
  89   0.0000       0.823144        22.3989 
  90   0.0000       0.834894        22.7186 
  91   0.0000       0.855734        23.2857 
  92   0.0000       0.911161        24.7940 
  93   0.0000       0.935068        25.4445 
  94   0.0000       0.962083        26.1796 
  95   0.0000       0.970816        26.4172 
  96   0.0000       0.982687        26.7403 
  97   0.0000       1.026887        27.9430 
  98   0.0000       1.068340        29.0710 
  99   0.0000       1.131675        30.7944 
 100   0.0000       1.180334        32.1185 
 101   0.0000       1.216196        33.0944 
 102   0.0000       1.231740        33.5174 
 103   0.0000       1.262714        34.3602 
 104   0.0000       1.276601        34.7381 
 105   0.0000       1.280295        34.8386 
 106   0.0000       1.288591        35.0644 
 107   0.0000       1.299654        35.3654 
 108   0.0000       1.373122        37.3646 
 109   0.0000       1.391961        37.8772 
 110   0.0000       1.412106        38.4254 
 111   0.0000       1.518383        41.3173 
 112   0.0000       1.549689        42.1692 
 113   0.0000       1.606776        43.7226 
 114   0.0000       1.613171        43.8966 
 115   0.0000       1.625901        44.2430 
 116   0.0000       1.627739        44.2930 
 117   0.0000       1.639644        44.6170 
 118   0.0000       1.642028        44.6819 
 119   0.0000       1.644032        44.7364 
 120   0.0000       1.651964        44.9522 
 121   0.0000       1.657046        45.0905 
 122   0.0000       1.712227        46.5921 
 123   0.0000       1.729361        47.0583 
 124   0.0000       1.806561        49.1590 
 125   0.0000       1.827228        49.7214 
 126   0.0000       1.840572        50.0845 
 127   0.0000       1.844354        50.1874 
 128   0.0000       1.867133        50.8073 
 129   0.0000       1.875419        51.0328 
 130   0.0000       1.887618        51.3647 
 131   0.0000       1.899919        51.6994 
 132   0.0000       1.903340        51.7925 
 133   0.0000       1.910479        51.9868 
 134   0.0000       1.919070        52.2206 
 135   0.0000       1.948711        53.0271 
 136   0.0000       1.957520        53.2668 
 137   0.0000       1.962265        53.3960 
 138   0.0000       1.998966        54.3946 
 139   0.0000       2.000034        54.4237 
 140   0.0000       2.007760        54.6339 
 141   0.0000       2.043623        55.6098 
 142   0.0000       2.053963        55.8912 
 143   0.0000       2.097004        57.0624 
 144   0.0000       2.113018        57.4981 
 145   0.0000       2.138770        58.1989 
 146   0.0000       2.177324        59.2480 
 147   0.0000       2.190575        59.6086 
 148   0.0000       2.194316        59.7104 
 149   0.0000       2.218283        60.3626 
 150   0.0000       2.226313        60.5811 
 151   0.0000       2.285521        62.1922 
 152   0.0000       2.290077        62.3162 
 153   0.0000       2.305843        62.7452 
 154   0.0000       2.347220        63.8711 
 155   0.0000       2.355903        64.1074 
 156   0.0000       2.405603        65.4598 
 157   0.0000       2.431456        66.1633 
 158   0.0000       2.507734        68.2389 
 159   0.0000       2.521472        68.6127 
 160   0.0000       2.548262        69.3417 
 161   0.0000       2.555416        69.5364 
 162   0.0000       2.567056        69.8532 
 163   0.0000       2.580774        70.2264 
 164   0.0000       2.597442        70.6800 
 165   0.0000       2.598259        70.7022 
 166   0.0000       2.647178        72.0334 
 167   0.0000       2.695979        73.3613 
 168   0.0000       2.721613        74.0588 
 169   0.0000       2.769774        75.3694 
 170   0.0000       2.787442        75.8502 
 171   0.0000       2.847078        77.4729 
 172   0.0000       2.847194        77.4761 
 173   0.0000       2.882507        78.4370 
 174   0.0000       2.890481        78.6540 
 175   0.0000       2.897706        78.8506 
 176   0.0000       2.909228        79.1641 
 177   0.0000       2.920909        79.4820 
 178   0.0000       3.009838        81.9019 
 179   0.0000       3.013956        82.0139 
 180   0.0000       3.043742        82.8244 
 181   0.0000       3.061412        83.3053 
 182   0.0000       3.071023        83.5668 
 183   0.0000       3.084080        83.9221 
 184   0.0000       3.099231        84.3344 
 185   0.0000       3.137548        85.3770 
 186   0.0000       3.153618        85.8143 
 187   0.0000       3.303181        89.8841 
 188   0.0000       3.429535        93.3224 
 189   0.0000       3.514618        95.6376 
 190   0.0000       3.588364        97.6443 

                    ********************************
                    * MULLIKEN POPULATION ANALYSIS *
                    ********************************

-----------------------
MULLIKEN ATOMIC CHARGES
-----------------------
   0 N :   -0.198969
   1 C :    0.221928
   2 N :   -0.208049
   3 C :   -0.098907
   4 C :   -0.106281
   5 C :    0.087143
   6 C :    0.083321
   7 H :    0.089880
   8 H :    0.087560
   9 H :    0.087730
  10 H :    0.090767
  11 H :    0.083081
  12 H :    0.090953
  13 C :    0.086141
  14 C :    0.101930
  15 H :    0.067140
  16 H :    0.067253
  17 H :    0.051389
  18 H :    0.074223
  19 H :    0.049423
  20 H :    0.074023
  21 H :    0.118319
Sum of atomic charges:    1.0000000

--------------------------------
MULLIKEN REDUCED ORBITAL CHARGES
--------------------------------
  0 N s       :     3.391626  s :     3.391626
      pz      :     1.466024  p :     3.773208
      px      :     1.149880
      py      :     1.157305
      dz2     :     0.002373  d :     0.034135
      dxz     :     0.006041
      dyz     :     0.006750
      dx2y2   :     0.008435
      dxy     :     0.010535
  1 C s       :     3.087642  s :     3.087642
      pz      :     0.947160  p :     2.622915
      px      :     0.771393
      py      :     0.904362
      dz2     :     0.005138  d :     0.067515
      dxz     :     0.016751
      dyz     :     0.006445
      dx2y2   :     0.016754
      dxy     :     0.022427
  2 N s       :     3.392031  s :     3.392031
      pz      :     1.475063  p :     3.782243
      px      :     1.151572
      py      :     1.155608
      dz2     :     0.002379  d :     0.033775
      dxz     :     0.005596
      dyz     :     0.006935
      dx2y2   :     0.008097
      dxy     :     0.010768
  3 C s       :     3.087797  s :     3.087797
      pz      :     1.049148  p :     2.952310
      px      :     1.007187
      py      :     0.895975
      dz2     :     0.004510  d :     0.058799
      dxz     :     0.009980
      dyz     :     0.010216
      dx2y2   :     0.020316
      dxy     :     0.013777
  4 C s       :     3.095690  s :     3.095690
      pz      :     1.052159  p :     2.952029
      px      :     1.004883
      py      :     0.894987
      dz2     :     0.004530  d :     0.058562
      dxz     :     0.009931
      dyz     :     0.009986
      dx2y2   :     0.020410
      dxy     :     0.013706
  5 C s       :     2.992374  s :     2.992374
      pz      :     1.071744  p :     2.882745
      px      :     0.764449
      py      :     1.046552
      dz2     :     0.007259  d :     0.037738
      dxz     :     0.009565
      dyz     :     0.003098
      dx2y2   :     0.011372
      dxy     :     0.006444
  6 C s       :     2.997393  s :     2.997393
      pz      :     1.075871  p :     2.881750
      px      :     0.769700
      py      :     1.036179
      dz2     :     0.007340  d :     0.037536
      dxz     :     0.005414
      dyz     :     0.007145
      dx2y2   :     0.008260
      dxy     :     0.009376
  7 H s       :     0.885946  s :     0.885946
      pz      :     0.005013  p :     0.024173
      px      :     0.002579
      py      :     0.016581
  8 H s       :     0.888394  s :     0.888394
      pz      :     0.012673  p :     0.024046
      px      :     0.005566
      py      :     0.005806
  9 H s       :     0.888230  s :     0.888230
      pz      :     0.012773  p :     0.024039
      px      :     0.005524
      py      :     0.005742
 10 H s       :     0.885251  s :     0.885251
      pz      :     0.012427  p :     0.023982
      px      :     0.003011
      py      :     0.008544
 11 H s       :     0.892320  s :     0.892320
      pz      :     0.005153  p :     0.024599
      px      :     0.008357
      py      :     0.011089
 12 H s       :     0.885083  s :     0.885083
      pz      :     0.012811  p :     0.023965
      px      :     0.003054
      py      :     0.008100
 13 C s       :     2.891603  s :     2.891603
      pz      :     1.039761  p :     2.995375
      px      :     0.988617
      py      :     0.966997
      dz2     :     0.005515  d :     0.026880
      dxz     :     0.008334
      dyz     :     0.001934
      dx2y2   :     0.002906
      dxy     :     0.008192
 14 C s       :     2.876641  s :     2.876641
      pz      :     1.042722  p :     2.994587
      px      :     0.982649
      py      :     0.969216
      dz2     :     0.005416  d :     0.026843
      dxz     :     0.008453
      dyz     :     0.001937
      dx2y2   :     0.002994
      dxy     :     0.008044
 15 H s       :     0.907751  s :     0.907751
      pz      :     0.012275  p :     0.025109
      px      :     0.008503
      py      :     0.004331
 16 H s       :     0.907634  s :     0.907634
      pz      :     0.012302  p :     0.025112
      px      :     0.008478
      py      :     0.004332
 17 H s       :     0.923324  s :     0.923324
      pz      :     0.004998  p :     0.025288
      px      :     0.006910
      py      :     0.013380
 18 H s       :     0.900785  s :     0.900785
      pz      :     0.012168  p :     0.024992
      px      :     0.008521
      py      :     0.004302
 19 H s       :     0.925185  s :     0.925185
      pz      :     0.005028  p :     0.025393
      px      :     0.007263
      py      :     0.013102
 20 H s       :     0.900996  s :     0.900996
      pz      :     0.012260  p :     0.024981
      px      :     0.008423
      py      :     0.004298
 21 H s       :     0.856669  s :     0.856669
      pz      :     0.004603  p :     0.025012
      px      :     0.001334
      py      :     0.019074


                     *******************************
                     * LOEWDIN POPULATION ANALYSIS *
                     *******************************

----------------------
LOEWDIN ATOMIC CHARGES
----------------------
   0 N :    0.102819
   1 C :    0.124751
   2 N :    0.096754
   3 C :   -0.007306
   4 C :   -0.010671
   5 C :    0.052394
   6 C :    0.052880
   7 H :    0.054446
   8 H :    0.051026
   9 H :    0.051024
  10 H :    0.052504
  11 H :    0.050438
  12 H :    0.052324
  13 C :   -0.047751
  14 C :   -0.045718
  15 H :    0.051385
  16 H :    0.051409
  17 H :    0.050980
  18 H :    0.051677
  19 H :    0.051462
  20 H :    0.051739
  21 H :    0.061433

-------------------------------
LOEWDIN REDUCED ORBITAL CHARGES
-------------------------------
  0 N s       :     3.037103  s :     3.037103
      pz      :     1.394238  p :     3.781592
      px      :     1.186547
      py      :     1.200807
      dz2     :     0.004481  d :     0.078486
      dxz     :     0.009826
      dyz     :     0.013142
      dx2y2   :     0.023098
      dxy     :     0.027939
  1 C s       :     2.831463  s :     2.831463
      pz      :     0.968070  p :     2.886127
      px      :     0.895508
      py      :     1.022549
      dz2     :     0.011021  d :     0.157658
      dxz     :     0.034759
      dyz     :     0.010204
      dx2y2   :     0.042162
      dxy     :     0.059512
  2 N s       :     3.038354  s :     3.038354
      pz      :     1.402529  p :     3.787122
      px      :     1.186483
      py      :     1.198110
      dz2     :     0.004474  d :     0.077770
      dxz     :     0.009303
      dyz     :     0.013233
      dx2y2   :     0.022470
      dxy     :     0.028290
  3 C s       :     2.836745  s :     2.836745
      pz      :     1.032906  p :     3.030335
      px      :     1.055026
      py      :     0.942403
      dz2     :     0.009783  d :     0.140226
      dxz     :     0.019015
      dyz     :     0.019799
      dx2y2   :     0.054367
      dxy     :     0.037263
  4 C s       :     2.836061  s :     2.836061
      pz      :     1.038277  p :     3.034960
      px      :     1.055342
      py      :     0.941340
      dz2     :     0.009801  d :     0.139650
      dxz     :     0.018911
      dyz     :     0.019228
      dx2y2   :     0.054452
      dxy     :     0.037258
  5 C s       :     2.819020  s :     2.819020
      pz      :     1.098380  p :     3.033560
      px      :     0.863243
      py      :     1.071937
      dz2     :     0.018018  d :     0.095027
      dxz     :     0.025595
      dyz     :     0.006847
      dx2y2   :     0.029128
      dxy     :     0.015439
  6 C s       :     2.818867  s :     2.818867
      pz      :     1.101412  p :     3.033979
      px      :     0.865948
      py      :     1.066620
      dz2     :     0.018105  d :     0.094274
      dxz     :     0.012468
      dyz     :     0.019515
      dx2y2   :     0.019554
      dxy     :     0.024631
  7 H s       :     0.877806  s :     0.877806
      pz      :     0.013597  p :     0.067748
      px      :     0.008678
      py      :     0.045473
  8 H s       :     0.881686  s :     0.881686
      pz      :     0.034191  p :     0.067288
      px      :     0.016988
      py      :     0.016109
  9 H s       :     0.881698  s :     0.881698
      pz      :     0.034467  p :     0.067278
      px      :     0.016888
      py      :     0.015922
 10 H s       :     0.880125  s :     0.880125
      pz      :     0.033718  p :     0.067371
      px      :     0.010037
      py      :     0.023617
 11 H s       :     0.880948  s :     0.880948
      pz      :     0.014036  p :     0.068614
      px      :     0.023854
      py      :     0.030724
 12 H s       :     0.880344  s :     0.880344
      pz      :     0.034773  p :     0.067332
      px      :     0.010171
      py      :     0.022388
 13 C s       :     2.811381  s :     2.811381
      pz      :     1.079540  p :     3.163483
      px      :     1.046603
      py      :     1.037340
      dz2     :     0.014837  d :     0.072886
      dxz     :     0.022695
      dyz     :     0.003892
      dx2y2   :     0.008406
      dxy     :     0.023057
 14 C s       :     2.810362  s :     2.810362
      pz      :     1.079731  p :     3.162340
      px      :     1.043788
      py      :     1.038821
      dz2     :     0.014669  d :     0.073015
      dxz     :     0.022988
      dyz     :     0.003846
      dx2y2   :     0.008797
      dxy     :     0.022715
 15 H s       :     0.880452  s :     0.880452
      pz      :     0.032492  p :     0.068163
      px      :     0.022852
      py      :     0.012819
 16 H s       :     0.880430  s :     0.880430
      pz      :     0.032563  p :     0.068162
      px      :     0.022780
      py      :     0.012819
 17 H s       :     0.880445  s :     0.880445
      pz      :     0.013414  p :     0.068575
      px      :     0.019188
      py      :     0.035974
 18 H s       :     0.880086  s :     0.880086
      pz      :     0.032639  p :     0.068237
      px      :     0.022814
      py      :     0.012785
 19 H s       :     0.879997  s :     0.879997
      pz      :     0.013390  p :     0.068541
      px      :     0.019999
      py      :     0.035152
 20 H s       :     0.880052  s :     0.880052
      pz      :     0.032887  p :     0.068209
      px      :     0.022553
      py      :     0.012769
 21 H s       :     0.862152  s :     0.862152
      pz      :     0.015463  p :     0.076415
      px      :     0.007345
      py      :     0.053607


                      *****************************
                      * MAYER POPULATION ANALYSIS *
                      *****************************

  NA   - Mulliken gross atomic population
  ZA   - Total nuclear charge
  QA   - Mulliken gross atomic charge
  VA   - Mayer's total valence
  BVA  - Mayer's bonded valence
  FA   - Mayer's free valence

  ATOM       NA         ZA         QA         VA         BVA        FA
  0 N      7.1990     7.0000    -0.1990     3.5265     3.5265     0.0000
  1 C      5.7781     6.0000     0.2219     3.8546     3.8546    -0.0000
  2 N      7.2080     7.0000    -0.2080     3.5152     3.5152    -0.0000
  3 C      6.0989     6.0000    -0.0989     4.0612     4.0612     0.0000
  4 C      6.1063     6.0000    -0.1063     4.0581     4.0581     0.0000
  5 C      5.9129     6.0000     0.0871     3.8742     3.8742    -0.0000
  6 C      5.9167     6.0000     0.0833     3.8610     3.8610    -0.0000
  7 H      0.9101     1.0000     0.0899     0.9967     0.9967    -0.0000
  8 H      0.9124     1.0000     0.0876     0.9928     0.9928    -0.0000
  9 H      0.9123     1.0000     0.0877     0.9927     0.9927     0.0000
 10 H      0.9092     1.0000     0.0908     0.9928     0.9928     0.0000
 11 H      0.9169     1.0000     0.0831     1.0088     1.0088    -0.0000
 12 H      0.9090     1.0000     0.0910     0.9926     0.9926    -0.0000
 13 C      5.9139     6.0000     0.0861     3.9596     3.9596    -0.0000
 14 C      5.8981     6.0000     0.1019     3.9541     3.9541    -0.0000
 15 H      0.9329     1.0000     0.0671     0.9954     0.9954     0.0000
 16 H      0.9327     1.0000     0.0673     0.9954     0.9954    -0.0000
 17 H      0.9486     1.0000     0.0514     1.0052     1.0052     0.0000
 18 H      0.9258     1.0000     0.0742     0.9919     0.9919    -0.0000
 19 H      0.9506     1.0000     0.0494     1.0063     1.0063     0.0000
 20 H      0.9260     1.0000     0.0740     0.9919     0.9919     0.0000
 21 H      0.8817     1.0000     0.1183     0.9982     0.9982    -0.0000

  Mayer bond orders larger than 0.100000
B(  0-N ,  1-C ) :   1.3533 B(  0-N ,  4-C ) :   1.1778 B(  0-N ,  5-C ) :   0.9200 
B(  1-C ,  2-N ) :   1.3441 B(  1-C , 21-H ) :   0.9741 B(  2-N ,  3-C ) :   1.1824 
B(  2-N ,  6-C ) :   0.9100 B(  3-C ,  4-C ) :   1.6026 B(  3-C , 13-C ) :   1.0959 
B(  4-C , 14-C ) :   1.0971 B(  5-C ,  7-H ) :   0.9687 B(  5-C ,  8-H ) :   0.9706 
B(  5-C ,  9-H ) :   0.9707 B(  6-C , 10-H ) :   0.9734 B(  6-C , 11-H ) :   0.9689 
B(  6-C , 12-H ) :   0.9736 B( 13-C , 18-H ) :   0.9460 B( 13-C , 19-H ) :   0.9385 
B( 13-C , 20-H ) :   0.9462 B( 14-C , 15-H ) :   0.9450 B( 14-C , 16-H ) :   0.9450 
B( 14-C , 17-H ) :   0.9396 

-------
TIMINGS
-------

Total SCF time: 0 days 0 hours 4 min 3 sec 

Total time                  ....     243.187 sec
Sum of individual times     ....     242.735 sec  ( 99.8%)

Fock matrix formation       ....     238.686 sec  ( 98.1%)
  Split-RI-J                ....       9.171 sec  (  3.8% of F)
  Chain of spheres X        ....     191.485 sec  ( 80.2% of F)
  XC integration            ....      23.505 sec  (  9.8% of F)
    Basis function eval.    ....       8.555 sec  ( 36.4% of XC)
    Density eval.           ....       5.124 sec  ( 21.8% of XC)
    XC-Functional eval.     ....       3.357 sec  ( 14.3% of XC)
    XC-Potential eval.      ....       5.727 sec  ( 24.4% of XC)
Diagonalization             ....       0.079 sec  (  0.0%)
Density matrix formation    ....       0.011 sec  (  0.0%)
Population analysis         ....       0.010 sec  (  0.0%)
Initial guess               ....       0.673 sec  (  0.3%)
Orbital Transformation      ....       0.000 sec  (  0.0%)
Orbital Orthonormalization  ....       0.000 sec  (  0.0%)
DIIS solution               ....       0.028 sec  (  0.0%)
SOSCF solution              ....       0.027 sec  (  0.0%)
Grid generation             ....       3.221 sec  (  1.3%)

Maximum memory used throughout the entire SCF-calculation: 78.8 MB


-------------------------------------------------------------------------------
                          DFT DISPERSION CORRECTION                            
                                                                               
                                 DFTD4 V2.5                                    
-------------------------------------------------------------------------------
The WB97X functional is recognized
Active option DFTDOPT                   ...         5   

Starting D4
-------------------------   ----------------
Dispersion correction           -0.002871719
-------------------------   ----------------


-------------------------   --------------------
FINAL SINGLE POINT ENERGY      -383.583928174092
-------------------------   --------------------

------------------------------------------------------------------------------
                         ORCA SCF GRADIENT CALCULATION
------------------------------------------------------------------------------

 ... reading COSX grid (gridx3)
Gradient of the Kohn-Sham DFT energy:
Kohn-Sham wavefunction type      ... RKS
Hartree-Fock exchange scaling    ...    0.158
Number of operators              ...    1
Number of atoms                  ...   22
Basis set dimensions             ...  191
Integral neglect threshold       ... 2.5e-11
Integral primitive cutoff        ... 2.5e-12
SHARK Integral package           ... ON

Nuc. rep. gradient       (SHARK) ... done (  0.0 sec)
HCore & Overlap gradient (SHARK) ... done (  0.4 sec)
RI-J gradient            (SHARK) ... done (  2.0 sec)
COSX-gradient                    ... done ( 39.1 sec)
Exchange-correlation gradient    ... done
Dispersion correction            ... Starting D4


------------------- 
Dispersion Gradient 
------------------- 
   1  :   -0.000011551   -0.000006866    0.000000004
   2  :    0.000000146   -0.000001418    0.000000001
   3  :    0.000011415   -0.000006562    0.000000018
   4  :    0.000002141   -0.000008123    0.000000000
   5  :   -0.000001687   -0.000009383    0.000000008
   6  :   -0.000042844   -0.000017687    0.000000005
   7  :    0.000042415   -0.000019519   -0.000000039
   8  :   -0.000009381   -0.000005719   -0.000000004
   9  :   -0.000008529   -0.000005137   -0.000000313
  10  :   -0.000008529   -0.000005144    0.000000315
  11  :    0.000008993   -0.000005728    0.000000412
  12  :    0.000008501   -0.000004758    0.000000004
  13  :    0.000008970   -0.000005718   -0.000000419
  14  :    0.000029014    0.000031068    0.000000008
  15  :   -0.000029272    0.000030000   -0.000000009
  16  :   -0.000008214    0.000006765    0.000001616
  17  :   -0.000008214    0.000006779   -0.000001624
  18  :   -0.000006370    0.000010409   -0.000000000
  19  :    0.000008143    0.000007179    0.000001786
  20  :    0.000006414    0.000010474    0.000000018
  21  :    0.000008145    0.000007172   -0.000001789
  22  :    0.000000295   -0.000008084    0.000000000

  |G| =    0.000099383

done

------------------
CARTESIAN GRADIENT
------------------

   1   N   :   -0.013246203    0.003942601    0.000042753
   2   C   :   -0.000560386   -0.006130040   -0.000029447
   3   N   :    0.012577176    0.004780366   -0.000073692
   4   C   :    0.008828327   -0.008655277    0.000016063
   5   C   :   -0.008371349   -0.007808449   -0.000026416
   6   C   :    0.008885221    0.002124916   -0.000041593
   7   C   :   -0.006528995    0.006562826    0.000240032
   8   H   :   -0.000854287    0.006169150    0.000041071
   9   H   :    0.001377016   -0.001900511    0.005098053
  10   H   :    0.001387565   -0.001859557   -0.005121666
  11   H   :   -0.000453694    0.002250015   -0.004902545
  12   H   :   -0.002975868   -0.005424679   -0.000203638
  13   H   :   -0.000522858    0.002014907    0.004968315
  14   C   :    0.000964629    0.003613069    0.000033530
  15   C   :   -0.000705196    0.003227858    0.000005775
  16   H   :    0.004866595   -0.000361876   -0.006462171
  17   H   :    0.004849760   -0.000363398    0.006470310
  18   H   :   -0.004252598   -0.007404080   -0.000014720
  19   H   :   -0.004995583   -0.000457809   -0.006131824
  20   H   :    0.004408347   -0.007176468   -0.000024253
  21   H   :   -0.004966012   -0.000496458    0.006149453
  22   H   :    0.000303964    0.013447980   -0.000007197

Difference to translation invariance:
           :    0.0000155707    0.0000950859    0.0000261900

Difference to rotation invariance:
           :   -0.0000136556   -0.0001345480    0.0018860075

Norm of the cartesian gradient     ...    0.0408396894
RMS gradient                       ...    0.0050270183
MAX gradient                       ...    0.0134479800

-------
TIMINGS
-------

Total SCF gradient time            ...       51.756 sec

One electron gradient       ....       0.389 sec  (  0.8%)
RI-J Coulomb gradient       ....       2.000 sec  (  3.9%)
COSX gradient               ....      39.119 sec  ( 75.6%)
XC gradient                 ....       8.120 sec  ( 15.7%)
CPCM gradient               ....       0.798 sec  (  1.5%)
   A-Matrix (El+Nuc)        ....       0.070 sec  (  0.1%)
   Potential                ....       0.728 sec  (  1.4%)

Maximum memory used throughout the entire SCFGRAD-calculation: 63.9 MB
------------------------------------------------------------------------------
                         ORCA GEOMETRY RELAXATION STEP
------------------------------------------------------------------------------

Reading the OPT-File                    .... done
Getting information on internals        .... done
Copying old internal coords+grads       .... done
Making the new internal coordinates     .... (new redundants).... done
Validating the new internal coordinates .... (new redundants).... done
Calculating the B-matrix                .... done
Calculating the G,G- and P matrices     .... done
Transforming gradient to internals      .... done
Projecting the internal gradient        .... done
Number of atoms                         ....  22
Number of internal coordinates          .... 105
Current Energy                          ....  -383.583928174 Eh
Current gradient norm                   ....     0.040839689 Eh/bohr
Maximum allowed component of the step   ....  0.300
Current trust radius                    ....  0.300
Evaluating the initial hessian          ....  (Almloef) done
Projecting the Hessian                  .... done
Forming the augmented Hessian           .... done
Diagonalizing the augmented Hessian     .... done
Last element of RFO vector              ....  0.995537820
Lowest eigenvalues of augmented Hessian:
 -0.003665942  0.014692256  0.014860016  0.018430358  0.018937479
Length of the computed step             ....  0.094786338
The final length of the internal step   ....  0.094786338
Converting the step to cartesian space:
 Initial RMS(Int)=    0.0092501995
Transforming coordinates:
 Iter   0:  RMS(Cart)=    0.0188430848 RMS(Int)=    0.0092502332
 Iter   1:  RMS(Cart)=    0.0000485049 RMS(Int)=    0.0000208506
 Iter   2:  RMS(Cart)=    0.0000004120 RMS(Int)=    0.0000002243
 Iter   3:  RMS(Cart)=    0.0000000037 RMS(Int)=    0.0000000023
done
Storing new coordinates                 .... done

                                .--------------------.
          ----------------------|Geometry convergence|-------------------------
          Item                value                   Tolerance       Converged
          ---------------------------------------------------------------------
          RMS gradient        0.0038568122            0.0001000000      NO
          MAX gradient        0.0134423351            0.0003000000      NO
          RMS step            0.0092501995            0.0020000000      NO
          MAX step            0.0346284705            0.0040000000      NO
          ........................................................
          Max(Bonds)      0.0183      Max(Angles)    0.53
          Max(Dihed)        0.31      Max(Improp)    0.00
          ---------------------------------------------------------------------

The optimization has not yet converged - more geometry cycles are needed


[...]
     50      -0.182914  -0.002923   0.003040   0.566478   0.017685   0.133791
     51       0.072273   0.002589  -0.000658   0.000572  -0.000017   0.218998
     52       0.127584   0.002713  -0.001351   0.001028  -0.000029   0.400848
     53       0.000102   0.000001   0.000004  -0.009950  -0.000367   0.000307
     54       0.341219  -0.002766  -0.002859   0.013100  -0.416269   0.152949
     55      -0.014855  -0.000107   0.000669  -0.000313   0.017676  -0.000664
     56       0.482891  -0.003696  -0.003480   0.017799  -0.567239   0.222633
     57      -0.214382   0.001238   0.001775   0.000056  -0.000410   0.383700
     58       0.359835  -0.002190  -0.004326  -0.000100   0.000751  -0.659892
     59      -0.000099   0.000000   0.000014  -0.000275   0.010057   0.000130
     60       0.340925  -0.002765  -0.003300  -0.013024   0.415698   0.153527
     61      -0.015189  -0.000103   0.000615   0.000326  -0.018088  -0.000872
     62      -0.483000   0.003700   0.004147   0.017708  -0.567013  -0.223656
     63      -0.000134  -0.001135   0.000924  -0.000000   0.000003  -0.000092
     64      -0.002718  -0.000958  -0.002331  -0.000008  -0.000046  -0.000149
     65       0.000003  -0.000006   0.000026  -0.000005   0.000070   0.000001
                 60         61         62         63         64         65    
      0      -0.000318   0.000006  -0.000006   0.000573   0.000037  -0.003774
      1       0.000299   0.000002  -0.000003   0.000491   0.000041   0.002875
      2      -0.000001   0.000604   0.000018  -0.000001  -0.000006  -0.000004
      3       0.000019   0.000002   0.000002  -0.000160   0.000454   0.000081
      4       0.000161  -0.000001   0.000005  -0.000247   0.000719  -0.094031
      5       0.000000  -0.000183   0.000217   0.000005  -0.000018   0.000063
      6       0.000215  -0.000001   0.000049  -0.000091   0.000422   0.003602
      7       0.000189   0.000000  -0.000026   0.000061   0.000261   0.003002
      8       0.000001  -0.000075   0.000524   0.000001   0.000005   0.000003
      9       0.000555   0.000001   0.000011  -0.000010  -0.000397  -0.000938
     10      -0.000131  -0.000001  -0.000012   0.000085  -0.000186   0.002142
     11       0.000000  -0.000044  -0.000203   0.000000   0.000012  -0.000001
     12      -0.000836  -0.000001   0.000002   0.000614  -0.000018   0.000972
     13       0.000168   0.000002  -0.000001   0.000039   0.000087   0.002142
     14       0.000000   0.000077  -0.000020  -0.000002  -0.000001  -0.000002
     15       0.000242  -0.000083  -0.000003   0.027003   0.000067  -0.000020
     16      -0.000373  -0.000056   0.000015  -0.092381  -0.000186   0.000211
     17       0.000127  -0.096169  -0.000382   0.000026   0.000002   0.000004
     18      -0.000344  -0.000000  -0.000187   0.000099  -0.038489  -0.000518
     19      -0.000693  -0.000008   0.001525   0.000105  -0.087007  -0.001233
     20      -0.000078   0.000338  -0.096270  -0.000014  -0.001180  -0.000030
     21       0.000186  -0.000026  -0.000002  -0.003245  -0.000027   0.001683
     22       0.002621   0.004381  -0.000122   0.853167   0.001542  -0.004438
     23       0.000024  -0.008417  -0.000021   0.003269   0.000005  -0.000008
     24      -0.001322   0.325742   0.001102  -0.165911  -0.000366   0.002194
     25       0.001392  -0.247029  -0.000930   0.119973   0.000270  -0.000216
     26      -0.002048   0.571925   0.002149  -0.302711  -0.000656   0.001947
     27      -0.000454  -0.324859  -0.001073  -0.162322  -0.000348   0.002187
     28       0.000726   0.243235   0.000894   0.115676   0.000253  -0.000214
     29       0.000530   0.575821   0.002099   0.299109   0.000628  -0.001968
     30      -0.000347  -0.000391   0.097213   0.000043  -0.049821  -0.001291
     31       0.001079   0.001504  -0.408656  -0.000222   0.191222   0.002209
     32      -0.001840  -0.002062   0.561637   0.000320  -0.279491  -0.003413
     33       0.004305  -0.000038   0.012805  -0.001223   0.547354   0.002781
     34       0.005722  -0.000042   0.016339  -0.001472   0.688466   0.006334
     35       0.000191   0.000046  -0.008652  -0.000058   0.026621   0.000213
     36      -0.000490   0.000433  -0.108698   0.000006  -0.050931  -0.001301
     37       0.001399  -0.001375   0.374994  -0.000060   0.158807   0.002015
     38       0.002555  -0.002148   0.588082  -0.000111   0.266904   0.003519
     39       0.033505   0.000022  -0.000085   0.000121  -0.001069  -0.000065
     40      -0.033785  -0.000023   0.000064  -0.000130   0.000885  -0.000185
     41      -0.000035  -0.000082   0.000647  -0.000000  -0.000012   0.000004
     42      -0.054704  -0.000089   0.000007   0.000167  -0.000075  -0.000024
     43      -0.058239  -0.000086   0.000006   0.000322  -0.000113  -0.000203
     44       0.000007   0.001195   0.000019   0.000001  -0.000002  -0.000001
     45       0.147606   0.005112   0.000132  -0.000532   0.000053  -0.000468
     46       0.005478   0.001199  -0.000050   0.000602   0.000043   0.000289
     47      -0.213540  -0.007366  -0.000104   0.001377  -0.000135   0.000340
     48       0.146487  -0.004565  -0.000158  -0.000531   0.000076  -0.000462
     49       0.005343  -0.001167   0.000051   0.000600   0.000047   0.000288
     50       0.212941  -0.006599  -0.000143  -0.001371   0.000164  -0.000332
     51       0.370082   0.000557  -0.000037  -0.002600   0.000546   0.000987
     52       0.676643   0.001006  -0.000072  -0.004270   0.001053   0.001369
     53       0.000513   0.000590   0.000005  -0.000003   0.000001   0.000002
     54      -0.087168   0.000248  -0.002448  -0.000233   0.005174   0.000895
     55       0.000302  -0.000074   0.000327   0.000007  -0.001001   0.000219
     56      -0.127029   0.000356  -0.003411  -0.000346   0.006606   0.000885
     57      -0.233070  -0.000158   0.000539  -0.000718   0.007723  -0.000791
     58       0.400308   0.000270  -0.000886   0.001271  -0.012183   0.000992
     59      -0.000074  -0.000014   0.000068  -0.000001  -0.000027  -0.000002
     60      -0.087434  -0.000363   0.003075  -0.000230   0.004900   0.000929
     61       0.000415   0.000075  -0.000415   0.000007  -0.000916   0.000214
     62       0.127530   0.000521  -0.004276   0.000342  -0.006373  -0.000932
     63      -0.000010  -0.000004  -0.000038  -0.000865   0.000290   0.001129
     64      -0.001329   0.000037  -0.000169   0.005756  -0.009434   0.995473
     65      -0.000001   0.000404  -0.001141  -0.000016   0.000066  -0.000676


-----------
IR SPECTRUM
-----------

 Mode   freq       eps      Int      T**2         TX        TY        TZ
       cm**-1   L/(mol*cm) km/mol    a.u.
----------------------------------------------------------------------------
  7:     98.76   0.000030    0.15  0.000095  (-0.000037  0.000060  0.009728)
  8:    132.86   0.000001    0.00  0.000002  ( 0.000162 -0.000117  0.001255)
  9:    152.76   0.000180    0.91  0.000368  ( 0.000158 -0.000143  0.019186)
 10:    170.40   0.001855    9.38  0.003398  (-0.000147  0.000145 -0.058289)
 11:    198.50   0.000026    0.13  0.000041  ( 0.000220  0.000180 -0.006434)
 12:    275.14   0.000265    1.34  0.000301  ( 0.011716 -0.012778 -0.000309)
 13:    288.83   0.000238    1.20  0.000257  ( 0.001447  0.015829  0.002149)
 14:    294.50   0.001555    7.86  0.001648  (-0.005662 -0.004469 -0.039951)
 15:    294.89   0.000835    4.22  0.000883  ( 0.008490  0.007585 -0.027454)
 16:    330.69   0.000109    0.55  0.000103  ( 0.000380  0.000330  0.010144)
 17:    534.71   0.000614    3.10  0.000358  (-0.018901  0.001113 -0.000048)
 18:    577.66   0.000657    3.32  0.000355  ( 0.018816 -0.000872  0.000093)
 19:    621.70   0.000526    2.66  0.000264  ( 0.000441 -0.016230  0.000441)
 20:    641.95   0.004018   20.31  0.001953  (-0.000101 -0.000198 -0.044197)
 21:    694.16   0.000002    0.01  0.000001  (-0.000160 -0.000117  0.000933)
 22:    742.00   0.000695    3.51  0.000292  ( 0.002572 -0.016897 -0.000104)
 23:    858.69   0.001468    7.42  0.000534  (-0.023066 -0.000943  0.000832)
 24:    863.26   0.002847   14.39  0.001029  ( 0.000456  0.000098  0.032077)
 25:    975.65   0.000071    0.36  0.000023  (-0.003055 -0.003657  0.000100)
 26:   1046.99   0.001702    8.60  0.000507  ( 0.000000 -0.000049 -0.022523)
 27:   1070.30   0.000001    0.00  0.000000  (-0.000050  0.000117  0.000466)
 28:   1082.80   0.000529    2.67  0.000152  ( 0.010963  0.005669 -0.000040)
 29:   1098.22   0.002036   10.29  0.000579  (-0.019595  0.013949 -0.000031)
 30:   1121.07   0.000966    4.88  0.000269  ( 0.016258  0.002083 -0.000325)
 31:   1137.34   0.000042    0.21  0.000012  (-0.000634  0.000760  0.003264)
 32:   1143.79   0.000128    0.65  0.000035  (-0.000334  0.000190  0.005900)
 33:   1192.31   0.000098    0.50  0.000026  (-0.004099  0.002988  0.000055)
 34:   1230.56   0.018295   92.45  0.004639  (-0.068081  0.002112  0.000013)
 35:   1280.91   0.000339    1.71  0.000083  ( 0.008838  0.002125  0.000140)
 36:   1398.71   0.000416    2.10  0.000093  ( 0.007815 -0.005631  0.000023)
 37:   1401.38   0.001100    5.56  0.000245  (-0.015535 -0.001884 -0.000226)
 38:   1417.02   0.000166    0.84  0.000037  (-0.000976  0.005909 -0.000843)
 39:   1431.47   0.003656   18.48  0.000797  ( 0.028080  0.001219 -0.002645)
 40:   1437.21   0.000743    3.76  0.000161  (-0.000229 -0.000120 -0.012699)
 41:   1440.52   0.005128   25.92  0.001111  (-0.014234 -0.004822 -0.029750)
 42:   1441.42   0.003043   15.38  0.000659  (-0.014752 -0.005572  0.020252)
 43:   1442.52   0.001559    7.88  0.000337  (-0.012067 -0.013776  0.001337)
 44:   1445.42   0.008020   40.53  0.001731  (-0.000614  0.000425  0.041604)
 45:   1451.60   0.009797   49.51  0.002106  ( 0.005202 -0.045591 -0.000664)
 46:   1453.57   0.001379    6.97  0.000296  (-0.000621 -0.002294 -0.017044)
 47:   1459.22   0.001426    7.21  0.000305  (-0.000771  0.016836 -0.004571)
 48:   1474.12   0.003890   19.66  0.000823  ( 0.004277  0.028369 -0.000582)
 49:   1525.46   0.000537    2.71  0.000110  ( 0.010444 -0.000809 -0.000286)
 50:   1540.36   0.000442    2.23  0.000089  ( 0.006979 -0.006381 -0.000203)
 51:   1671.06   0.031816  160.78  0.005941  ( 0.077079  0.000480 -0.000203)
 52:   1736.30   0.006976   35.25  0.001254  (-0.003364  0.035248 -0.000069)
 53:   3075.91   0.002521   12.74  0.000256  ( 0.015276 -0.004727 -0.000001)
 54:   3077.97   0.001577    7.97  0.000160  (-0.006556 -0.010811  0.000019)
 55:   3097.13   0.002292   11.58  0.000231  (-0.014701 -0.003849  0.000039)
 56:   3106.91   0.002656   13.42  0.000267  ( 0.014749 -0.007016 -0.000252)
 57:   3169.14   0.000621    3.14  0.000061  ( 0.000003 -0.000019 -0.007818)
 58:   3172.01   0.000455    2.30  0.000045  ( 0.000081 -0.000088  0.006691)
 59:   3201.64   0.000414    2.09  0.000040  (-0.006085  0.001828  0.000014)
 60:   3206.68   0.000641    3.24  0.000062  (-0.001258 -0.007797  0.000003)
 61:   3212.26   0.000088    0.45  0.000009  (-0.000011 -0.000014 -0.002928)
 62:   3218.92   0.000065    0.33  0.000006  ( 0.000019  0.000094 -0.002513)
 63:   3228.71   0.000008    0.04  0.000001  ( 0.000338 -0.000802  0.000010)
 64:   3243.88   0.000009    0.05  0.000001  (-0.000426  0.000855 -0.000000)
 65:   3299.66   0.010790   54.53  0.001020  (-0.000237  0.031944 -0.000018)

* The epsilon (eps) is given for a Dirac delta lineshape.
** The dipole moment derivative (T) already includes vibrational overlap.

The first frequency considered to be a vibration is 7
The total number of vibrations considered is 59


--------------------------
THERMOCHEMISTRY AT 298.15K
--------------------------

Temperature         ... 298.15 K
Pressure            ... 1.00 atm
Total Mass          ... 125.19 AMU

Throughout the following assumptions are being made:
  (1) The electronic state is orbitally nondegenerate
  (2) There are no thermally accessible electronically excited states
  (3) Hindered rotations indicated by low frequency modes are not
      treated as such but are treated as vibrations and this may
      cause some error
  (4) All equations used are the standard statistical mechanics
      equations for an ideal gas
  (5) All vibrations are strictly harmonic

freq.      98.76  E(vib)   ...       0.46 
freq.     132.86  E(vib)   ...       0.42 
freq.     152.76  E(vib)   ...       0.40 
freq.     170.40  E(vib)   ...       0.38 
freq.     198.50  E(vib)   ...       0.35 
freq.     275.14  E(vib)   ...       0.28 
freq.     288.83  E(vib)   ...       0.27 
freq.     294.50  E(vib)   ...       0.27 
freq.     294.89  E(vib)   ...       0.27 
freq.     330.69  E(vib)   ...       0.24 
freq.     534.71  E(vib)   ...       0.13 
freq.     577.66  E(vib)   ...       0.11 
freq.     621.70  E(vib)   ...       0.09 
freq.     641.95  E(vib)   ...       0.09 
freq.     694.16  E(vib)   ...       0.07 
freq.     742.00  E(vib)   ...       0.06 
freq.     858.69  E(vib)   ...       0.04 
freq.     863.26  E(vib)   ...       0.04 
freq.     975.65  E(vib)   ...       0.03 
freq.    1046.99  E(vib)   ...       0.02 
freq.    1070.30  E(vib)   ...       0.02 
freq.    1082.80  E(vib)   ...       0.02 
freq.    1098.22  E(vib)   ...       0.02 
freq.    1121.07  E(vib)   ...       0.01 
freq.    1137.34  E(vib)   ...       0.01 
freq.    1143.79  E(vib)   ...       0.01 
freq.    1192.31  E(vib)   ...       0.01 
freq.    1230.56  E(vib)   ...       0.01 
freq.    1280.91  E(vib)   ...       0.01 
freq.    1398.71  E(vib)   ...       0.00 
freq.    1401.38  E(vib)   ...       0.00 
freq.    1417.02  E(vib)   ...       0.00 
freq.    1431.47  E(vib)   ...       0.00 
freq.    1437.21  E(vib)   ...       0.00 
freq.    1440.52  E(vib)   ...       0.00 
freq.    1441.42  E(vib)   ...       0.00 
freq.    1442.52  E(vib)   ...       0.00 
freq.    1445.42  E(vib)   ...       0.00 
freq.    1451.60  E(vib)   ...       0.00 
freq.    1453.57  E(vib)   ...       0.00 
freq.    1459.22  E(vib)   ...       0.00 
freq.    1474.12  E(vib)   ...       0.00 
freq.    1525.46  E(vib)   ...       0.00 
freq.    1540.36  E(vib)   ...       0.00 
freq.    1671.06  E(vib)   ...       0.00 
freq.    1736.30  E(vib)   ...       0.00 
freq.    3075.91  E(vib)   ...       0.00 
freq.    3077.97  E(vib)   ...       0.00 
freq.    3097.13  E(vib)   ...       0.00 
freq.    3106.91  E(vib)   ...       0.00 
freq.    3169.14  E(vib)   ...       0.00 
freq.    3172.01  E(vib)   ...       0.00 
freq.    3201.64  E(vib)   ...       0.00 
freq.    3206.68  E(vib)   ...       0.00 
freq.    3212.26  E(vib)   ...       0.00 
freq.    3218.92  E(vib)   ...       0.00 
freq.    3228.71  E(vib)   ...       0.00 
freq.    3243.88  E(vib)   ...       0.00 
freq.    3299.66  E(vib)   ...       0.00 

------------
INNER ENERGY
------------

The inner energy is: U= E(el) + E(ZPE) + E(vib) + E(rot) + E(trans)
    E(el)   - is the total energy from the electronic structure calculation
              = E(kin-el) + E(nuc-el) + E(el-el) + E(nuc-nuc)
    E(ZPE)  - the the zero temperature vibrational energy from the frequency calculation
    E(vib)  - the the finite temperature correction to E(ZPE) due to population
              of excited vibrational states
    E(rot)  - is the rotational thermal energy
    E(trans)- is the translational thermal energy

Summary of contributions to the inner energy U:
Electronic energy                ...   -383.58602806 Eh
Zero point energy                ...      0.19735673 Eh     123.84 kcal/mol
Thermal vibrational correction   ...      0.00669685 Eh       4.20 kcal/mol
Thermal rotational correction    ...      0.00141627 Eh       0.89 kcal/mol
Thermal translational correction ...      0.00141627 Eh       0.89 kcal/mol
-----------------------------------------------------------------------
Total thermal energy                   -383.37914193 Eh


Summary of corrections to the electronic energy:
(perhaps to be used in another calculation)
Total thermal correction                  0.00952939 Eh       5.98 kcal/mol
Non-thermal (ZPE) correction              0.19735673 Eh     123.84 kcal/mol
-----------------------------------------------------------------------
Total correction                          0.20688612 Eh     129.82 kcal/mol


--------
ENTHALPY
--------

The enthalpy is H = U + kB*T
                kB is Boltzmann's constant
Total free energy                 ...   -383.37914193 Eh 
Thermal Enthalpy correction       ...      0.00094421 Eh       0.59 kcal/mol
-----------------------------------------------------------------------
Total Enthalpy                    ...   -383.37819772 Eh


Note: Only C1 symmetry has been detected, increase convergence thresholds 
      if your molecule has a higher symmetry. Symmetry factor of 1.0 is   
      used for the rotational entropy correction. 
 

Note: Rotational entropy computed according to Herzberg 
Infrared and Raman Spectra, Chapter V,1, Van Nostrand Reinhold, 1945 
Point Group:  C1, Symmetry Number:   1  
Rotational constants in cm-1:     0.080439     0.050567     0.031805 

Vibrational entropy computed according to the QRRHO of S. Grimme
Chem.Eur.J. 2012 18 9955


-------
ENTROPY
-------

The entropy contributions are T*S = T*(S(el)+S(vib)+S(rot)+S(trans))
     S(el)   - electronic entropy
     S(vib)  - vibrational entropy
     S(rot)  - rotational entropy
     S(trans)- translational entropy
The entropies will be listed as multiplied by the temperature to get
units of energy

Electronic entropy                ...      0.00000000 Eh      0.00 kcal/mol
Vibrational entropy               ...      0.01141673 Eh      7.16 kcal/mol
Rotational entropy                ...      0.01373736 Eh      8.62 kcal/mol
Translational entropy             ...      0.01918948 Eh     12.04 kcal/mol
-----------------------------------------------------------------------
Final entropy term                ...      0.04434357 Eh     27.83 kcal/mol

In case the symmetry of your molecule has not been determined correctly
or in case you have a reason to use a different symmetry number we print 
out the resulting rotational entropy values for sn=1,12 :
 --------------------------------------------------------
|  sn= 1 | S(rot)=       0.01373736 Eh      8.62 kcal/mol|
|  sn= 2 | S(rot)=       0.01308291 Eh      8.21 kcal/mol|
|  sn= 3 | S(rot)=       0.01270007 Eh      7.97 kcal/mol|
|  sn= 4 | S(rot)=       0.01242845 Eh      7.80 kcal/mol|
|  sn= 5 | S(rot)=       0.01221776 Eh      7.67 kcal/mol|
|  sn= 6 | S(rot)=       0.01204562 Eh      7.56 kcal/mol|
|  sn= 7 | S(rot)=       0.01190007 Eh      7.47 kcal/mol|
|  sn= 8 | S(rot)=       0.01177399 Eh      7.39 kcal/mol|
|  sn= 9 | S(rot)=       0.01166279 Eh      7.32 kcal/mol|
|  sn=10 | S(rot)=       0.01156331 Eh      7.26 kcal/mol|
|  sn=11 | S(rot)=       0.01147332 Eh      7.20 kcal/mol|
|  sn=12 | S(rot)=       0.01139116 Eh      7.15 kcal/mol|
 --------------------------------------------------------


-------------------
GIBBS FREE ENERGY
-------------------

The Gibbs free energy is G = H - T*S

Total enthalpy                    ...   -383.37819772 Eh 
Total entropy correction          ...     -0.04434357 Eh    -27.83 kcal/mol
-----------------------------------------------------------------------
Final Gibbs free energy         ...   -383.42254130 Eh

For completeness - the Gibbs free energy minus the electronic energy
G-E(el)                           ...      0.16348676 Eh    102.59 kcal/mol


Timings for individual modules:

Sum of individual times         ...     2146.601 sec (=  35.777 min)
GTO integral calculation        ...        1.593 sec (=   0.027 min)   0.1 %
SCF iterations                  ...      988.892 sec (=  16.482 min)  46.1 %
SCF Gradient evaluation         ...      258.141 sec (=   4.302 min)  12.0 %
Geometry relaxation             ...        0.279 sec (=   0.005 min)   0.0 %
Analytical frequency calculation...      897.696 sec (=  14.962 min)  41.8 %
                             ****ORCA TERMINATED NORMALLY****
TOTAL RUN TIME: 0 days 0 hours 35 minutes 47 seconds 509 msec
