
                                 *****************
                                 * O   R   C   A *
                                 *****************

                                            #,                                       
                                            ###                                      
                                            ####                                     
                                            #####                                    
                                            ######                                   
                                           ########,                                 
                                     ,,################,,,,,                         
                               ,,#################################,,                 
                          ,,##########################################,,             
                       ,#########################################, ''#####,          
                    ,#############################################,,   '####,        
                  ,##################################################,,,,####,       
                ,###########''''           ''''###############################       
              ,#####''   ,,,,##########,,,,          '''####'''          '####       
            ,##' ,,,,###########################,,,                        '##       
           ' ,,###''''                  '''############,,,                           
         ,,##''                                '''############,,,,        ,,,,,,###''
      ,#''                                            '''#######################'''  
     '                                                          ''''####''''         
             ,#######,   #######,   ,#######,      ##                                
            ,#'     '#,  ##    ##  ,#'     '#,    #''#        ######   ,####,        
            ##       ##  ##   ,#'  ##            #'  '#       #        #'  '#        
            ##       ##  #######   ##           ,######,      #####,   #    #        
            '#,     ,#'  ##    ##  '#,     ,#' ,#      #,         ##   #,  ,#        
             '#######'   ##     ##  '#######'  #'      '#     #####' # '####'        



                  #######################################################
                  #                        -***-                        #
                  #          Department of theory and spectroscopy      #
                  #    Directorship and core code : Frank Neese         #
                  #        Max Planck Institute fuer Kohlenforschung    #
                  #                Kaiser Wilhelm Platz 1               #
                  #                 D-45470 Muelheim/Ruhr               #
                  #                      Germany                        #
                  #                                                     #
                  #                  All rights reserved                #
                  #                        -***-                        #
                  #######################################################


                         Program Version 5.0.4 -  RELEASE  -


 With contributions from (in alphabetic order):
   Daniel Aravena         : Magnetic Suceptibility
   Michael Atanasov       : Ab Initio Ligand Field Theory (pilot matlab implementation)
   Alexander A. Auer      : GIAO ZORA, VPT2 properties, NMR spectrum
   Ute Becker             : Parallelization
   Giovanni Bistoni       : ED, misc. LED, open-shell LED, HFLD
   Martin Brehm           : Molecular dynamics
   Dmytro Bykov           : SCF Hessian
   Vijay G. Chilkuri      : MRCI spin determinant printing, contributions to CSF-ICE
   Dipayan Datta          : RHF DLPNO-CCSD density
   Achintya Kumar Dutta   : EOM-CC, STEOM-CC
   Dmitry Ganyushin       : Spin-Orbit,Spin-Spin,Magnetic field MRCI
   Miquel Garcia          : C-PCM and meta-GGA Hessian, CC/C-PCM, Gaussian charge scheme
   Yang Guo               : DLPNO-NEVPT2, F12-NEVPT2, CIM, IAO-localization
   Andreas Hansen         : Spin unrestricted coupled pair/coupled cluster methods
   Benjamin Helmich-Paris : MC-RPA, TRAH-SCF, COSX integrals
   Lee Huntington         : MR-EOM, pCC
   Robert Izsak           : Overlap fitted RIJCOSX, COSX-SCS-MP3, EOM
   Marcus Kettner         : VPT2
   Christian Kollmar      : KDIIS, OOCD, Brueckner-CCSD(T), CCSD density, CASPT2, CASPT2-K
   Simone Kossmann        : Meta GGA functionals, TD-DFT gradient, OOMP2, MP2 Hessian
   Martin Krupicka        : Initial AUTO-CI
   Lucas Lang             : DCDCAS
   Marvin Lechner         : AUTO-CI (C++ implementation), FIC-MRCC
   Dagmar Lenk            : GEPOL surface, SMD
   Dimitrios Liakos       : Extrapolation schemes; Compound Job, initial MDCI parallelization
   Dimitrios Manganas     : Further ROCIS development; embedding schemes
   Dimitrios Pantazis     : SARC Basis sets
   Anastasios Papadopoulos: AUTO-CI, single reference methods and gradients
   Taras Petrenko         : DFT Hessian,TD-DFT gradient, ASA, ECA, R-Raman, ABS, FL, XAS/XES, NRVS
   Peter Pinski           : DLPNO-MP2, DLPNO-MP2 Gradient
   Christoph Reimann      : Effective Core Potentials
   Marius Retegan         : Local ZFS, SOC
   Christoph Riplinger    : Optimizer, TS searches, QM/MM, DLPNO-CCSD(T), (RO)-DLPNO pert. Triples
   Tobias Risthaus        : Range-separated hybrids, TD-DFT gradient, RPA, STAB
   Michael Roemelt        : Original ROCIS implementation
   Masaaki Saitow         : Open-shell DLPNO-CCSD energy and density
   Barbara Sandhoefer     : DKH picture change effects
   Avijit Sen             : IP-ROCIS
   Kantharuban Sivalingam : CASSCF convergence, NEVPT2, FIC-MRCI
   Bernardo de Souza      : ESD, SOC TD-DFT
   Georgi Stoychev        : AutoAux, RI-MP2 NMR, DLPNO-MP2 response
   Willem Van den Heuvel  : Paramagnetic NMR
   Boris Wezisla          : Elementary symmetry handling
   Frank Wennmohs         : Technical directorship


 We gratefully acknowledge several colleagues who have allowed us to
 interface, adapt or use parts of their codes:
   Stefan Grimme, W. Hujo, H. Kruse, P. Pracht,  : VdW corrections, initial TS optimization,
                  C. Bannwarth, S. Ehlert          DFT functionals, gCP, sTDA/sTD-DF
   Ed Valeev, F. Pavosevic, A. Kumar             : LibInt (2-el integral package), F12 methods
   Garnet Chan, S. Sharma, J. Yang, R. Olivares  : DMRG
   Ulf Ekstrom                                   : XCFun DFT Library
   Mihaly Kallay                                 : mrcc  (arbitrary order and MRCC methods)
   Jiri Pittner, Ondrej Demel                    : Mk-CCSD
   Frank Weinhold                                : gennbo (NPA and NBO analysis)
   Christopher J. Cramer and Donald G. Truhlar   : smd solvation model
   Lars Goerigk                                  : TD-DFT with DH, B97 family of functionals
   V. Asgeirsson, H. Jonsson                     : NEB implementation
   FAccTs GmbH                                   : IRC, NEB, NEB-TS, DLPNO-Multilevel, CI-OPT
                                                   MM, QMMM, 2- and 3-layer-ONIOM, Crystal-QMMM,
                                                   LR-CPCM, SF, NACMEs, symmetry and pop. for TD-DFT,
                                                   nearIR, NL-DFT gradient (VV10), updates on ESD,
                                                   ML-optimized integration grids
   S Lehtola, MJT Oliveira, MAL Marques          : LibXC Library
   Liviu Ungur et al                             : ANISO software


 Your calculation uses the libint2 library for the computation of 2-el integrals
 For citations please refer to: http://libint.valeyev.net

 Your ORCA version has been built with support for libXC version: 5.1.0
 For citations please refer to: https://tddft.org/programs/libxc/

 This ORCA versions uses:
   CBLAS   interface :  Fast vector & matrix operations
   LAPACKE interface :  Fast linear algebra routines
   SCALAPACK package :  Parallel linear algebra routines
   Shared memory     :  Shared parallel matrices
   BLAS/LAPACK       :  OpenBLAS 0.3.15  USE64BITINT DYNAMIC_ARCH NO_AFFINITY SkylakeX SINGLE_THREADED
        Core in use  :  SkylakeX
   Copyright (c) 2011-2014, The OpenBLAS Project




***************************************
The coordinates will be read from file: 2_prot_aq_1.xyz
***************************************


Your calculation utilizes the atom-pairwise dispersion correction
based on tight binding partial charges (D4)
Cite in your paper:
E.Caldeweyher, C.Bannwarth, S.Grimme, J.Chem.Phys., (2017), 147, 034112.
E.Caldeweyher, S.Ehlert, A.Hansen, H.Neugebauer, S.Grimme, J.Chem.Phys., (2018), in progress.
   

XCFun DFT library Copyright 2009-2010 Ulf Ekstrom and contributors.
See http://admol.org/xcfun for more information.
This is free software; see the source code for copying conditions.
There is ABSOLUTELY NO WARRANTY; not even for MERCHANTABILITY or FITNESS FOR A PARTICULAR PURPOSE.
For details see the documentation.
Scientific users of this library should cite U. Ekstrom, L. Visscher, R. Bast, A. J. Thorvaldsen and K. Ruud;
J.Chem.Theor.Comp. 2010, DOI: 10.1021/ct100117s
XCFun Version 0.99 

================================================================================

----- Orbital basis set information -----
Your calculation utilizes the basis: def2-SVP
   F. Weigend and R. Ahlrichs, Phys. Chem. Chem. Phys. 7, 3297 (2005).

----- AuxJ basis set information -----
Your calculation utilizes the auxiliary basis: def2/J
   F. Weigend, Phys. Chem. Chem. Phys. 8, 1057 (2006).

================================================================================
                                        WARNINGS
                       Please study these warnings very carefully!
================================================================================


WARNING: Geometry Optimization
  ===> : Switching off AutoStart
         For restart on a previous wavefunction, please use MOREAD

INFO   : the flag for use of the SHARK integral package has been found!

================================================================================
                                       INPUT FILE
================================================================================
NAME = 2_prot_aq_1.inp
|  1> # ORCA 5.0.4 - /users/bwb16179/postgrad/2024_03/DFT_Crest_Conformers/Opt/prot/2_prot_aq_1.inp # write input file
|  2> # Basic Mode
|  3> #
|  4> ! Opt Freq wB97X Def2-SVP D4 SlowConv TightSCF Defgrid2 Def2/J RIJCOSX CPCM(Water)
|  5> 
|  6> 
|  7> 
|  8> %maxcore 4500
|  9> 
| 10> %geom
| 11> Maxiter 150
| 12> END
| 13> 
| 14> * xyzfile 1 1 2_prot_aq_1.xyz
| 15> 
| 16>                          ****END OF INPUT****
================================================================================

                       *****************************
                       * Geometry Optimization Run *
                       *****************************

Geometry optimization settings:
Update method            Update   .... BFGS
Choice of coordinates    CoordSys .... Z-matrix Internals
Initial Hessian          InHess   .... Almoef's Model

Convergence Tolerances:
Energy Change            TolE     ....  5.0000e-06 Eh
Max. Gradient            TolMAXG  ....  3.0000e-04 Eh/bohr
RMS Gradient             TolRMSG  ....  1.0000e-04 Eh/bohr
Max. Displacement        TolMAXD  ....  4.0000e-03 bohr
RMS Displacement         TolRMSD  ....  2.0000e-03 bohr
Strict Convergence                ....  False
------------------------------------------------------------------------------
                        ORCA OPTIMIZATION COORDINATE SETUP
------------------------------------------------------------------------------

The optimization will be done in new redundant internal coordinates
Making redundant internal coordinates   ...  (new redundants) done
Evaluating the initial hessian          ...  (Almloef) done
Evaluating the coordinates              ...  done
Calculating the B-matrix                .... done
Calculating the G-matrix                .... done
Diagonalizing the G-matrix              .... done
The first mode is                       ....   45
The number of degrees of freedom        ....   60

    -----------------------------------------------------------------
                    Redundant Internal Coordinates


    -----------------------------------------------------------------
         Definition                    Initial Value    Approx d2E/dq
    -----------------------------------------------------------------
      1. B(C   1,N   0)                  1.3302         0.697159   
      2. B(N   2,C   1)                  1.3302         0.697171   
      3. B(C   3,N   2)                  1.3727         0.596385   
      4. B(C   4,C   3)                  1.3734         0.664191   
      5. B(C   4,N   0)                  1.3727         0.596389   
      6. B(C   5,N   0)                  1.4372         0.470527   
      7. B(C   6,N   2)                  1.4372         0.470550   
      8. B(H   7,C   5)                  1.0906         0.359274   
      9. B(H   8,C   5)                  1.0873         0.363663   
     10. B(H   9,C   5)                  1.0906         0.359274   
     11. B(H  10,C   6)                  1.0906         0.359270   
     12. B(H  11,C   6)                  1.0873         0.363680   
     13. B(H  12,C   6)                  1.0906         0.359293   
     14. B(C  13,C   3)                  1.4799         0.449129   
     15. B(C  14,C   4)                  1.4799         0.449116   
     16. B(H  15,C  14)                  1.0849         0.366928   
     17. B(H  16,C  14)                  1.0893         0.360967   
     18. B(H  17,C  14)                  1.0894         0.360926   
     19. B(H  18,C  13)                  1.0849         0.366919   
     20. B(H  19,C  13)                  1.0893         0.361032   
     21. B(H  20,C  13)                  1.0893         0.361018   
     22. B(H  21,C   1)                  1.0721         0.384559   
     23. A(C   1,N   0,C   5)          126.2793         0.416445   
     24. A(C   4,N   0,C   5)          125.1737         0.405076   
     25. A(C   1,N   0,C   4)          108.5470         0.434492   
     26. A(N   2,C   1,H  21)          125.3901         0.361808   
     27. A(N   0,C   1,N   2)          109.2209         0.446920   
     28. A(N   0,C   1,H  21)          125.3890         0.361807   
     29. A(C   1,N   2,C   3)          108.5472         0.434493   
     30. A(C   1,N   2,C   6)          126.2790         0.416450   
     31. A(C   3,N   2,C   6)          125.1738         0.405079   
     32. A(C   4,C   3,C  13)          131.0952         0.414820   
     33. A(N   2,C   3,C  13)          122.0625         0.404359   
     34. A(N   2,C   3,C   4)          106.8423         0.433560   
     35. A(N   0,C   4,C  14)          122.0620         0.404357   
     36. A(N   0,C   4,C   3)          106.8426         0.433560   
     37. A(C   3,C   4,C  14)          131.0954         0.414818   
     38. A(H   8,C   5,H   9)          109.1295         0.291185   
     39. A(H   7,C   5,H   9)          108.4786         0.290630   
     40. A(N   0,C   5,H   9)          110.1730         0.334767   
     41. A(H   7,C   5,H   8)          109.1282         0.291185   
     42. A(N   0,C   5,H   8)          109.7278         0.335443   
     43. A(N   0,C   5,H   7)          110.1744         0.334767   
     44. A(H  10,C   6,H  11)          109.1260         0.291186   
     45. A(H  11,C   6,H  12)          109.1312         0.291189   
     46. A(H  10,C   6,H  12)          108.4787         0.290632   
     47. A(N   2,C   6,H  12)          110.1725         0.334772   
     48. A(N   2,C   6,H  11)          109.7279         0.335448   
     49. A(N   2,C   6,H  10)          110.1753         0.334769   
     50. A(H  19,C  13,H  20)          107.9338         0.291074   
     51. A(H  18,C  13,H  20)          108.4544         0.291815   
     52. A(C   3,C  13,H  20)          110.7425         0.334478   
     53. A(H  18,C  13,H  19)          108.4581         0.291817   
     54. A(C   3,C  13,H  19)          110.7375         0.334480   
     55. A(C   3,C  13,H  18)          110.4274         0.335380   
     56. A(H  16,C  14,H  17)          107.9319         0.291054   
     57. A(H  15,C  14,H  17)          108.4563         0.291804   
     58. A(C   4,C  14,H  17)          110.7399         0.334462   
     59. A(H  15,C  14,H  16)          108.4609         0.291810   
     60. A(C   4,C  14,H  16)          110.7390         0.334468   
     61. A(C   4,C  14,H  15)          110.4260         0.335380   
     62. D(N   2,C   1,N   0,C   4)      0.0010         0.040188   
     63. D(H  21,C   1,N   0,C   4)   -179.9986         0.040188   
     64. D(N   2,C   1,N   0,C   5)    179.9888         0.040188   
     65. D(H  21,C   1,N   0,C   5)     -0.0108         0.040188   
     66. D(C   6,N   2,C   1,H  21)     -0.0045         0.040189   
     67. D(C   6,N   2,C   1,N   0)    179.9959         0.040189   
     68. D(C   3,N   2,C   1,H  21)    179.9997         0.040189   
     69. D(C   3,N   2,C   1,N   0)      0.0001         0.040189   
     70. D(C  13,C   3,N   2,C   6)      0.0183         0.028635   
     71. D(C   4,C   3,N   2,C   6)   -179.9970         0.028635   
     72. D(C   4,C   3,N   2,C   1)     -0.0011         0.028635   
     73. D(C  13,C   3,N   2,C   1)   -179.9858         0.028635   
     74. D(C  14,C   4,N   0,C   1)   -179.9920         0.028635   
     75. D(C   3,C   4,N   0,C   5)   -179.9897         0.028635   
     76. D(C   3,C   4,N   0,C   1)     -0.0017         0.028635   
     77. D(C  14,C   4,C   3,C  13)     -0.0264         0.030812   
     78. D(N   0,C   4,C   3,C  13)    179.9845         0.030812   
     79. D(N   0,C   4,C   3,N   2)      0.0017         0.030812   
     80. D(C  14,C   4,N   0,C   5)      0.0201         0.028635   
     81. D(C  14,C   4,C   3,N   2)    179.9907         0.030812   
     82. D(H   9,C   5,N   0,C   4)     59.8176         0.018917   
     83. D(H   9,C   5,N   0,C   1)   -120.1682         0.018917   
     84. D(H   8,C   5,N   0,C   4)    179.9923         0.018917   
     85. D(H   8,C   5,N   0,C   1)      0.0064         0.018917   
     86. D(H   7,C   5,N   0,C   4)    -59.8338         0.018917   
     87. D(H   7,C   5,N   0,C   1)    120.1803         0.018917   
     88. D(H  11,C   6,N   2,C   3)    179.9132         0.018919   
     89. D(H  11,C   6,N   2,C   1)     -0.0819         0.018919   
     90. D(H  10,C   6,N   2,C   3)    -59.9150         0.018919   
     91. D(H  12,C   6,N   2,C   1)   -120.2584         0.018919   
     92. D(H  10,C   6,N   2,C   1)    120.0898         0.018919   
     93. D(H  12,C   6,N   2,C   3)     59.7368         0.018919   
     94. D(H  20,C  13,C   3,C   4)    120.1066         0.014876   
     95. D(H  20,C  13,C   3,N   2)    -59.9128         0.014876   
     96. D(H  19,C  13,C   3,C   4)   -120.1934         0.014876   
     97. D(H  19,C  13,C   3,N   2)     59.7872         0.014876   
     98. D(H  18,C  13,C   3,C   4)     -0.0427         0.014876   
     99. D(H  18,C  13,C   3,N   2)    179.9379         0.014876   
    100. D(H  17,C  14,C   4,C   3)    120.1439         0.014876   
    101. D(H  17,C  14,C   4,N   0)    -59.8685         0.014876   
    102. D(H  16,C  14,C   4,C   3)   -120.1593         0.014876   
    103. D(H  16,C  14,C   4,N   0)     59.8283         0.014876   
    104. D(H  15,C  14,C   4,C   3)     -0.0051         0.014876   
    105. D(H  15,C  14,C   4,N   0)    179.9825         0.014876   
    -----------------------------------------------------------------

Number of atoms                         .... 22
Number of degrees of freedom            .... 105

         *************************************************************
         *                GEOMETRY OPTIMIZATION CYCLE   1            *
         *************************************************************
---------------------------------
CARTESIAN COORDINATES (ANGSTROEM)
---------------------------------
  N     -1.084393   -0.646503    0.000034
  C      0.000006   -1.416846    0.000024
  N      1.084399   -0.646503    0.000033
  C      0.686682    0.667285    0.000050
  C     -0.686674    0.667283    0.000026
  C     -2.448654   -1.098513   -0.000196
  C      2.448645   -1.098514    0.000111
  H     -2.967660   -0.728434    0.884754
  H     -2.475155   -2.185510   -0.000270
  H     -2.967380   -0.728297   -0.885253
  H      2.967165   -0.729662   -0.885640
  H      2.475143   -2.185498    0.001625
  H      2.967859   -0.727089    0.884357
  C      1.659411    1.782536   -0.000246
  C     -1.659414    1.782536    0.000210
  H     -1.142108    2.736147    0.000482
  H     -2.298712    1.736650    0.881042
  H     -2.298529    1.737135   -0.880819
  H      1.142121    2.736163   -0.001282
  H      2.299062    1.736199   -0.880738
  H      2.298078    1.737650    0.881049
  H     -0.000003   -2.488957    0.000006

----------------------------
CARTESIAN COORDINATES (A.U.)
----------------------------
  NO LB      ZA    FRAG     MASS         X           Y           Z
   0 N     7.0000    0    14.007   -2.049207   -1.221713    0.000065
   1 C     6.0000    0    12.011    0.000011   -2.677450    0.000046
   2 N     7.0000    0    14.007    2.049218   -1.221714    0.000063
   3 C     6.0000    0    12.011    1.297641    1.260986    0.000095
   4 C     6.0000    0    12.011   -1.297625    1.260982    0.000049
   5 C     6.0000    0    12.011   -4.627285   -2.075889   -0.000370
   6 C     6.0000    0    12.011    4.627269   -2.075891    0.000209
   7 H     1.0000    0     1.008   -5.608065   -1.376541    1.671943
   8 H     1.0000    0     1.008   -4.677366   -4.130015   -0.000510
   9 H     1.0000    0     1.008   -5.607535   -1.376282   -1.672886
  10 H     1.0000    0     1.008    5.607129   -1.378860   -1.673617
  11 H     1.0000    0     1.008    4.677343   -4.129992    0.003072
  12 H     1.0000    0     1.008    5.608442   -1.373999    1.671193
  13 C     6.0000    0    12.011    3.135833    3.368505   -0.000465
  14 C     6.0000    0    12.011   -3.135839    3.368504    0.000397
  15 H     1.0000    0     1.008   -2.158271    5.170568    0.000910
  16 H     1.0000    0     1.008   -4.343937    3.281792    1.664929
  17 H     1.0000    0     1.008   -4.343591    3.282710   -1.664507
  18 H     1.0000    0     1.008    2.158295    5.170598   -0.002422
  19 H     1.0000    0     1.008    4.344598    3.280940   -1.664354
  20 H     1.0000    0     1.008    4.342738    3.283682    1.664940
  21 H     1.0000    0     1.008   -0.000006   -4.703447    0.000012

--------------------------------
INTERNAL COORDINATES (ANGSTROEM)
--------------------------------
 N      0   0   0     0.000000000000     0.00000000     0.00000000
 C      1   0   0     1.330168998206     0.00000000     0.00000000
 N      2   1   0     1.330164355063   109.22090527     0.00000000
 C      3   2   1     1.372668371634   108.54720460     0.00000000
 C      1   2   3     1.372666752136   108.54695269     0.00000000
 C      1   2   3     1.437191593157   126.27930654   179.98884990
 C      3   2   1     1.437178092706   126.27897606   179.99587163
 H      6   1   2     1.090624862880   110.17441784   120.18034325
 H      6   1   2     1.087319827787   109.72783513     0.00000000
 H      6   1   2     1.090624922122   110.17297756   239.83177574
 H      7   3   2     1.090628031526   110.17525828   120.08981343
 H      7   3   2     1.087307477372   109.72785959   359.91809497
 H      7   3   2     1.090610937127   110.17253403   239.74161642
 C      4   3   2     1.479860728003   122.06245125   180.01415624
 C      5   1   2     1.479869119753   122.06202018   180.00804830
 H     15   5   1     1.084887040402   110.42600890   179.98247087
 H     15   5   1     1.089345519436   110.73898460    59.82830128
 H     15   5   1     1.089376623623   110.73986206   300.13147880
 H     14   4   3     1.084893743763   110.42741742   179.93788170
 H     14   4   3     1.089296367874   110.73749065    59.78720462
 H     14   4   3     1.089307221491   110.74252254   300.08719897
 H      2   1   3     1.072111490189   125.38902541   180.00034649

---------------------------
INTERNAL COORDINATES (A.U.)
---------------------------
 N      0   0   0     0.000000000000     0.00000000     0.00000000
 C      1   0   0     2.513655118442     0.00000000     0.00000000
 N      2   1   0     2.513646344173   109.22090527     0.00000000
 C      3   2   1     2.593967295084   108.54720460     0.00000000
 C      1   2   3     2.593964234675   108.54695269     0.00000000
 C      1   2   3     2.715898513040   126.27930654   179.98884990
 C      3   2   1     2.715873000885   126.27897606   179.99587163
 H      6   1   2     2.060982305689   110.17441784   120.18034325
 H      6   1   2     2.054736694501   109.72783513     0.00000000
 H      6   1   2     2.060982417640   110.17297756   239.83177574
 H      7   3   2     2.060988293562   110.17525828   120.08981343
 H      7   3   2     2.054713355599   109.72785959   359.91809497
 H      7   3   2     2.060955989829   110.17253403   239.74161642
 C      4   3   2     2.796531492272   122.06245125   180.01415624
 C      5   1   2     2.796547350380   122.06202018   180.00804830
 H     15   5   1     2.050139392599   110.42600890   179.98247087
 H     15   5   1     2.058564696948   110.73898460    59.82830128
 H     15   5   1     2.058623475344   110.73986206   300.13147880
 H     14   4   3     2.050152060117   110.42741742   179.93788170
 H     14   4   3     2.058471813956   110.73749065    59.78720462
 H     14   4   3     2.058492324321   110.74252254   300.08719897
 H      2   1   3     2.025997101487   125.38902541   180.00034649

---------------------
BASIS SET INFORMATION
---------------------
There are 3 groups of distinct atoms

 Group   1 Type N   : 7s4p1d contracted to 3s2p1d pattern {511/31/1}
 Group   2 Type C   : 7s4p1d contracted to 3s2p1d pattern {511/31/1}
 Group   3 Type H   : 4s1p contracted to 2s1p pattern {31/1}

Atom   0N    basis set group =>   1
Atom   1C    basis set group =>   2
Atom   2N    basis set group =>   1
Atom   3C    basis set group =>   2
Atom   4C    basis set group =>   2
Atom   5C    basis set group =>   2
Atom   6C    basis set group =>   2
Atom   7H    basis set group =>   3
Atom   8H    basis set group =>   3
Atom   9H    basis set group =>   3
Atom  10H    basis set group =>   3
Atom  11H    basis set group =>   3
Atom  12H    basis set group =>   3
Atom  13C    basis set group =>   2
Atom  14C    basis set group =>   2
Atom  15H    basis set group =>   3
Atom  16H    basis set group =>   3
Atom  17H    basis set group =>   3
Atom  18H    basis set group =>   3
Atom  19H    basis set group =>   3
Atom  20H    basis set group =>   3
Atom  21H    basis set group =>   3
---------------------------------
AUXILIARY/J BASIS SET INFORMATION
---------------------------------
There are 3 groups of distinct atoms

 Group   1 Type N   : 12s5p4d2f1g contracted to 6s4p3d1f1g pattern {711111/2111/211/2/1}
 Group   2 Type C   : 12s5p4d2f1g contracted to 6s4p3d1f1g pattern {711111/2111/211/2/1}
 Group   3 Type H   : 5s2p1d contracted to 3s1p1d pattern {311/2/1}

Atom   0N    basis set group =>   1
Atom   1C    basis set group =>   2
Atom   2N    basis set group =>   1
Atom   3C    basis set group =>   2
Atom   4C    basis set group =>   2
Atom   5C    basis set group =>   2
Atom   6C    basis set group =>   2
Atom   7H    basis set group =>   3
Atom   8H    basis set group =>   3
Atom   9H    basis set group =>   3
Atom  10H    basis set group =>   3
Atom  11H    basis set group =>   3
Atom  12H    basis set group =>   3
Atom  13C    basis set group =>   2
Atom  14C    basis set group =>   2
Atom  15H    basis set group =>   3
Atom  16H    basis set group =>   3
Atom  17H    basis set group =>   3
Atom  18H    basis set group =>   3
Atom  19H    basis set group =>   3
Atom  20H    basis set group =>   3
Atom  21H    basis set group =>   3
------------------------------------------------------------------------------
                           ORCA GTO INTEGRAL CALCULATION
                           -- RI-GTO INTEGRALS CHOSEN --
------------------------------------------------------------------------------
------------------------------------------------------------------------------
                   ___                                                        
                  /   \      - P O W E R E D   B Y -                         
                 /     \                                                     
                 |  |  |   _    _      __       _____    __    __             
                 |  |  |  | |  | |    /  \     |  _  \  |  |  /  |          
                  \  \/   | |  | |   /    \    | | | |  |  | /  /          
                 / \  \   | |__| |  /  /\  \   | |_| |  |  |/  /          
                |  |  |   |  __  | /  /__\  \  |    /   |      \           
                |  |  |   | |  | | |   __   |  |    \   |  |\   \          
                \     /   | |  | | |  |  |  |  | |\  \  |  | \   \       
                 \___/    |_|  |_| |__|  |__|  |_| \__\ |__|  \__/        
                                                                              
                      - O R C A' S   B I G   F R I E N D -                    
                                      &                                       
                       - I N T E G R A L  F E E D E R -                       
                                                                              
 v1 FN, 2020, v2 2021                                                         
------------------------------------------------------------------------------


Reading SHARK input file 2_prot_aq_1.SHARKINP.tmp ... ok
----------------------
SHARK INTEGRAL PACKAGE
----------------------

Number of atoms                             ...     22
Number of basis functions                   ...    191
Number of shells                            ...     93
Maximum angular momentum                    ...      2
Integral batch strategy                     ... SHARK/LIBINT Hybrid
RI-J (if used) integral strategy            ... SPLIT-RIJ (Revised 2003 algorithm where possible)
Printlevel                                  ...      1
Contraction scheme used                     ... SEGMENTED contraction
Coulomb Range Separation                    ... NOT USED
Exchange Range Separation                   ... Long Range
   Mu parameter                             ...  0.300000
   Scaling (regular/separated)              ...  0.157706  0.842294
Finite Nucleus Model                        ... NOT USED
Auxiliary Coulomb fitting basis             ... AVAILABLE
   # of basis functions in Aux-J            ...    584
   # of shells in Aux-J                     ...    200
   Maximum angular momentum in Aux-J        ...      4
Auxiliary J/K fitting basis                 ... NOT available
Auxiliary Correlation fitting basis         ... NOT available
Auxiliary 'external' fitting basis          ... NOT available
Integral threshold                          ...     2.500000e-11
Primitive cut-off                           ...     2.500000e-12
Primitive pair pre-selection threshold      ...     2.500000e-12

Calculating pre-screening integrals         ... done (  0.0 sec) Dimension = 93
Organizing shell pair data                  ... done (  0.0 sec)
Shell pair information
Total number of shell pairs                 ...      4371
Shell pairs after pre-screening             ...      4054
Total number of primitive shell pairs       ...     15207
Primitive shell pairs kept                  ...     10332
          la=0 lb=0:   1352 shell pairs
          la=1 lb=0:   1511 shell pairs
          la=1 lb=1:    443 shell pairs
          la=2 lb=0:    445 shell pairs
          la=2 lb=1:    261 shell pairs
          la=2 lb=2:     42 shell pairs

Calculating one electron integrals          ... done (  0.0 sec)
Calculating RI/J V-Matrix + Cholesky decomp.... done (  0.0 sec)
Calculating Nuclear repulsion               ... done (  0.0 sec) ENN=    477.220819036206 Eh

SHARK setup successfully completed in   0.3 seconds

Maximum memory used throughout the entire GTOINT-calculation: 27.3 MB
-------------------------------------------------------------------------------
                                 ORCA SCF
-------------------------------------------------------------------------------

------------
SCF SETTINGS
------------
Hamiltonian:
 Density Functional     Method          .... DFT(GTOs)
 Exchange Functional    Exchange        .... WB97X
 Correlation Functional Correlation     .... WB97X
 Gradients option       PostSCFGGA      .... off
 Hybrid DFT is turned on
   Fraction HF Exchange ScalHFX         ....  0.157706
   Scaling of DF-GGA-X  ScalDFX         ....  0.000000
   Scaling of DF-GGA-C  ScalDFC         ....  1.000000
   Scaling of DF-LDA-C  ScalLDAC        ....  1.000000
   Perturbative correction              ....  0.000000
   Density functional embedding theory  .... OFF
 Long-range corrected/Screened/Range-Separated Hybrid DFT is turned on
   Amount of maximum screened exact exchange              ....  0.842294
   Range separation parameter mu (erf(mu*r12)/r12)        ....  0.300000
 RI-approximation to the Coulomb term is turned on
   Number of AuxJ basis functions       .... 584
   RIJ-COSX (HFX calculated with COS-X)).... on


General Settings:
 Integral files         IntName         .... 2_prot_aq_1
 Hartree-Fock type      HFTyp           .... RHF
 Total Charge           Charge          ....    1
 Multiplicity           Mult            ....    1
 Number of Electrons    NEL             ....   68
 Basis Dimension        Dim             ....  191
 Nuclear Repulsion      ENuc            ....    477.2208190362 Eh

Convergence Acceleration:
 DIIS                   CNVDIIS         .... on
   Start iteration      DIISMaxIt       ....     0
   Startup error        DIISStart       ....  0.200000
   # of expansion vecs  DIISMaxEq       ....     5
   Bias factor          DIISBfac        ....   1.050
   Max. coefficient     DIISMaxC        ....  10.000
 Trust-Rad. Augm. Hess. CNVTRAH         .... auto
   Auto Start mean grad. ratio tolernc. ....  1.125000
   Auto Start start iteration           ....    20
   Auto Start num. interpolation iter.  ....    10
   Max. Number of Micro iterations      ....    16
   Max. Number of Macro iterations      .... Maxiter - #DIIS iter
   Number of Davidson start vectors     ....     2
   Converg. threshold I  (grad. norm)   ....   1.000e-05
   Converg. threshold II (energy diff.) ....   1.000e-08
   Grad. Scal. Fac. for Micro threshold ....   0.100
   Minimum threshold for Micro iter.    ....   0.010
   NR start threshold (gradient norm)   ....   0.001
   Initial trust radius                 ....   0.400
   Minimum AH scaling param. (alpha)    ....   1.000
   Maximum AH scaling param. (alpha)    .... 1000.000
   Orbital update algorithm             .... Taylor
   White noise on init. David. guess    .... on
   Maximum white noise                  ....   0.010
   Quad. conv. algorithm                .... NR
 SOSCF                  CNVSOSCF        .... on
   Start iteration      SOSCFMaxIt      ....   150
   Startup grad/error   SOSCFStart      ....  0.001000
 Level Shifting         CNVShift        .... on
   Level shift para.    LevelShift      ....    0.2500
   Turn off err/grad.   ShiftErr        ....    0.0000
 Zerner damping         CNVZerner       .... off
 Static damping         CNVDamp         .... on
   Fraction old density DampFac         ....    0.8500
   Max. Damping (<1)    DampMax         ....    0.9800
   Min. Damping (>=0)   DampMin         ....    0.0000
   Turn off err/grad.   DampErr         ....    0.0300
 Fernandez-Rico         CNVRico         .... off

SCF Procedure:
 Maximum # iterations   MaxIter         ....   125
 SCF integral mode      SCFMode         .... Direct
   Integral package                     .... SHARK and LIBINT hybrid scheme
 Reset frequency        DirectResetFreq ....    20
 Integral Threshold     Thresh          ....  2.500e-11 Eh
 Primitive CutOff       TCut            ....  2.500e-12 Eh

Convergence Tolerance:
 Convergence Check Mode ConvCheckMode   .... Total+1el-Energy
 Convergence forced     ConvForced      .... 0
 Energy Change          TolE            ....  1.000e-08 Eh
 1-El. energy change                    ....  1.000e-05 Eh
 Orbital Gradient       TolG            ....  1.000e-05
 Orbital Rotation angle TolX            ....  1.000e-05
 DIIS Error             TolErr          ....  5.000e-07


Diagonalization of the overlap matrix:
Smallest eigenvalue                        ... 8.936e-04
Time for diagonalization                   ...    0.006 sec
Threshold for overlap eigenvalues          ... 1.000e-08
Number of eigenvalues below threshold      ... 0
Time for construction of square roots      ...    0.003 sec
Total time needed                          ...    0.010 sec

Time for model grid setup =    0.309 sec

------------------------------
INITIAL GUESS: MODEL POTENTIAL
------------------------------
Loading Hartree-Fock densities                     ... done
Calculating cut-offs                               ... done
Initializing the effective Hamiltonian             ... done
Setting up the integral package (SHARK)            ... done
Starting the Coulomb interaction                   ... done (   0.3 sec)
Reading the grid                                   ... done
Mapping shells                                     ... done
Starting the XC term evaluation                    ... done (   0.4 sec)
  promolecular density results
     # of electrons  =     69.000758330
     EX              =    -52.846654217
     EC              =     -2.293743272
     EX+EC           =    -55.140397489
Transforming the Hamiltonian                       ... done (   0.0 sec)
Diagonalizing the Hamiltonian                      ... done (   0.0 sec)
Back transforming the eigenvectors                 ... done (   0.0 sec)
Now organizing SCF variables                       ... done
                      ------------------
                      INITIAL GUESS DONE (   1.0 sec)
                      ------------------
-------------------
DFT GRID GENERATION
-------------------

General Integration Accuracy     IntAcc      ... 4.388
Radial Grid Type                 RadialGrid  ... OptM3 with GC (2021)
Angular Grid (max. ang.)         AngularGrid ... 4 (Lebedev-302)
Angular grid pruning method      GridPruning ... 4 (adaptive)
Weight generation scheme         WeightScheme... Becke
Basis function cutoff            BFCut       ... 1.0000e-11
Integration weight cutoff        WCut        ... 1.0000e-14
Angular grids for H and He will be reduced by one unit
Partially contracted basis set               ... off
Rotationally invariant grid construction     ... off

Total number of grid points                  ...    95619
Total number of batches                      ...     1505
Average number of points per batch           ...       63
Average number of grid points per atom       ...     4346
Time for grid setup =    1.192 sec

--------------------
COSX GRID GENERATION
--------------------

GRIDX 1
-------
General Integration Accuracy     IntAcc      ... 3.816
Radial Grid Type                 RadialGrid  ... OptM3 with GC (2021)
Angular Grid (max. ang.)         AngularGrid ... 1 (Lebedev-50)
Angular grid pruning method      GridPruning ... 4 (adaptive)
Weight generation scheme         WeightScheme... Becke
Basis function cutoff            BFCut       ... 1.0000e-11
Integration weight cutoff        WCut        ... 1.0000e-14
Angular grids for H and He will be reduced by one unit
Partially contracted basis set               ... on
Rotationally invariant grid construction     ... off

Total number of grid points                  ...    12230
Total number of batches                      ...      205
Average number of points per batch           ...       59
Average number of grid points per atom       ...      556
UseSFitting                                  ... on

GRIDX 2
-------
General Integration Accuracy     IntAcc      ... 4.020
Radial Grid Type                 RadialGrid  ... OptM3 with GC (2021)
Angular Grid (max. ang.)         AngularGrid ... 2 (Lebedev-110)
Angular grid pruning method      GridPruning ... 4 (adaptive)
Weight generation scheme         WeightScheme... Becke
Basis function cutoff            BFCut       ... 1.0000e-11
Integration weight cutoff        WCut        ... 1.0000e-14
Angular grids for H and He will be reduced by one unit
Partially contracted basis set               ... on
Rotationally invariant grid construction     ... off

Total number of grid points                  ...    25734
Total number of batches                      ...      413
Average number of points per batch           ...       62
Average number of grid points per atom       ...     1170
UseSFitting                                  ... on

GRIDX 3
-------
General Integration Accuracy     IntAcc      ... 4.338
Radial Grid Type                 RadialGrid  ... OptM3 with GC (2021)
Angular Grid (max. ang.)         AngularGrid ... 3 (Lebedev-194)
Angular grid pruning method      GridPruning ... 4 (adaptive)
Weight generation scheme         WeightScheme... Becke
Basis function cutoff            BFCut       ... 1.0000e-11
Integration weight cutoff        WCut        ... 1.0000e-14
Angular grids for H and He will be reduced by one unit
Partially contracted basis set               ... on
Rotationally invariant grid construction     ... off

Total number of grid points                  ...    56279
Total number of batches                      ...      892
Average number of points per batch           ...       63
Average number of grid points per atom       ...     2558
UseSFitting                                  ... on

Time for X-Grid setup             =    1.524 sec


--------------------
CPCM SOLVATION MODEL
--------------------
CPCM parameters:
  Epsilon                                         ...      80.4000
  Refrac                                          ...       1.3300
  Rsolv                                           ...       1.3000
  Surface type                                    ... GAUSSIAN VDW
  Epsilon function type                           ...         CPCM
Radii:
 Radius for N  used is    3.5149 Bohr (=   1.8600 Ang.)
 Radius for C  used is    3.8550 Bohr (=   2.0400 Ang.)
 Radius for H  used is    2.4944 Bohr (=   1.3200 Ang.)
Calculating surface                               ...        done! (  0.0s)
GEPOL surface points                              ...         1193
GEPOL Volume                                      ...    1164.5870
GEPOL Surface-area                                ...     661.8017
Calculating surface distance matrix               ...        done! (  0.0s)
Performing Cholesky decomposition & store         ...        done! (  0.0s)
Overall time for CPCM initialization              ...                 0.1s
--------------
SCF ITERATIONS
--------------
ITER       Energy         Delta-E        Max-DP      RMS-DP      [F,P]     Damp
               ***  Starting incremental Fock matrix formation  ***
  0   -383.4434077821   0.000000000000 0.03146812  0.00071481  0.1479665 0.8500
  1   -383.4717019967  -0.028294214543 0.02836491  0.00065857  0.1194581 0.8500
                               ***Turning on DIIS***
  2   -383.4933689097  -0.021666913010 0.02229833  0.00053784  0.0920170 0.8500
  3   -383.5096132984  -0.016244388742 0.01415009  0.00039346  0.0700329 0.8500
  4   -383.5222146763  -0.012601377855 0.00958400  0.00030766  0.0558934 0.8500
  5   -383.5321726764  -0.009958000155 0.00734538  0.00025517  0.0463174 0.8500
  6   -383.5402769409  -0.008104264488 0.00599859  0.00021629  0.0390262 0.8500
  7   -383.5469855077  -0.006708566731 0.00515800  0.00018622  0.0330915 0.8500
  8   -383.5525957492  -0.005610241551 0.02943429  0.00106672  0.0279940 0.0000
  9   -383.5827299200  -0.030134170766 0.00124829  0.00003103  0.0011611 0.0000
                      *** Initiating the SOSCF procedure ***
                           *** Shutting down DIIS ***
                      *** Re-Reading the Fockian *** 
                      *** Removing any level shift *** 
ITER      Energy       Delta-E        Grad      Rot      Max-DP    RMS-DP
 10   -383.58274115  -0.0000112296  0.000144  0.000144  0.000366  0.000012
               *** Restarting incremental Fock matrix formation ***
 11   -383.58281848  -0.0000773299  0.000090  0.000141  0.000359  0.000013
 12   -383.58281877  -0.0000002949  0.000044  0.000116  0.000172  0.000006
 13   -383.58281881  -0.0000000346  0.000023  0.000023  0.000054  0.000002
                  ***Gradient check signals convergence***
              ***Rediagonalizing the Fockian in SOSCF/NRSCF***

               *****************************************************
               *                     SUCCESS                       *
               *           SCF CONVERGED AFTER  14 CYCLES          *
               *****************************************************

Old exchange energy                            =    -17.462320964 Eh
New exchange energy                            =    -17.462292682 Eh
Exchange energy change after final integration =      0.000028283 Eh
Total energy after final integration           =   -383.582790544 Eh
Final COS-X integration done in                =    35.515 sec

----------------
TOTAL SCF ENERGY
----------------

Total Energy       :         -383.58279054 Eh          -10437.81838 eV

Components:
Nuclear Repulsion  :          477.22081904 Eh           12985.83867 eV
Electronic Energy  :         -860.80360958 Eh          -23423.65705 eV
One Electron Energy:        -1449.47769279 Eh          -39442.29323 eV
Two Electron Energy:          588.67408321 Eh           16018.63618 eV
Max COSX asymmetry :            0.00000161 Eh               0.00004 eV
CPCM Dielectric    :           -0.07953441 Eh              -2.16424 eV

Virial components:
Potential Energy   :         -762.81013703 Eh          -20757.11910 eV
Kinetic Energy     :          379.22734648 Eh           10319.30072 eV
Virial Ratio       :            2.01148505


DFT components:
N(Alpha)           :       34.000112195175 electrons
N(Beta)            :       34.000112195175 electrons
N(Total)           :       68.000224390351 electrons
E(XC)              :      -38.883122856856 Eh       
DFET-embed. en.    :        0.000000000000 Eh       
CPCM Solvation Model Properties:
Surface-charge          :           -1.01574737
Charge-correction       :            0.00227719 Eh               0.06197 eV
Free-energy (cav+disp)  :  This term is not implemented in the current solvation scheme

---------------
SCF CONVERGENCE
---------------

  Last Energy change         ...   -1.7558e-08  Tolerance :   1.0000e-08
  Last MAX-Density change    ...    3.9968e-15  Tolerance :   1.0000e-07
  Last RMS-Density change    ...    4.4761e-17  Tolerance :   5.0000e-09
  Last Orbital Gradient      ...    2.4599e-06  Tolerance :   1.0000e-05
  Last Orbital Rotation      ...    4.7141e-06  Tolerance :   1.0000e-05

             **** THE GBW FILE WAS UPDATED (2_prot_aq_1.gbw) ****
             **** DENSITY 2_prot_aq_1.scfp WAS UPDATED ****
             **** ENERGY FILE WAS UPDATED (2_prot_aq_1.en.tmp) ****
             **** THE GBW FILE WAS UPDATED (2_prot_aq_1.gbw) ****
             **** DENSITY 2_prot_aq_1.scfp WAS UPDATED ****
----------------
ORBITAL ENERGIES
----------------

  NO   OCC          E(Eh)            E(eV) 
   0   2.0000     -14.507569      -394.7710 
   1   2.0000     -14.507549      -394.7705 
   2   2.0000     -10.376273      -282.3528 
   3   2.0000     -10.329910      -281.0911 
   4   2.0000     -10.329430      -281.0781 
   5   2.0000     -10.322617      -280.8927 
   6   2.0000     -10.322595      -280.8921 
   7   2.0000     -10.282559      -279.8026 
   8   2.0000     -10.282505      -279.8012 
   9   2.0000      -1.215627       -33.0789 
  10   2.0000      -1.098710       -29.8974 
  11   2.0000      -0.955799       -26.0086 
  12   2.0000      -0.917590       -24.9689 
  13   2.0000      -0.880694       -23.9649 
  14   2.0000      -0.828039       -22.5321 
  15   2.0000      -0.828018       -22.5315 
  16   2.0000      -0.736491       -20.0409 
  17   2.0000      -0.725558       -19.7434 
  18   2.0000      -0.665694       -18.1145 
  19   2.0000      -0.646136       -17.5823 
  20   2.0000      -0.608266       -16.5518 
  21   2.0000      -0.599576       -16.3153 
  22   2.0000      -0.585662       -15.9367 
  23   2.0000      -0.555947       -15.1281 
  24   2.0000      -0.540407       -14.7052 
  25   2.0000      -0.539564       -14.6823 
  26   2.0000      -0.531303       -14.4575 
  27   2.0000      -0.525137       -14.2897 
  28   2.0000      -0.510058       -13.8794 
  29   2.0000      -0.507424       -13.8077 
  30   2.0000      -0.506736       -13.7890 
  31   2.0000      -0.498474       -13.5642 
  32   2.0000      -0.410347       -11.1661 
  33   2.0000      -0.346377        -9.4254 
  34   0.0000       0.066320         1.8047 
  35   0.0000       0.109492         2.9794 
  36   0.0000       0.140074         3.8116 
  37   0.0000       0.155582         4.2336 
  38   0.0000       0.171734         4.6731 
  39   0.0000       0.187898         5.1130 
  40   0.0000       0.191112         5.2004 
  41   0.0000       0.195671         5.3245 
  42   0.0000       0.202168         5.5013 
  43   0.0000       0.220252         5.9934 
  44   0.0000       0.227837         6.1998 
  45   0.0000       0.236615         6.4386 
  46   0.0000       0.258384         7.0310 
  47   0.0000       0.258589         7.0366 
  48   0.0000       0.273138         7.4325 
  49   0.0000       0.281619         7.6632 
  50   0.0000       0.291876         7.9424 
  51   0.0000       0.308423         8.3926 
  52   0.0000       0.324613         8.8332 
  53   0.0000       0.328268         8.9326 
  54   0.0000       0.355425         9.6716 
  55   0.0000       0.357948         9.7403 
  56   0.0000       0.450775        12.2662 
  57   0.0000       0.460225        12.5234 
  58   0.0000       0.463612        12.6155 
  59   0.0000       0.468901        12.7594 
  60   0.0000       0.474953        12.9241 
  61   0.0000       0.492490        13.4013 
  62   0.0000       0.513782        13.9807 
  63   0.0000       0.542514        14.7626 
  64   0.0000       0.543167        14.7803 
  65   0.0000       0.555667        15.1205 
  66   0.0000       0.593787        16.1578 
  67   0.0000       0.614015        16.7082 
  68   0.0000       0.617931        16.8148 
  69   0.0000       0.635972        17.3057 
  70   0.0000       0.640072        17.4173 
  71   0.0000       0.689905        18.7733 
  72   0.0000       0.708641        19.2831 
  73   0.0000       0.722615        19.6633 
  74   0.0000       0.728555        19.8250 
  75   0.0000       0.737848        20.0779 
  76   0.0000       0.739153        20.1134 
  77   0.0000       0.742788        20.2123 
  78   0.0000       0.753328        20.4991 
  79   0.0000       0.759628        20.6705 
  80   0.0000       0.763077        20.7644 
  81   0.0000       0.769096        20.9282 
  82   0.0000       0.773434        21.0462 
  83   0.0000       0.791924        21.5493 
  84   0.0000       0.802254        21.8304 
  85   0.0000       0.806561        21.9476 
  86   0.0000       0.810311        22.0497 
  87   0.0000       0.810486        22.0544 
  88   0.0000       0.823580        22.4108 
  89   0.0000       0.825321        22.4581 
  90   0.0000       0.829789        22.5797 
  91   0.0000       0.854578        23.2542 
  92   0.0000       0.900792        24.5118 
  93   0.0000       0.940712        25.5981 
  94   0.0000       0.957545        26.0561 
  95   0.0000       0.988052        26.8863 
  96   0.0000       1.004651        27.3379 
  97   0.0000       1.023528        27.8516 
  98   0.0000       1.060496        28.8576 
  99   0.0000       1.158205        31.5164 
 100   0.0000       1.180666        32.1276 
 101   0.0000       1.214134        33.0383 
 102   0.0000       1.248424        33.9713 
 103   0.0000       1.269797        34.5529 
 104   0.0000       1.272323        34.6217 
 105   0.0000       1.277481        34.7620 
 106   0.0000       1.296389        35.2765 
 107   0.0000       1.309177        35.6245 
 108   0.0000       1.361982        37.0614 
 109   0.0000       1.397628        38.0314 
 110   0.0000       1.412610        38.4391 
 111   0.0000       1.512931        41.1689 
 112   0.0000       1.524443        41.4822 
 113   0.0000       1.599269        43.5183 
 114   0.0000       1.613641        43.9094 
 115   0.0000       1.626641        44.2632 
 116   0.0000       1.627798        44.2946 
 117   0.0000       1.637046        44.5463 
 118   0.0000       1.646563        44.8052 
 119   0.0000       1.647295        44.8252 
 120   0.0000       1.652993        44.9802 
 121   0.0000       1.660877        45.1948 
 122   0.0000       1.710082        46.5337 
 123   0.0000       1.730315        47.0843 
 124   0.0000       1.808483        49.2113 
 125   0.0000       1.837336        49.9964 
 126   0.0000       1.837466        50.0000 
 127   0.0000       1.863158        50.6991 
 128   0.0000       1.876828        51.0711 
 129   0.0000       1.882805        51.2337 
 130   0.0000       1.888756        51.3957 
 131   0.0000       1.899401        51.6853 
 132   0.0000       1.906122        51.8682 
 133   0.0000       1.915522        52.1240 
 134   0.0000       1.922351        52.3098 
 135   0.0000       1.947384        52.9910 
 136   0.0000       1.966763        53.5183 
 137   0.0000       1.973597        53.7043 
 138   0.0000       1.991405        54.1889 
 139   0.0000       2.002898        54.5016 
 140   0.0000       2.019812        54.9619 
 141   0.0000       2.029802        55.2337 
 142   0.0000       2.050827        55.8058 
 143   0.0000       2.084475        56.7215 
 144   0.0000       2.133221        58.0479 
 145   0.0000       2.141280        58.2672 
 146   0.0000       2.176614        59.2287 
 147   0.0000       2.186221        59.4901 
 148   0.0000       2.197927        59.8086 
 149   0.0000       2.200769        59.8860 
 150   0.0000       2.231017        60.7091 
 151   0.0000       2.283832        62.1462 
 152   0.0000       2.289772        62.3079 
 153   0.0000       2.304344        62.7044 
 154   0.0000       2.349090        63.9220 
 155   0.0000       2.351752        63.9944 
 156   0.0000       2.408410        65.5362 
 157   0.0000       2.428013        66.0696 
 158   0.0000       2.498575        67.9897 
 159   0.0000       2.524963        68.7077 
 160   0.0000       2.534529        68.9680 
 161   0.0000       2.545348        69.2624 
 162   0.0000       2.550219        69.3950 
 163   0.0000       2.589805        70.4722 
 164   0.0000       2.600378        70.7599 
 165   0.0000       2.606981        70.9396 
 166   0.0000       2.655401        72.2571 
 167   0.0000       2.693893        73.3046 
 168   0.0000       2.723474        74.1095 
 169   0.0000       2.782012        75.7024 
 170   0.0000       2.785631        75.8009 
 171   0.0000       2.843744        77.3822 
 172   0.0000       2.872631        78.1683 
 173   0.0000       2.888329        78.5954 
 174   0.0000       2.890231        78.6472 
 175   0.0000       2.890615        78.6576 
 176   0.0000       2.908498        79.1443 
 177   0.0000       2.934065        79.8400 
 178   0.0000       2.980896        81.1143 
 179   0.0000       3.012148        81.9647 
 180   0.0000       3.021795        82.2272 
 181   0.0000       3.050701        83.0138 
 182   0.0000       3.070356        83.5486 
 183   0.0000       3.088771        84.0497 
 184   0.0000       3.104472        84.4770 
 185   0.0000       3.151871        85.7668 
 186   0.0000       3.156104        85.8820 
 187   0.0000       3.305423        89.9451 
 188   0.0000       3.432153        93.3936 
 189   0.0000       3.518436        95.7415 
 190   0.0000       3.590017        97.6893 

                    ********************************
                    * MULLIKEN POPULATION ANALYSIS *
                    ********************************

-----------------------
MULLIKEN ATOMIC CHARGES
-----------------------
   0 N :   -0.204947
   1 C :    0.214975
   2 N :   -0.204941
   3 C :   -0.103174
   4 C :   -0.103160
   5 C :    0.087218
   6 C :    0.087226
   7 H :    0.087257
   8 H :    0.089586
   9 H :    0.087259
  10 H :    0.087275
  11 H :    0.089580
  12 H :    0.087235
  13 C :    0.102103
  14 C :    0.102038
  15 H :    0.051841
  16 H :    0.067301
  17 H :    0.067301
  18 H :    0.051837
  19 H :    0.067258
  20 H :    0.067301
  21 H :    0.121632
Sum of atomic charges:    1.0000000

--------------------------------
MULLIKEN REDUCED ORBITAL CHARGES
--------------------------------
  0 N s       :     3.393795  s :     3.393795
      pz      :     1.470484  p :     3.777181
      px      :     1.150064
      py      :     1.156633
      dz2     :     0.002380  d :     0.033971
      dxz     :     0.005999
      dyz     :     0.006683
      dx2y2   :     0.008388
      dxy     :     0.010521
  1 C s       :     3.084349  s :     3.084349
      pz      :     0.948970  p :     2.632791
      px      :     0.774433
      py      :     0.909387
      dz2     :     0.005135  d :     0.067885
      dxz     :     0.016974
      dyz     :     0.006435
      dx2y2   :     0.016788
      dxy     :     0.022554
  2 N s       :     3.393791  s :     3.393791
      pz      :     1.470484  p :     3.777178
      px      :     1.150062
      py      :     1.156633
      dz2     :     0.002380  d :     0.033972
      dxz     :     0.005999
      dyz     :     0.006683
      dx2y2   :     0.008388
      dxy     :     0.010521
  3 C s       :     3.094348  s :     3.094348
      pz      :     1.048974  p :     2.950116
      px      :     1.006573
      py      :     0.894570
      dz2     :     0.004525  d :     0.058710
      dxz     :     0.010029
      dyz     :     0.010017
      dx2y2   :     0.020411
      dxy     :     0.013729
  4 C s       :     3.094350  s :     3.094350
      pz      :     1.048968  p :     2.950100
      px      :     1.006566
      py      :     0.894566
      dz2     :     0.004525  d :     0.058710
      dxz     :     0.010029
      dyz     :     0.010016
      dx2y2   :     0.020411
      dxy     :     0.013728
  5 C s       :     2.992394  s :     2.992394
      pz      :     1.071506  p :     2.882622
      px      :     0.764371
      py      :     1.046744
      dz2     :     0.007258  d :     0.037766
      dxz     :     0.009615
      dyz     :     0.003098
      dx2y2   :     0.011386
      dxy     :     0.006409
  6 C s       :     2.992379  s :     2.992379
      pz      :     1.071505  p :     2.882628
      px      :     0.764379
      py      :     1.046744
      dz2     :     0.007258  d :     0.037767
      dxz     :     0.009616
      dyz     :     0.003098
      dx2y2   :     0.011386
      dxy     :     0.006409
  7 H s       :     0.888713  s :     0.888713
      pz      :     0.012716  p :     0.024030
      px      :     0.005536
      py      :     0.005779
  8 H s       :     0.886240  s :     0.886240
      pz      :     0.005018  p :     0.024174
      px      :     0.002583
      py      :     0.016573
  9 H s       :     0.888710  s :     0.888710
      pz      :     0.012718  p :     0.024030
      px      :     0.005533
      py      :     0.005780
 10 H s       :     0.888695  s :     0.888695
      pz      :     0.012729  p :     0.024030
      px      :     0.005530
      py      :     0.005771
 11 H s       :     0.886245  s :     0.886245
      pz      :     0.005018  p :     0.024175
      px      :     0.002583
      py      :     0.016574
 12 H s       :     0.888733  s :     0.888733
      pz      :     0.012705  p :     0.024031
      px      :     0.005539
      py      :     0.005788
 13 C s       :     2.876565  s :     2.876565
      pz      :     1.042776  p :     2.994509
      px      :     0.982885
      py      :     0.968848
      dz2     :     0.005416  d :     0.026823
      dxz     :     0.008422
      dyz     :     0.001931
      dx2y2   :     0.002983
      dxy     :     0.008071
 14 C s       :     2.876647  s :     2.876647
      pz      :     1.042776  p :     2.994492
      px      :     0.982868
      py      :     0.968849
      dz2     :     0.005416  d :     0.026822
      dxz     :     0.008421
      dyz     :     0.001931
      dx2y2   :     0.002983
      dxy     :     0.008071
 15 H s       :     0.922899  s :     0.922899
      pz      :     0.004989  p :     0.025260
      px      :     0.006942
      py      :     0.013329
 16 H s       :     0.907584  s :     0.907584
      pz      :     0.012290  p :     0.025116
      px      :     0.008502
      py      :     0.004325
 17 H s       :     0.907585  s :     0.907585
      pz      :     0.012292  p :     0.025114
      px      :     0.008498
      py      :     0.004324
 18 H s       :     0.922903  s :     0.922903
      pz      :     0.004989  p :     0.025261
      px      :     0.006942
      py      :     0.013329
 19 H s       :     0.907623  s :     0.907623
      pz      :     0.012286  p :     0.025118
      px      :     0.008507
      py      :     0.004325
 20 H s       :     0.907581  s :     0.907581
      pz      :     0.012298  p :     0.025118
      px      :     0.008495
      py      :     0.004325
 21 H s       :     0.853394  s :     0.853394
      pz      :     0.004567  p :     0.024974
      px      :     0.001302
      py      :     0.019106


                     *******************************
                     * LOEWDIN POPULATION ANALYSIS *
                     *******************************

----------------------
LOEWDIN ATOMIC CHARGES
----------------------
   0 N :    0.099545
   1 C :    0.122692
   2 N :    0.099550
   3 C :   -0.008457
   4 C :   -0.008461
   5 C :    0.052281
   6 C :    0.052280
   7 H :    0.050743
   8 H :    0.054359
   9 H :    0.050745
  10 H :    0.050743
  11 H :    0.054356
  12 H :    0.050743
  13 C :   -0.045637
  14 C :   -0.045650
  15 H :    0.051285
  16 H :    0.051554
  17 H :    0.051559
  18 H :    0.051291
  19 H :    0.051542
  20 H :    0.051548
  21 H :    0.061390

-------------------------------
LOEWDIN REDUCED ORBITAL CHARGES
-------------------------------
  0 N s       :     3.037234  s :     3.037234
      pz      :     1.399230  p :     3.785075
      px      :     1.185973
      py      :     1.199872
      dz2     :     0.004484  d :     0.078145
      dxz     :     0.009765
      dyz     :     0.013010
      dx2y2   :     0.022975
      dxy     :     0.027912
  1 C s       :     2.831876  s :     2.831876
      pz      :     0.968745  p :     2.887193
      px      :     0.896036
      py      :     1.022412
      dz2     :     0.011035  d :     0.158240
      dxz     :     0.035220
      dyz     :     0.010149
      dx2y2   :     0.042129
      dxy     :     0.059706
  2 N s       :     3.037230  s :     3.037230
      pz      :     1.399228  p :     3.785073
      px      :     1.185974
      py      :     1.199871
      dz2     :     0.004485  d :     0.078147
      dxz     :     0.009765
      dyz     :     0.013010
      dx2y2   :     0.022975
      dxy     :     0.027913
  3 C s       :     2.836111  s :     2.836111
      pz      :     1.034900  p :     3.032404
      px      :     1.055774
      py      :     0.941731
      dz2     :     0.009789  d :     0.139942
      dxz     :     0.019081
      dyz     :     0.019292
      dx2y2   :     0.054434
      dxy     :     0.037347
  4 C s       :     2.836114  s :     2.836114
      pz      :     1.034898  p :     3.032405
      px      :     1.055775
      py      :     0.941732
      dz2     :     0.009789  d :     0.139942
      dxz     :     0.019081
      dyz     :     0.019292
      dx2y2   :     0.054433
      dxy     :     0.037347
  5 C s       :     2.818989  s :     2.818989
      pz      :     1.098304  p :     3.033610
      px      :     0.863188
      py      :     1.072119
      dz2     :     0.018015  d :     0.095121
      dxz     :     0.025728
      dyz     :     0.006856
      dx2y2   :     0.029157
      dxy     :     0.015364
  6 C s       :     2.818979  s :     2.818979
      pz      :     1.098303  p :     3.033617
      px      :     0.863194
      py      :     1.072119
      dz2     :     0.018015  d :     0.095124
      dxz     :     0.025729
      dyz     :     0.006857
      dx2y2   :     0.029158
      dxy     :     0.015365
  7 H s       :     0.881999  s :     0.881999
      pz      :     0.034316  p :     0.067258
      px      :     0.016915
      py      :     0.016027
  8 H s       :     0.877897  s :     0.877897
      pz      :     0.013601  p :     0.067744
      px      :     0.008691
      py      :     0.045452
  9 H s       :     0.881997  s :     0.881997
      pz      :     0.034322  p :     0.067258
      px      :     0.016907
      py      :     0.016029
 10 H s       :     0.882000  s :     0.882000
      pz      :     0.034352  p :     0.067257
      px      :     0.016900
      py      :     0.016005
 11 H s       :     0.877898  s :     0.877898
      pz      :     0.013602  p :     0.067746
      px      :     0.008691
      py      :     0.045453
 12 H s       :     0.881996  s :     0.881996
      pz      :     0.034286  p :     0.067261
      px      :     0.016922
      py      :     0.016052
 13 C s       :     2.810376  s :     2.810376
      pz      :     1.079756  p :     3.162308
      px      :     1.043969
      py      :     1.038584
      dz2     :     0.014671  d :     0.072953
      dxz     :     0.022913
      dyz     :     0.003834
      dx2y2   :     0.008752
      dxy     :     0.022784
 14 C s       :     2.810406  s :     2.810406
      pz      :     1.079746  p :     3.162297
      px      :     1.043961
      py      :     1.038590
      dz2     :     0.014669  d :     0.072948
      dxz     :     0.022910
      dyz     :     0.003834
      dx2y2   :     0.008752
      dxy     :     0.022784
 15 H s       :     0.880208  s :     0.880208
      pz      :     0.013394  p :     0.068507
      px      :     0.019272
      py      :     0.035841
 16 H s       :     0.880291  s :     0.880291
      pz      :     0.032524  p :     0.068155
      px      :     0.022829
      py      :     0.012802
 17 H s       :     0.880292  s :     0.880292
      pz      :     0.032529  p :     0.068149
      px      :     0.022821
      py      :     0.012800
 18 H s       :     0.880204  s :     0.880204
      pz      :     0.013394  p :     0.068505
      px      :     0.019271
      py      :     0.035840
 19 H s       :     0.880294  s :     0.880294
      pz      :     0.032513  p :     0.068163
      px      :     0.022844
      py      :     0.012806
 20 H s       :     0.880291  s :     0.880291
      pz      :     0.032546  p :     0.068161
      px      :     0.022811
      py      :     0.012803
 21 H s       :     0.862174  s :     0.862174
      pz      :     0.015470  p :     0.076436
      px      :     0.007240
      py      :     0.053727


                      *****************************
                      * MAYER POPULATION ANALYSIS *
                      *****************************

  NA   - Mulliken gross atomic population
  ZA   - Total nuclear charge
  QA   - Mulliken gross atomic charge
  VA   - Mayer's total valence
  BVA  - Mayer's bonded valence
  FA   - Mayer's free valence

  ATOM       NA         ZA         QA         VA         BVA        FA
  0 N      7.2049     7.0000    -0.2049     3.5242     3.5242    -0.0000
  1 C      5.7850     6.0000     0.2150     3.8612     3.8612    -0.0000
  2 N      7.2049     7.0000    -0.2049     3.5242     3.5242    -0.0000
  3 C      6.1032     6.0000    -0.1032     4.0617     4.0617    -0.0000
  4 C      6.1032     6.0000    -0.1032     4.0616     4.0616    -0.0000
  5 C      5.9128     6.0000     0.0872     3.8747     3.8747    -0.0000
  6 C      5.9128     6.0000     0.0872     3.8747     3.8747    -0.0000
  7 H      0.9127     1.0000     0.0873     0.9927     0.9927    -0.0000
  8 H      0.9104     1.0000     0.0896     0.9969     0.9969     0.0000
  9 H      0.9127     1.0000     0.0873     0.9927     0.9927    -0.0000
 10 H      0.9127     1.0000     0.0873     0.9927     0.9927    -0.0000
 11 H      0.9104     1.0000     0.0896     0.9969     0.9969     0.0000
 12 H      0.9128     1.0000     0.0872     0.9927     0.9927    -0.0000
 13 C      5.8979     6.0000     0.1021     3.9532     3.9532    -0.0000
 14 C      5.8980     6.0000     0.1020     3.9532     3.9532    -0.0000
 15 H      0.9482     1.0000     0.0518     1.0049     1.0049    -0.0000
 16 H      0.9327     1.0000     0.0673     0.9955     0.9955    -0.0000
 17 H      0.9327     1.0000     0.0673     0.9955     0.9955    -0.0000
 18 H      0.9482     1.0000     0.0518     1.0049     1.0049    -0.0000
 19 H      0.9327     1.0000     0.0673     0.9955     0.9955    -0.0000
 20 H      0.9327     1.0000     0.0673     0.9955     0.9955    -0.0000
 21 H      0.8784     1.0000     0.1216     0.9970     0.9970    -0.0000

  Mayer bond orders larger than 0.100000
B(  0-N ,  1-C ) :   1.3495 B(  0-N ,  4-C ) :   1.1766 B(  0-N ,  5-C ) :   0.9199 
B(  1-C ,  2-N ) :   1.3495 B(  1-C , 21-H ) :   0.9717 B(  2-N ,  3-C ) :   1.1766 
B(  2-N ,  6-C ) :   0.9199 B(  3-C ,  4-C ) :   1.6100 B(  3-C , 13-C ) :   1.0971 
B(  4-C , 14-C ) :   1.0971 B(  5-C ,  7-H ) :   0.9709 B(  5-C ,  8-H ) :   0.9687 
B(  5-C ,  9-H ) :   0.9709 B(  6-C , 10-H ) :   0.9709 B(  6-C , 11-H ) :   0.9687 
B(  6-C , 12-H ) :   0.9709 B( 13-C , 18-H ) :   0.9397 B( 13-C , 19-H ) :   0.9448 
B( 13-C , 20-H ) :   0.9448 B( 14-C , 15-H ) :   0.9397 B( 14-C , 16-H ) :   0.9448 
B( 14-C , 17-H ) :   0.9448 

-------
TIMINGS
-------

Total SCF time: 0 days 0 hours 3 min 48 sec 

Total time                  ....     228.221 sec
Sum of individual times     ....     227.785 sec  ( 99.8%)

Fock matrix formation       ....     223.938 sec  ( 98.1%)
  Split-RI-J                ....       8.609 sec  (  3.8% of F)
  Chain of spheres X        ....     179.158 sec  ( 80.0% of F)
  XC integration            ....      22.447 sec  ( 10.0% of F)
    Basis function eval.    ....       8.082 sec  ( 36.0% of XC)
    Density eval.           ....       4.930 sec  ( 22.0% of XC)
    XC-Functional eval.     ....       3.180 sec  ( 14.2% of XC)
    XC-Potential eval.      ....       5.579 sec  ( 24.9% of XC)
Diagonalization             ....       0.078 sec  (  0.0%)
Density matrix formation    ....       0.010 sec  (  0.0%)
Population analysis         ....       0.008 sec  (  0.0%)
Initial guess               ....       0.680 sec  (  0.3%)
Orbital Transformation      ....       0.000 sec  (  0.0%)
Orbital Orthonormalization  ....       0.000 sec  (  0.0%)
DIIS solution               ....       0.027 sec  (  0.0%)
SOSCF solution              ....       0.021 sec  (  0.0%)
Grid generation             ....       3.024 sec  (  1.3%)

Maximum memory used throughout the entire SCF-calculation: 78.8 MB


-------------------------------------------------------------------------------
                          DFT DISPERSION CORRECTION                            
                                                                               
                                 DFTD4 V2.5                                    
-------------------------------------------------------------------------------
The WB97X functional is recognized
Active option DFTDOPT                   ...         5   

Starting D4
-------------------------   ----------------
Dispersion correction           -0.002873783
-------------------------   ----------------


-------------------------   --------------------
FINAL SINGLE POINT ENERGY      -383.585664327327
-------------------------   --------------------

------------------------------------------------------------------------------
                         ORCA SCF GRADIENT CALCULATION
------------------------------------------------------------------------------

 ... reading COSX grid (gridx3)
Gradient of the Kohn-Sham DFT energy:
Kohn-Sham wavefunction type      ... RKS
Hartree-Fock exchange scaling    ...    0.158
Number of operators              ...    1
Number of atoms                  ...   22
Basis set dimensions             ...  191
Integral neglect threshold       ... 2.5e-11
Integral primitive cutoff        ... 2.5e-12
SHARK Integral package           ... ON

Nuc. rep. gradient       (SHARK) ... done (  0.0 sec)
HCore & Overlap gradient (SHARK) ... done (  0.4 sec)
RI-J gradient            (SHARK) ... done (  2.0 sec)
COSX-gradient                    ... done ( 38.7 sec)
Exchange-correlation gradient    ... done
Dispersion correction            ... Starting D4


------------------- 
Dispersion Gradient 
------------------- 
   1  :   -0.000011446   -0.000006782    0.000000002
   2  :    0.000000000   -0.000002162    0.000000000
   3  :    0.000011445   -0.000006781    0.000000001
   4  :    0.000002213   -0.000008644    0.000000000
   5  :   -0.000002212   -0.000008644    0.000000000
   6  :   -0.000042872   -0.000017674   -0.000000004
   7  :    0.000042872   -0.000017674    0.000000000
   8  :   -0.000008518   -0.000005129    0.000000302
   9  :   -0.000009354   -0.000005698   -0.000000001
  10  :   -0.000008518   -0.000005129   -0.000000304
  11  :    0.000008518   -0.000005130   -0.000000303
  12  :    0.000009354   -0.000005698    0.000000002
  13  :    0.000008517   -0.000005128    0.000000303
  14  :    0.000029449    0.000030120   -0.000000004
  15  :   -0.000029450    0.000030119    0.000000002
  16  :   -0.000006401    0.000010464    0.000000003
  17  :   -0.000008249    0.000006821    0.000001615
  18  :   -0.000008249    0.000006822   -0.000001613
  19  :    0.000006401    0.000010464   -0.000000004
  20  :    0.000008250    0.000006818   -0.000001615
  21  :    0.000008249    0.000006824    0.000001615
  22  :    0.000000000   -0.000008181    0.000000000

  |G| =    0.000099142

done

------------------
CARTESIAN GRADIENT
------------------

   1   N   :   -0.013011335    0.004074392    0.000009458
   2   C   :    0.000005172   -0.005616269   -0.000001190
   3   N   :    0.013015592    0.004069267   -0.000017154
   4   C   :    0.008565248   -0.007715602    0.000025114
   5   C   :   -0.008558080   -0.007719176   -0.000016700
   6   C   :    0.008754286    0.002025270   -0.000004211
   7   C   :   -0.008759505    0.002022332    0.000024385
   8   H   :    0.001410179   -0.001859231   -0.005112768
   9   H   :   -0.000839013    0.006195036    0.000001138
  10   H   :    0.001408922   -0.001858618    0.005112781
  11   H   :   -0.001410998   -0.001856288    0.005114903
  12   H   :    0.000838570    0.006203937   -0.000014650
  13   H   :   -0.001412293   -0.001864636   -0.005116539
  14   C   :    0.000682788    0.003285972   -0.000016387
  15   C   :   -0.000638808    0.003302322    0.000029636
  16   H   :   -0.004255552   -0.007438302   -0.000006358
  17   H   :    0.004818005   -0.000360169   -0.006463624
  18   H   :    0.004808484   -0.000360260    0.006446856
  19   H   :    0.004257651   -0.007432333    0.000009580
  20   H   :   -0.004842407   -0.000354024    0.006487043
  21   H   :   -0.004835881   -0.000358197   -0.006488406
  22   H   :   -0.000000924    0.013533745   -0.000001011

Difference to translation invariance:
           :    0.0000001006   -0.0000808329    0.0000018945

Difference to rotation invariance:
           :    0.0000004773   -0.0000047667    0.0000003227

Norm of the cartesian gradient     ...    0.0406093917
RMS gradient                       ...    0.0049986706
MAX gradient                       ...    0.0135337447

-------
TIMINGS
-------

Total SCF gradient time            ...       51.160 sec

One electron gradient       ....       0.375 sec  (  0.7%)
RI-J Coulomb gradient       ....       1.997 sec  (  3.9%)
COSX gradient               ....      38.720 sec  ( 75.7%)
XC gradient                 ....       7.905 sec  ( 15.5%)
CPCM gradient               ....       0.802 sec  (  1.6%)
   A-Matrix (El+Nuc)        ....       0.070 sec  (  0.1%)
   Potential                ....       0.732 sec  (  1.4%)

Maximum memory used throughout the entire SCFGRAD-calculation: 63.9 MB
------------------------------------------------------------------------------
                         ORCA GEOMETRY RELAXATION STEP
------------------------------------------------------------------------------

Reading the OPT-File                    .... done
Getting information on internals        .... done
Copying old internal coords+grads       .... done
Making the new internal coordinates     .... (new redundants).... done
Validating the new internal coordinates .... (new redundants).... done
Calculating the B-matrix                .... done
Calculating the G,G- and P matrices     .... done
Transforming gradient to internals      .... done
Projecting the internal gradient        .... done
Number of atoms                         ....  22
Number of internal coordinates          .... 105
Current Energy                          ....  -383.585664327 Eh
Current gradient norm                   ....     0.040609392 Eh/bohr
Maximum allowed component of the step   ....  0.300
Current trust radius                    ....  0.300
Evaluating the initial hessian          ....  (Almloef) done
Projecting the Hessian                  .... done
Forming the augmented Hessian           .... done
Diagonalizing the augmented Hessian     .... done
Last element of RFO vector              ....  0.995534351
Lowest eigenvalues of augmented Hessian:
 -0.003675335  0.014875569  0.014876478  0.018917047  0.018918968
Length of the computed step             ....  0.094823431
The final length of the internal step   ....  0.094823431
Converting the step to cartesian space:
 Initial RMS(Int)=    0.0092538193
Transforming coordinates:
 Iter   0:  RMS(Cart)=    0.0193755036 RMS(Int)=    0.8672084394
 Iter   1:  RMS(Cart)=    0.0000548462 RMS(Int)=    0.0000207207
 Iter   2:  RMS(Cart)=    0.0000004236 RMS(Int)=    0.0000002314
 Iter   3:  RMS(Cart)=    0.0000000033 RMS(Int)=    0.0000000021
done
Storing new coordinates                 .... done

                                .--------------------.
          ----------------------|Geometry convergence|-------------------------
          Item                value                   Tolerance       Converged
          ---------------------------------------------------------------------
          RMS gradient        0.0038550331            0.0001000000      NO
          MAX gradient        0.0135374189            0.0003000000      NO
          RMS step            0.0092538193            0.0020000000      NO
          MAX step            0.0348691860            0.0040000000      NO
          ........................................................
          Max(Bonds)      0.0185      Max(Angles)    0.51
          Max(Dihed)        0.14      Max(Improp)    0.00
          ---------------------------------------------------------------------

The optimization has not yet converged - more geometry cycles are needed


    ---------------------------------------------------------------------------
[...]
     52       0.018591   0.000614   0.000621   0.020637  -0.020941  -0.004463
     53       0.365515   0.004935  -0.000549   0.400685  -0.400293  -0.181866
     54       0.153127  -0.002854   0.001032   0.000138   0.000131  -0.304170
     55      -0.270238   0.003819  -0.000374  -0.000247  -0.000233   0.552534
     56       0.000158  -0.000002  -0.000000  -0.006976  -0.007056  -0.000316
     57      -0.259161   0.004011   0.000105  -0.294853  -0.295084  -0.125771
     58       0.018739  -0.000616   0.000622   0.020783   0.021128   0.004545
     59       0.365378  -0.004926  -0.000550   0.400155   0.400567   0.181950
     60      -0.258980   0.004019   0.000094   0.294517   0.294739  -0.125419
     61       0.018492  -0.000611   0.000621  -0.020496  -0.020841   0.004403
     62      -0.365750   0.004948   0.000534   0.400390   0.400790  -0.181775
     63       0.000000   0.001585  -0.000001  -0.000000  -0.000000   0.000088
     64       0.002224   0.000000   0.001294   0.000002   0.000002   0.000000
     65      -0.000000   0.000001  -0.000001  -0.000007  -0.000000   0.000000
                 60         61         62         63         64         65    
      0      -0.000277   0.000000   0.000000  -0.000467   0.000342  -0.003729
      1       0.000254   0.000000   0.000000  -0.000394   0.000303   0.002888
      2       0.000000  -0.000383   0.000478   0.000000   0.000000  -0.000000
      3       0.000000  -0.000000  -0.000000   0.000001  -0.000223   0.000000
      4       0.000181  -0.000000  -0.000000   0.000357   0.000002  -0.094056
      5      -0.000000   0.000259  -0.000001   0.000001   0.000001   0.000005
      6       0.000277  -0.000001  -0.000001   0.000463   0.000348   0.003729
      7       0.000254   0.000000   0.000000  -0.000391  -0.000308   0.002888
      8       0.000000  -0.000387  -0.000475   0.000000   0.000000   0.000000
      9       0.000770   0.000000   0.000000   0.000441   0.000429  -0.000940
     10       0.000041   0.000000   0.000000  -0.000089   0.000030   0.002133
     11       0.000000  -0.000025  -0.000083  -0.000000  -0.000000  -0.000000
     12      -0.000770  -0.000000  -0.000000  -0.000446   0.000423   0.000940
     13       0.000041  -0.000000  -0.000000  -0.000089  -0.000031   0.002133
     14      -0.000000  -0.000024   0.000083   0.000000   0.000000  -0.000000
     15       0.000195  -0.000001   0.000001  -0.019092   0.018894  -0.000009
     16      -0.000251   0.000004  -0.000005   0.065750  -0.064907   0.000208
     17      -0.000003   0.067745  -0.068251  -0.000005   0.000004   0.000000
     18      -0.000195   0.000014   0.000014   0.018862   0.019122   0.000009
     19      -0.000251   0.000002   0.000002   0.064963   0.065694   0.000208
     20      -0.000022   0.068286   0.067709  -0.000006  -0.000007  -0.000001
     21      -0.000696   0.229121  -0.231046   0.116318  -0.115138   0.002155
     22       0.000837  -0.172709   0.174036  -0.083478   0.082604  -0.000201
     23       0.000982  -0.404154   0.407350  -0.213334   0.211014  -0.001906
     24       0.000138  -0.000000   0.000000   0.001737  -0.001731   0.001681
     25       0.001561  -0.000019   0.000026  -0.607664   0.600124  -0.004518
     26      -0.000000   0.005968  -0.006030   0.000019  -0.000019   0.000000
     27      -0.000676  -0.229104   0.231028   0.116329  -0.115145   0.002155
     28       0.000822   0.172681  -0.174006  -0.083478   0.082601  -0.000200
     29      -0.000947  -0.404163   0.407356   0.213373  -0.211047   0.001905
     30       0.000609   0.230869   0.229130  -0.114602  -0.116208  -0.002154
     31       0.000770   0.173651   0.172220  -0.082046  -0.083169  -0.000200
     32      -0.000830  -0.407774  -0.404505   0.210476   0.213268   0.001908
     33      -0.000138   0.000004   0.000004  -0.001713  -0.001749  -0.001681
     34       0.001560   0.000805   0.000803  -0.600387  -0.607404  -0.004517
     35      -0.000004   0.006015   0.005981   0.000703   0.000711   0.000003
     36       0.000763  -0.231020  -0.229279  -0.115251  -0.116860  -0.002156
     37       0.000889  -0.174501  -0.173062  -0.082907  -0.084037  -0.000201
     38       0.001099  -0.407004  -0.403738  -0.211110  -0.213901  -0.001902
     39       0.045276   0.000014   0.000013   0.000025   0.000188   0.000018
     40      -0.047786  -0.000014  -0.000012  -0.000122  -0.000309  -0.000202
     41       0.000015  -0.000835  -0.000929  -0.000000  -0.000000   0.000000
     42      -0.045274  -0.000003  -0.000001  -0.000027   0.000188  -0.000018
     43      -0.047784  -0.000003  -0.000001  -0.000126   0.000307  -0.000202
     44      -0.000006  -0.000827   0.000935   0.000000  -0.000000  -0.000000
     45       0.306913   0.000023   0.000005   0.001314  -0.002248   0.000961
     46       0.556521   0.000041   0.000009   0.002017  -0.003773   0.001342
     47       0.000056  -0.000406   0.000425   0.000000  -0.000000   0.000000
     48       0.121575  -0.003386   0.003790   0.000189  -0.000493  -0.000484
     49       0.004187  -0.000779   0.000898  -0.000434   0.000419   0.000284
     50      -0.176256   0.004862  -0.005448  -0.000695   0.001140   0.000364
     51       0.121548   0.003405  -0.003787   0.000185  -0.000490  -0.000484
     52       0.004168   0.000779  -0.000897  -0.000435   0.000419   0.000284
     53       0.176270   0.004889  -0.005446   0.000688  -0.001136  -0.000364
     54      -0.306926  -0.000089  -0.000080  -0.001287  -0.002264  -0.000961
     55       0.556542   0.000159   0.000142   0.001971   0.003797   0.001341
     56      -0.000317  -0.000409  -0.000422  -0.000001  -0.000002  -0.000001
     57      -0.121728  -0.003471  -0.003804  -0.000183  -0.000496   0.000485
     58       0.004246   0.000791   0.000896  -0.000430  -0.000424   0.000284
     59       0.176343   0.004981   0.005466   0.000681   0.001150  -0.000365
     60      -0.121406   0.003381   0.003720  -0.000179  -0.000491   0.000483
     61       0.004109  -0.000782  -0.000887  -0.000429  -0.000424   0.000284
     62      -0.176198   0.004858   0.005353  -0.000674  -0.001143   0.000363
     63      -0.000000   0.000001   0.000001   0.000007  -0.001239  -0.000001
     64      -0.001656   0.000007   0.000007  -0.008117  -0.000048   0.995495
     65       0.000000  -0.000555   0.000002  -0.000002  -0.000002  -0.000053


-----------
IR SPECTRUM
-----------

 Mode   freq       eps      Int      T**2         TX        TY        TZ
       cm**-1   L/(mol*cm) km/mol    a.u.
----------------------------------------------------------------------------
  6:     96.87   0.000057    0.29  0.000185  (-0.000016 -0.000014  0.013586)
  7:     99.88   0.000000    0.00  0.000000  (-0.000014 -0.000015  0.000032)
  8:    135.73   0.000000    0.00  0.000000  (-0.000014 -0.000013  0.000002)
  9:    155.22   0.000291    1.47  0.000585  (-0.000029 -0.000003 -0.024186)
 10:    158.60   0.000000    0.00  0.000000  (-0.000020 -0.000014 -0.000007)
 11:    173.58   0.001946    9.84  0.003499  ( 0.000009 -0.000000 -0.059154)
 12:    274.52   0.000211    1.07  0.000240  ( 0.000029 -0.015492  0.000020)
 13:    275.14   0.000262    1.32  0.000297  ( 0.017232  0.000025 -0.000025)
 14:    291.00   0.000150    0.76  0.000161  (-0.000000 -0.012670 -0.000049)
 15:    302.03   0.002041   10.31  0.002109  (-0.000007  0.000007 -0.045920)
 16:    324.12   0.000000    0.00  0.000000  (-0.000006  0.000000  0.000000)
 17:    537.52   0.000447    2.26  0.000260  (-0.016113 -0.000000 -0.000007)
 18:    577.33   0.000573    2.90  0.000310  (-0.017606 -0.000000 -0.000003)
 19:    621.67   0.000467    2.36  0.000235  (-0.000000  0.015318 -0.000013)
 20:    643.46   0.003719   18.79  0.001803  (-0.000002  0.000006  0.042467)
 21:    693.99   0.000000    0.00  0.000000  ( 0.000001 -0.000000  0.000000)
 22:    742.36   0.000516    2.61  0.000217  ( 0.000000 -0.014734 -0.000002)
 23:    860.43   0.003215   16.25  0.001166  (-0.000120  0.000005  0.034150)
 24:    861.58   0.001739    8.79  0.000630  (-0.025095 -0.000000 -0.000160)
 25:    977.27   0.000121    0.61  0.000039  (-0.000000  0.006212  0.000001)
 26:   1046.37   0.001753    8.86  0.000523  ( 0.000010  0.000009  0.022863)
 27:   1068.97   0.000000    0.00  0.000000  (-0.000002  0.000008  0.000000)
 28:   1081.27   0.002334   11.79  0.000674  ( 0.025953  0.000000 -0.000000)
 29:   1105.86   0.000281    1.42  0.000079  (-0.000000 -0.008904  0.000003)
 30:   1118.26   0.002640   13.34  0.000737  ( 0.027141  0.000000 -0.000005)
 31:   1140.71   0.000000    0.00  0.000000  (-0.000006 -0.000011  0.000000)
 32:   1145.49   0.000134    0.68  0.000037  (-0.000001 -0.000011 -0.006048)
 33:   1193.80   0.000015    0.08  0.000004  ( 0.000000  0.001998  0.000002)
 34:   1233.43   0.015757   79.63  0.003987  (-0.063139 -0.000000  0.000001)
 35:   1282.59   0.000661    3.34  0.000161  ( 0.012679  0.000000  0.000007)
 36:   1396.08   0.000138    0.70  0.000031  (-0.000000  0.005558 -0.000006)
 37:   1401.53   0.001528    7.72  0.000340  ( 0.018443  0.000000 -0.000015)
 38:   1417.01   0.000255    1.29  0.000056  (-0.000000 -0.007501  0.000003)
 39:   1434.51   0.005784   29.23  0.001258  ( 0.035472  0.000000  0.000088)
 40:   1436.93   0.001297    6.55  0.000282  (-0.000127  0.000034 -0.016782)
 41:   1437.56   0.000000    0.00  0.000000  ( 0.000117 -0.000043  0.000002)
 42:   1442.40   0.001411    7.13  0.000305  ( 0.017472 -0.000000  0.000151)
 43:   1444.16   0.000171    0.86  0.000037  ( 0.000004 -0.006052 -0.000499)
 44:   1445.27   0.000001    0.01  0.000000  ( 0.000114  0.000546  0.000029)
 45:   1445.86   0.015314   77.39  0.003305  (-0.000127 -0.000666  0.057487)
 46:   1447.92   0.012024   60.77  0.002592  (-0.000002  0.050903  0.000701)
 47:   1458.86   0.000014    0.07  0.000003  (-0.001711  0.000000  0.000066)
 48:   1472.89   0.004833   24.42  0.001024  ( 0.000000 -0.031998 -0.000003)
 49:   1528.36   0.000013    0.06  0.000003  (-0.001602  0.000000  0.000004)
 50:   1545.07   0.000119    0.60  0.000024  (-0.000000 -0.004904  0.000001)
 51:   1674.45   0.033867  171.15  0.006312  ( 0.079446  0.000000 -0.000005)
 52:   1741.15   0.007281   36.80  0.001305  (-0.000000  0.036125 -0.000002)
 53:   3075.44   0.002896   14.63  0.000294  (-0.017142  0.000001 -0.000002)
 54:   3076.46   0.001266    6.40  0.000128  ( 0.000002  0.011334  0.000001)
 55:   3096.56   0.004323   21.85  0.000436  ( 0.020872  0.000003 -0.000005)
 56:   3096.91   0.000331    1.67  0.000033  (-0.000010  0.005777  0.000005)
 57:   3169.12   0.001148    5.80  0.000113  ( 0.000001  0.000003 -0.010633)
 58:   3169.30   0.000000    0.00  0.000000  ( 0.000001  0.000002 -0.000005)
 59:   3203.55   0.000273    1.38  0.000027  ( 0.005153  0.000000 -0.000001)
 60:   3206.39   0.000623    3.15  0.000061  ( 0.000000 -0.007788 -0.000001)
 61:   3211.45   0.000208    1.05  0.000020  ( 0.000002 -0.000001  0.004491)
 62:   3211.46   0.000000    0.00  0.000000  ( 0.000002 -0.000002 -0.000018)
 63:   3228.23   0.000017    0.08  0.000002  (-0.000004  0.001273  0.000002)
 64:   3228.28   0.000005    0.02  0.000000  ( 0.000687  0.000008  0.000002)
 65:   3300.83   0.011145   56.32  0.001054  ( 0.000000  0.032460 -0.000002)

* The epsilon (eps) is given for a Dirac delta lineshape.
** The dipole moment derivative (T) already includes vibrational overlap.

The first frequency considered to be a vibration is 6
The total number of vibrations considered is 60


--------------------------
THERMOCHEMISTRY AT 298.15K
--------------------------

Temperature         ... 298.15 K
Pressure            ... 1.00 atm
Total Mass          ... 125.19 AMU

Throughout the following assumptions are being made:
  (1) The electronic state is orbitally nondegenerate
  (2) There are no thermally accessible electronically excited states
  (3) Hindered rotations indicated by low frequency modes are not
      treated as such but are treated as vibrations and this may
      cause some error
  (4) All equations used are the standard statistical mechanics
      equations for an ideal gas
  (5) All vibrations are strictly harmonic

freq.      96.87  E(vib)   ...       0.46 
freq.      99.88  E(vib)   ...       0.46 
freq.     135.73  E(vib)   ...       0.42 
freq.     155.22  E(vib)   ...       0.40 
freq.     158.60  E(vib)   ...       0.39 
freq.     173.58  E(vib)   ...       0.38 
freq.     274.52  E(vib)   ...       0.28 
freq.     275.14  E(vib)   ...       0.28 
freq.     291.00  E(vib)   ...       0.27 
freq.     302.03  E(vib)   ...       0.26 
freq.     324.12  E(vib)   ...       0.25 
freq.     537.52  E(vib)   ...       0.12 
freq.     577.33  E(vib)   ...       0.11 
freq.     621.67  E(vib)   ...       0.09 
freq.     643.46  E(vib)   ...       0.09 
freq.     693.99  E(vib)   ...       0.07 
freq.     742.36  E(vib)   ...       0.06 
freq.     860.43  E(vib)   ...       0.04 
freq.     861.58  E(vib)   ...       0.04 
freq.     977.27  E(vib)   ...       0.03 
freq.    1046.37  E(vib)   ...       0.02 
freq.    1068.97  E(vib)   ...       0.02 
freq.    1081.27  E(vib)   ...       0.02 
freq.    1105.86  E(vib)   ...       0.02 
freq.    1118.26  E(vib)   ...       0.01 
freq.    1140.71  E(vib)   ...       0.01 
freq.    1145.49  E(vib)   ...       0.01 
freq.    1193.80  E(vib)   ...       0.01 
freq.    1233.43  E(vib)   ...       0.01 
freq.    1282.59  E(vib)   ...       0.01 
freq.    1396.08  E(vib)   ...       0.00 
freq.    1401.53  E(vib)   ...       0.00 
freq.    1417.01  E(vib)   ...       0.00 
freq.    1434.51  E(vib)   ...       0.00 
freq.    1436.93  E(vib)   ...       0.00 
freq.    1437.56  E(vib)   ...       0.00 
freq.    1442.40  E(vib)   ...       0.00 
freq.    1444.16  E(vib)   ...       0.00 
freq.    1445.27  E(vib)   ...       0.00 
freq.    1445.86  E(vib)   ...       0.00 
freq.    1447.92  E(vib)   ...       0.00 
freq.    1458.86  E(vib)   ...       0.00 
freq.    1472.89  E(vib)   ...       0.00 
freq.    1528.36  E(vib)   ...       0.00 
freq.    1545.07  E(vib)   ...       0.00 
freq.    1674.45  E(vib)   ...       0.00 
freq.    1741.15  E(vib)   ...       0.00 
freq.    3075.44  E(vib)   ...       0.00 
freq.    3076.46  E(vib)   ...       0.00 
freq.    3096.56  E(vib)   ...       0.00 
freq.    3096.91  E(vib)   ...       0.00 
freq.    3169.12  E(vib)   ...       0.00 
freq.    3169.30  E(vib)   ...       0.00 
freq.    3203.55  E(vib)   ...       0.00 
freq.    3206.39  E(vib)   ...       0.00 
freq.    3211.45  E(vib)   ...       0.00 
freq.    3211.46  E(vib)   ...       0.00 
freq.    3228.23  E(vib)   ...       0.00 
freq.    3228.28  E(vib)   ...       0.00 
freq.    3300.83  E(vib)   ...       0.00 

------------
INNER ENERGY
------------

The inner energy is: U= E(el) + E(ZPE) + E(vib) + E(rot) + E(trans)
    E(el)   - is the total energy from the electronic structure calculation
              = E(kin-el) + E(nuc-el) + E(el-el) + E(nuc-nuc)
    E(ZPE)  - the the zero temperature vibrational energy from the frequency calculation
    E(vib)  - the the finite temperature correction to E(ZPE) due to population
              of excited vibrational states
    E(rot)  - is the rotational thermal energy
    E(trans)- is the translational thermal energy

Summary of contributions to the inner energy U:
Electronic energy                ...   -383.58776115 Eh
Zero point energy                ...      0.19743282 Eh     123.89 kcal/mol
Thermal vibrational correction   ...      0.00750454 Eh       4.71 kcal/mol
Thermal rotational correction    ...      0.00141627 Eh       0.89 kcal/mol
Thermal translational correction ...      0.00141627 Eh       0.89 kcal/mol
-----------------------------------------------------------------------
Total thermal energy                   -383.37999124 Eh


Summary of corrections to the electronic energy:
(perhaps to be used in another calculation)
Total thermal correction                  0.01033708 Eh       6.49 kcal/mol
Non-thermal (ZPE) correction              0.19743282 Eh     123.89 kcal/mol
-----------------------------------------------------------------------
Total correction                          0.20776990 Eh     130.38 kcal/mol


--------
ENTHALPY
--------

The enthalpy is H = U + kB*T
                kB is Boltzmann's constant
Total free energy                 ...   -383.37999124 Eh 
Thermal Enthalpy correction       ...      0.00094421 Eh       0.59 kcal/mol
-----------------------------------------------------------------------
Total Enthalpy                    ...   -383.37904703 Eh


Note: Only C1 symmetry has been detected, increase convergence thresholds 
      if your molecule has a higher symmetry. Symmetry factor of 1.0 is   
      used for the rotational entropy correction. 
 

Note: Rotational entropy computed according to Herzberg 
Infrared and Raman Spectra, Chapter V,1, Van Nostrand Reinhold, 1945 
Point Group:  C1, Symmetry Number:   1  
Rotational constants in cm-1:     0.081285     0.050364     0.031855 

Vibrational entropy computed according to the QRRHO of S. Grimme
Chem.Eur.J. 2012 18 9955


-------
ENTROPY
-------

The entropy contributions are T*S = T*(S(el)+S(vib)+S(rot)+S(trans))
     S(el)   - electronic entropy
     S(vib)  - vibrational entropy
     S(rot)  - rotational entropy
     S(trans)- translational entropy
The entropies will be listed as multiplied by the temperature to get
units of energy

Electronic entropy                ...      0.00000000 Eh      0.00 kcal/mol
Vibrational entropy               ...      0.01311092 Eh      8.23 kcal/mol
Rotational entropy                ...      0.01373359 Eh      8.62 kcal/mol
Translational entropy             ...      0.01918948 Eh     12.04 kcal/mol
-----------------------------------------------------------------------
Final entropy term                ...      0.04603399 Eh     28.89 kcal/mol

In case the symmetry of your molecule has not been determined correctly
or in case you have a reason to use a different symmetry number we print 
out the resulting rotational entropy values for sn=1,12 :
 --------------------------------------------------------
|  sn= 1 | S(rot)=       0.01373359 Eh      8.62 kcal/mol|
|  sn= 2 | S(rot)=       0.01307913 Eh      8.21 kcal/mol|
|  sn= 3 | S(rot)=       0.01269630 Eh      7.97 kcal/mol|
|  sn= 4 | S(rot)=       0.01242468 Eh      7.80 kcal/mol|
|  sn= 5 | S(rot)=       0.01221399 Eh      7.66 kcal/mol|
|  sn= 6 | S(rot)=       0.01204184 Eh      7.56 kcal/mol|
|  sn= 7 | S(rot)=       0.01189630 Eh      7.47 kcal/mol|
|  sn= 8 | S(rot)=       0.01177022 Eh      7.39 kcal/mol|
|  sn= 9 | S(rot)=       0.01165901 Eh      7.32 kcal/mol|
|  sn=10 | S(rot)=       0.01155953 Eh      7.25 kcal/mol|
|  sn=11 | S(rot)=       0.01146954 Eh      7.20 kcal/mol|
|  sn=12 | S(rot)=       0.01138739 Eh      7.15 kcal/mol|
 --------------------------------------------------------


-------------------
GIBBS FREE ENERGY
-------------------

The Gibbs free energy is G = H - T*S

Total enthalpy                    ...   -383.37904703 Eh 
Total entropy correction          ...     -0.04603399 Eh    -28.89 kcal/mol
-----------------------------------------------------------------------
Final Gibbs free energy         ...   -383.42508103 Eh

For completeness - the Gibbs free energy minus the electronic energy
G-E(el)                           ...      0.16268012 Eh    102.08 kcal/mol


Timings for individual modules:

Sum of individual times         ...     2082.496 sec (=  34.708 min)
GTO integral calculation        ...        1.575 sec (=   0.026 min)   0.1 %
SCF iterations                  ...      939.435 sec (=  15.657 min)  45.1 %
SCF Gradient evaluation         ...      256.247 sec (=   4.271 min)  12.3 %
Geometry relaxation             ...        0.265 sec (=   0.004 min)   0.0 %
Analytical frequency calculation...      884.974 sec (=  14.750 min)  42.5 %
                             ****ORCA TERMINATED NORMALLY****
TOTAL RUN TIME: 0 days 0 hours 34 minutes 43 seconds 264 msec
