
                                 *****************
                                 * O   R   C   A *
                                 *****************

                                            #,                                       
                                            ###                                      
                                            ####                                     
                                            #####                                    
                                            ######                                   
                                           ########,                                 
                                     ,,################,,,,,                         
                               ,,#################################,,                 
                          ,,##########################################,,             
                       ,#########################################, ''#####,          
                    ,#############################################,,   '####,        
                  ,##################################################,,,,####,       
                ,###########''''           ''''###############################       
              ,#####''   ,,,,##########,,,,          '''####'''          '####       
            ,##' ,,,,###########################,,,                        '##       
           ' ,,###''''                  '''############,,,                           
         ,,##''                                '''############,,,,        ,,,,,,###''
      ,#''                                            '''#######################'''  
     '                                                          ''''####''''         
             ,#######,   #######,   ,#######,      ##                                
            ,#'     '#,  ##    ##  ,#'     '#,    #''#        ######   ,####,        
            ##       ##  ##   ,#'  ##            #'  '#       #        #'  '#        
            ##       ##  #######   ##           ,######,      #####,   #    #        
            '#,     ,#'  ##    ##  '#,     ,#' ,#      #,         ##   #,  ,#        
             '#######'   ##     ##  '#######'  #'      '#     #####' # '####'        



                  #######################################################
                  #                        -***-                        #
                  #          Department of theory and spectroscopy      #
                  #    Directorship and core code : Frank Neese         #
                  #        Max Planck Institute fuer Kohlenforschung    #
                  #                Kaiser Wilhelm Platz 1               #
                  #                 D-45470 Muelheim/Ruhr               #
                  #                      Germany                        #
                  #                                                     #
                  #                  All rights reserved                #
                  #                        -***-                        #
                  #######################################################


                         Program Version 5.0.4 -  RELEASE  -


 With contributions from (in alphabetic order):
   Daniel Aravena         : Magnetic Suceptibility
   Michael Atanasov       : Ab Initio Ligand Field Theory (pilot matlab implementation)
   Alexander A. Auer      : GIAO ZORA, VPT2 properties, NMR spectrum
   Ute Becker             : Parallelization
   Giovanni Bistoni       : ED, misc. LED, open-shell LED, HFLD
   Martin Brehm           : Molecular dynamics
   Dmytro Bykov           : SCF Hessian
   Vijay G. Chilkuri      : MRCI spin determinant printing, contributions to CSF-ICE
   Dipayan Datta          : RHF DLPNO-CCSD density
   Achintya Kumar Dutta   : EOM-CC, STEOM-CC
   Dmitry Ganyushin       : Spin-Orbit,Spin-Spin,Magnetic field MRCI
   Miquel Garcia          : C-PCM and meta-GGA Hessian, CC/C-PCM, Gaussian charge scheme
   Yang Guo               : DLPNO-NEVPT2, F12-NEVPT2, CIM, IAO-localization
   Andreas Hansen         : Spin unrestricted coupled pair/coupled cluster methods
   Benjamin Helmich-Paris : MC-RPA, TRAH-SCF, COSX integrals
   Lee Huntington         : MR-EOM, pCC
   Robert Izsak           : Overlap fitted RIJCOSX, COSX-SCS-MP3, EOM
   Marcus Kettner         : VPT2
   Christian Kollmar      : KDIIS, OOCD, Brueckner-CCSD(T), CCSD density, CASPT2, CASPT2-K
   Simone Kossmann        : Meta GGA functionals, TD-DFT gradient, OOMP2, MP2 Hessian
   Martin Krupicka        : Initial AUTO-CI
   Lucas Lang             : DCDCAS
   Marvin Lechner         : AUTO-CI (C++ implementation), FIC-MRCC
   Dagmar Lenk            : GEPOL surface, SMD
   Dimitrios Liakos       : Extrapolation schemes; Compound Job, initial MDCI parallelization
   Dimitrios Manganas     : Further ROCIS development; embedding schemes
   Dimitrios Pantazis     : SARC Basis sets
   Anastasios Papadopoulos: AUTO-CI, single reference methods and gradients
   Taras Petrenko         : DFT Hessian,TD-DFT gradient, ASA, ECA, R-Raman, ABS, FL, XAS/XES, NRVS
   Peter Pinski           : DLPNO-MP2, DLPNO-MP2 Gradient
   Christoph Reimann      : Effective Core Potentials
   Marius Retegan         : Local ZFS, SOC
   Christoph Riplinger    : Optimizer, TS searches, QM/MM, DLPNO-CCSD(T), (RO)-DLPNO pert. Triples
   Tobias Risthaus        : Range-separated hybrids, TD-DFT gradient, RPA, STAB
   Michael Roemelt        : Original ROCIS implementation
   Masaaki Saitow         : Open-shell DLPNO-CCSD energy and density
   Barbara Sandhoefer     : DKH picture change effects
   Avijit Sen             : IP-ROCIS
   Kantharuban Sivalingam : CASSCF convergence, NEVPT2, FIC-MRCI
   Bernardo de Souza      : ESD, SOC TD-DFT
   Georgi Stoychev        : AutoAux, RI-MP2 NMR, DLPNO-MP2 response
   Willem Van den Heuvel  : Paramagnetic NMR
   Boris Wezisla          : Elementary symmetry handling
   Frank Wennmohs         : Technical directorship


 We gratefully acknowledge several colleagues who have allowed us to
 interface, adapt or use parts of their codes:
   Stefan Grimme, W. Hujo, H. Kruse, P. Pracht,  : VdW corrections, initial TS optimization,
                  C. Bannwarth, S. Ehlert          DFT functionals, gCP, sTDA/sTD-DF
   Ed Valeev, F. Pavosevic, A. Kumar             : LibInt (2-el integral package), F12 methods
   Garnet Chan, S. Sharma, J. Yang, R. Olivares  : DMRG
   Ulf Ekstrom                                   : XCFun DFT Library
   Mihaly Kallay                                 : mrcc  (arbitrary order and MRCC methods)
   Jiri Pittner, Ondrej Demel                    : Mk-CCSD
   Frank Weinhold                                : gennbo (NPA and NBO analysis)
   Christopher J. Cramer and Donald G. Truhlar   : smd solvation model
   Lars Goerigk                                  : TD-DFT with DH, B97 family of functionals
   V. Asgeirsson, H. Jonsson                     : NEB implementation
   FAccTs GmbH                                   : IRC, NEB, NEB-TS, DLPNO-Multilevel, CI-OPT
                                                   MM, QMMM, 2- and 3-layer-ONIOM, Crystal-QMMM,
                                                   LR-CPCM, SF, NACMEs, symmetry and pop. for TD-DFT,
                                                   nearIR, NL-DFT gradient (VV10), updates on ESD,
                                                   ML-optimized integration grids
   S Lehtola, MJT Oliveira, MAL Marques          : LibXC Library
   Liviu Ungur et al                             : ANISO software


 Your calculation uses the libint2 library for the computation of 2-el integrals
 For citations please refer to: http://libint.valeyev.net

 Your ORCA version has been built with support for libXC version: 5.1.0
 For citations please refer to: https://tddft.org/programs/libxc/

 This ORCA versions uses:
   CBLAS   interface :  Fast vector & matrix operations
   LAPACKE interface :  Fast linear algebra routines
   SCALAPACK package :  Parallel linear algebra routines
   Shared memory     :  Shared parallel matrices
   BLAS/LAPACK       :  OpenBLAS 0.3.15  USE64BITINT DYNAMIC_ARCH NO_AFFINITY SkylakeX SINGLE_THREADED
        Core in use  :  SkylakeX
   Copyright (c) 2011-2014, The OpenBLAS Project




***************************************
The coordinates will be read from file: 2_prot_aq_2.xyz
***************************************


Your calculation utilizes the atom-pairwise dispersion correction
based on tight binding partial charges (D4)
Cite in your paper:
E.Caldeweyher, C.Bannwarth, S.Grimme, J.Chem.Phys., (2017), 147, 034112.
E.Caldeweyher, S.Ehlert, A.Hansen, H.Neugebauer, S.Grimme, J.Chem.Phys., (2018), in progress.
   

XCFun DFT library Copyright 2009-2010 Ulf Ekstrom and contributors.
See http://admol.org/xcfun for more information.
This is free software; see the source code for copying conditions.
There is ABSOLUTELY NO WARRANTY; not even for MERCHANTABILITY or FITNESS FOR A PARTICULAR PURPOSE.
For details see the documentation.
Scientific users of this library should cite U. Ekstrom, L. Visscher, R. Bast, A. J. Thorvaldsen and K. Ruud;
J.Chem.Theor.Comp. 2010, DOI: 10.1021/ct100117s
XCFun Version 0.99 

================================================================================

----- Orbital basis set information -----
Your calculation utilizes the basis: def2-SVP
   F. Weigend and R. Ahlrichs, Phys. Chem. Chem. Phys. 7, 3297 (2005).

----- AuxJ basis set information -----
Your calculation utilizes the auxiliary basis: def2/J
   F. Weigend, Phys. Chem. Chem. Phys. 8, 1057 (2006).

================================================================================
                                        WARNINGS
                       Please study these warnings very carefully!
================================================================================


WARNING: Geometry Optimization
  ===> : Switching off AutoStart
         For restart on a previous wavefunction, please use MOREAD

INFO   : the flag for use of the SHARK integral package has been found!

================================================================================
                                       INPUT FILE
================================================================================
NAME = 2_prot_aq_2.inp
|  1> # ORCA 5.0.4 - /users/bwb16179/postgrad/2024_03/DFT_Crest_Conformers/Opt/prot/2_prot_aq_2.inp # write input file
|  2> # Basic Mode
|  3> #
|  4> ! Opt Freq wB97X Def2-SVP D4 SlowConv TightSCF Defgrid2 Def2/J RIJCOSX CPCM(Water)
|  5> 
|  6> 
|  7> 
|  8> %maxcore 4500
|  9> 
| 10> %geom
| 11> Maxiter 150
| 12> END
| 13> 
| 14> * xyzfile 1 1 2_prot_aq_2.xyz
| 15> 
| 16>                          ****END OF INPUT****
================================================================================

                       *****************************
                       * Geometry Optimization Run *
                       *****************************

Geometry optimization settings:
Update method            Update   .... BFGS
Choice of coordinates    CoordSys .... Z-matrix Internals
Initial Hessian          InHess   .... Almoef's Model

Convergence Tolerances:
Energy Change            TolE     ....  5.0000e-06 Eh
Max. Gradient            TolMAXG  ....  3.0000e-04 Eh/bohr
RMS Gradient             TolRMSG  ....  1.0000e-04 Eh/bohr
Max. Displacement        TolMAXD  ....  4.0000e-03 bohr
RMS Displacement         TolRMSD  ....  2.0000e-03 bohr
Strict Convergence                ....  False
------------------------------------------------------------------------------
                        ORCA OPTIMIZATION COORDINATE SETUP
------------------------------------------------------------------------------

The optimization will be done in new redundant internal coordinates
Making redundant internal coordinates   ...  (new redundants) done
Evaluating the initial hessian          ...  (Almloef) done
Evaluating the coordinates              ...  done
Calculating the B-matrix                .... done
Calculating the G-matrix                .... done
Diagonalizing the G-matrix              .... done
The first mode is                       ....   45
The number of degrees of freedom        ....   60

    -----------------------------------------------------------------
                    Redundant Internal Coordinates


    -----------------------------------------------------------------
         Definition                    Initial Value    Approx d2E/dq
    -----------------------------------------------------------------
      1. B(C   1,N   0)                  1.3301         0.697253   
      2. B(N   2,C   1)                  1.3315         0.693661   
      3. B(C   3,N   2)                  1.3716         0.598681   
      4. B(C   4,C   3)                  1.3741         0.662402   
      5. B(C   4,N   0)                  1.3708         0.600460   
      6. B(C   5,N   0)                  1.4371         0.470630   
      7. B(C   6,N   2)                  1.4394         0.466742   
      8. B(H   7,C   5)                  1.0873         0.363655   
      9. B(H   8,C   5)                  1.0907         0.359236   
     10. B(H   9,C   5)                  1.0906         0.359354   
     11. B(H  10,C   6)                  1.0875         0.363440   
     12. B(H  11,C   6)                  1.0905         0.359384   
     13. B(H  12,C   6)                  1.0905         0.359378   
     14. B(C  13,C   3)                  1.4829         0.444212   
     15. B(C  14,C   4)                  1.4796         0.449498   
     16. B(H  15,C  14)                  1.0893         0.360998   
     17. B(H  16,C  14)                  1.0851         0.366685   
     18. B(H  17,C  14)                  1.0893         0.361077   
     19. B(H  18,C  13)                  1.0890         0.361377   
     20. B(H  19,C  13)                  1.0846         0.367356   
     21. B(H  20,C  13)                  1.0888         0.361749   
     22. B(H  21,C   1)                  1.0720         0.384664   
     23. A(C   1,N   0,C   5)          126.3947         0.416471   
     24. A(C   4,N   0,C   5)          125.2214         0.405579   
     25. A(C   1,N   0,C   4)          108.3838         0.435035   
     26. A(N   2,C   1,H  21)          125.2907         0.361513   
     27. A(N   0,C   1,N   2)          109.3622         0.446523   
     28. A(N   0,C   1,H  21)          125.3471         0.361832   
     29. A(C   1,N   2,C   3)          108.4338         0.434399   
     30. A(C   1,N   2,C   6)          125.3109         0.415475   
     31. A(C   3,N   2,C   6)          126.2553         0.404773   
     32. A(C   4,C   3,C  13)          128.9909         0.413811   
     33. A(N   2,C   3,C  13)          124.2046         0.403847   
     34. A(N   2,C   3,C   4)          106.8044         0.433649   
     35. A(N   0,C   4,C  14)          122.7138         0.404904   
     36. A(N   0,C   4,C   3)          107.0157         0.433881   
     37. A(C   3,C   4,C  14)          130.2705         0.414682   
     38. A(H   8,C   5,H   9)          108.4743         0.290635   
     39. A(H   7,C   5,H   9)          109.1489         0.291194   
     40. A(N   0,C   5,H   9)          110.1421         0.334791   
     41. A(H   7,C   5,H   8)          109.1405         0.291179   
     42. A(N   0,C   5,H   8)          110.1506         0.334773   
     43. A(N   0,C   5,H   7)          109.7555         0.335454   
     44. A(H  10,C   6,H  11)          108.8687         0.291171   
     45. A(H  11,C   6,H  12)          108.9910         0.290657   
     46. A(H  10,C   6,H  12)          108.8996         0.291170   
     47. A(N   2,C   6,H  12)          110.3228         0.334334   
     48. A(N   2,C   6,H  11)          110.3203         0.334335   
     49. A(N   2,C   6,H  10)          109.4060         0.334959   
     50. A(H  19,C  13,H  20)          108.4904         0.291963   
     51. A(H  18,C  13,H  20)          107.6807         0.291210   
     52. A(C   3,C  13,H  20)          110.3015         0.333979   
     53. A(H  18,C  13,H  19)          108.4502         0.291915   
     54. A(C   3,C  13,H  19)          111.4880         0.334834   
     55. A(C   3,C  13,H  18)          110.3210         0.333922   
     56. A(H  16,C  14,H  17)          108.6162         0.291793   
     57. A(H  15,C  14,H  17)          107.8600         0.291077   
     58. A(C   4,C  14,H  17)          110.8181         0.334533   
     59. A(H  15,C  14,H  16)          108.5887         0.291783   
     60. A(C   4,C  14,H  16)          110.0771         0.335391   
     61. A(C   4,C  14,H  15)          110.8040         0.334520   
     62. D(N   2,C   1,N   0,C   4)      0.0087         0.040199   
     63. D(H  21,C   1,N   0,C   4)    179.9890         0.040199   
     64. D(N   2,C   1,N   0,C   5)    179.9154         0.040199   
     65. D(H  21,C   1,N   0,C   5)     -0.1043         0.040199   
     66. D(C   6,N   2,C   1,H  21)      0.0352         0.039745   
     67. D(C   6,N   2,C   1,N   0)   -179.9845         0.039745   
     68. D(C   3,N   2,C   1,H  21)   -179.9910         0.039745   
     69. D(C   3,N   2,C   1,N   0)     -0.0107         0.039745   
     70. D(C  13,C   3,N   2,C   6)      0.0869         0.028872   
     71. D(C   4,C   3,N   2,C   6)    179.9819         0.028872   
     72. D(C   4,C   3,N   2,C   1)      0.0083         0.028872   
     73. D(C  13,C   3,N   2,C   1)   -179.8866         0.028872   
     74. D(C  14,C   4,N   0,C   1)    179.9884         0.029056   
     75. D(C   3,C   4,N   0,C   5)   -179.9114         0.029056   
     76. D(C   3,C   4,N   0,C   1)     -0.0034         0.029056   
     77. D(C  14,C   4,C   3,C  13)     -0.1057         0.030634   
     78. D(N   0,C   4,C   3,C  13)    179.8852         0.030634   
     79. D(N   0,C   4,C   3,N   2)     -0.0030         0.030634   
     80. D(C  14,C   4,N   0,C   5)      0.0804         0.029056   
     81. D(C  14,C   4,C   3,N   2)   -179.9939         0.030634   
     82. D(H   9,C   5,N   0,C   4)    -59.2791         0.018926   
     83. D(H   9,C   5,N   0,C   1)    120.8293         0.018926   
     84. D(H   8,C   5,N   0,C   4)     60.3325         0.018926   
     85. D(H   8,C   5,N   0,C   1)   -119.5590         0.018926   
     86. D(H   7,C   5,N   0,C   4)   -179.4759         0.018926   
     87. D(H   7,C   5,N   0,C   1)      0.6326         0.018926   
     88. D(H  11,C   6,N   2,C   3)     59.9141         0.018607   
     89. D(H  11,C   6,N   2,C   1)   -120.1166         0.018607   
     90. D(H  10,C   6,N   2,C   3)    179.6556         0.018607   
     91. D(H  12,C   6,N   2,C   1)    119.4058         0.018607   
     92. D(H  10,C   6,N   2,C   1)     -0.3752         0.018607   
     93. D(H  12,C   6,N   2,C   3)    -60.5634         0.018607   
     94. D(H  20,C  13,C   3,C   4)     57.8546         0.014556   
     95. D(H  20,C  13,C   3,N   2)   -122.2748         0.014556   
     96. D(H  19,C  13,C   3,C   4)    178.4548         0.014556   
     97. D(H  19,C  13,C   3,N   2)     -1.6746         0.014556   
     98. D(H  18,C  13,C   3,C   4)    -60.9825         0.014556   
     99. D(H  18,C  13,C   3,N   2)    118.8881         0.014556   
    100. D(H  17,C  14,C   4,C   3)   -120.2586         0.014901   
    101. D(H  17,C  14,C   4,N   0)     59.7517         0.014901   
    102. D(H  16,C  14,C   4,C   3)     -0.0870         0.014901   
    103. D(H  16,C  14,C   4,N   0)    179.9233         0.014901   
    104. D(H  15,C  14,C   4,C   3)    120.0411         0.014901   
    105. D(H  15,C  14,C   4,N   0)    -59.9486         0.014901   
    -----------------------------------------------------------------

Number of atoms                         .... 22
Number of degrees of freedom            .... 105

         *************************************************************
         *                GEOMETRY OPTIMIZATION CYCLE   1            *
         *************************************************************
---------------------------------
CARTESIAN COORDINATES (ANGSTROEM)
---------------------------------
  N     -1.082036   -0.648899    0.000498
  C      0.002744   -1.418641    0.000282
  N      1.089747   -0.649603    0.000537
  C      0.692272    0.663166    0.000689
  C     -0.681818    0.662192    0.000708
  C     -2.446906   -1.098868   -0.001372
  C      2.447326   -1.127955    0.000097
  H     -2.475571   -2.185773    0.008258
  H     -2.961107   -0.735450   -0.891907
  H     -2.968617   -0.719447    0.877939
  H      2.447254   -2.215424    0.006241
  H      2.975165   -0.770304    0.884831
  H      2.971301   -0.779777   -0.890697
  C      1.624464    1.816371   -0.001443
  C     -1.639051    1.790479    0.000729
  H     -2.278093    1.755713   -0.880770
  H     -1.102898    2.733828    0.002275
  H     -2.280707    1.753764    0.880173
  H      1.476949    2.420273   -0.895613
  H      2.658766    1.491197    0.026355
  H      1.439423    2.453285    0.861974
  H      0.002524   -2.490679    0.000254

----------------------------
CARTESIAN COORDINATES (A.U.)
----------------------------
  NO LB      ZA    FRAG     MASS         X           Y           Z
   0 N     7.0000    0    14.007   -2.044752   -1.226240    0.000942
   1 C     6.0000    0    12.011    0.005186   -2.680844    0.000533
   2 N     7.0000    0    14.007    2.059322   -1.227571    0.001014
   3 C     6.0000    0    12.011    1.308204    1.253203    0.001303
   4 C     6.0000    0    12.011   -1.288449    1.251362    0.001339
   5 C     6.0000    0    12.011   -4.623983   -2.076559   -0.002593
   6 C     6.0000    0    12.011    4.624777   -2.131525    0.000183
   7 H     1.0000    0     1.008   -4.678151   -4.130512    0.015606
   8 H     1.0000    0     1.008   -5.595681   -1.389799   -1.685460
   9 H     1.0000    0     1.008   -5.609873   -1.359558    1.659064
  10 H     1.0000    0     1.008    4.624640   -4.186545    0.011793
  11 H     1.0000    0     1.008    5.622247   -1.455663    1.672088
  12 H     1.0000    0     1.008    5.614944   -1.473566   -1.683174
  13 C     6.0000    0    12.011    3.069792    3.432443   -0.002727
  14 C     6.0000    0    12.011   -3.097358    3.383516    0.001377
  15 H     1.0000    0     1.008   -4.304972    3.317818   -1.664414
  16 H     1.0000    0     1.008   -2.084175    5.166187    0.004299
  17 H     1.0000    0     1.008   -4.309911    3.314133    1.663287
  18 H     1.0000    0     1.008    2.791029    4.573654   -1.692464
  19 H     1.0000    0     1.008    5.024339    2.817953    0.049803
  20 H     1.0000    0     1.008    2.720116    4.636038    1.628894
  21 H     1.0000    0     1.008    0.004769   -4.706701    0.000481

--------------------------------
INTERNAL COORDINATES (ANGSTROEM)
--------------------------------
 N      0   0   0     0.000000000000     0.00000000     0.00000000
 C      1   0   0     1.330132404836     0.00000000     0.00000000
 N      2   1   0     1.331538452840   109.36221705     0.00000000
 C      3   2   1     1.371622787085   108.43382696     0.00000000
 C      1   2   3     1.370814925229   108.38380215     0.00000000
 C      1   2   3     1.437131751385   126.39472670   179.91536005
 C      3   2   1     1.439390216785   125.31088876   180.01547569
 H      6   1   2     1.087325615138   109.75545149     0.63258506
 H      6   1   2     1.090654181991   110.15057198   240.44099363
 H      6   1   2     1.090564363964   110.14213234   120.82933488
 H      7   3   2     1.087486736284   109.40600534   359.62481888
 H      7   3   2     1.090541657860   110.32026241   239.88336111
 H      7   3   2     1.090546144327   110.32275469   119.40582418
 C      4   3   2     1.482857691717   124.20456874   180.11340274
 C      5   1   2     1.479637430565   122.71377907   179.98837754
 H     15   5   1     1.089322064385   110.80404293   300.05143403
 H     15   5   1     1.085066967266   110.07709882   179.92326294
 H     15   5   1     1.089262645151   110.81806647    59.75172358
 H     14   4   3     1.089036049171   110.32103719   118.88805101
 H     14   4   3     1.084569410685   111.48801080   358.32540227
 H     14   4   3     1.088755945125   110.30152883   237.72518174
 H      2   1   3     1.072037373044   125.34712439   179.98029504

---------------------------
INTERNAL COORDINATES (A.U.)
---------------------------
 N      0   0   0     0.000000000000     0.00000000     0.00000000
 C      1   0   0     2.513585966994     0.00000000     0.00000000
 N      2   1   0     2.516243012652   109.36221705     0.00000000
 C      3   2   1     2.591991426636   108.43382696     0.00000000
 C      1   2   3     2.590464788974   108.38380215     0.00000000
 C      1   2   3     2.715785428480   126.39472670   179.91536005
 C      3   2   1     2.720053309569   125.31088876   180.01547569
 H      6   1   2     2.054747631009   109.75545149     0.63258506
 H      6   1   2     2.061037710779   110.15057198   240.44099363
 H      6   1   2     2.060867979305   110.14213234   120.82933488
 H      7   3   2     2.055052105848   109.40600534   359.62481888
 H      7   3   2     2.060825070988   110.32026241   239.88336111
 H      7   3   2     2.060833549182   110.32275469   119.40582418
 C      4   3   2     2.802194932924   124.20456874   180.11340274
 C      5   1   2     2.796109521267   122.71377907   179.98837754
 H     15   5   1     2.058520373326   110.80404293   300.05143403
 H     15   5   1     2.050479405097   110.07709882   179.92326294
 H     15   5   1     2.058408087247   110.81806647    59.75172358
 H     14   4   3     2.057979882901   110.32103719   118.88805101
 H     14   4   3     2.049539159422   111.48801080   358.32540227
 H     14   4   3     2.057450562965   110.30152883   237.72518174
 H      2   1   3     2.025857040381   125.34712439   179.98029504

---------------------
BASIS SET INFORMATION
---------------------
There are 3 groups of distinct atoms

 Group   1 Type N   : 7s4p1d contracted to 3s2p1d pattern {511/31/1}
 Group   2 Type C   : 7s4p1d contracted to 3s2p1d pattern {511/31/1}
 Group   3 Type H   : 4s1p contracted to 2s1p pattern {31/1}

Atom   0N    basis set group =>   1
Atom   1C    basis set group =>   2
Atom   2N    basis set group =>   1
Atom   3C    basis set group =>   2
Atom   4C    basis set group =>   2
Atom   5C    basis set group =>   2
Atom   6C    basis set group =>   2
Atom   7H    basis set group =>   3
Atom   8H    basis set group =>   3
Atom   9H    basis set group =>   3
Atom  10H    basis set group =>   3
Atom  11H    basis set group =>   3
Atom  12H    basis set group =>   3
Atom  13C    basis set group =>   2
Atom  14C    basis set group =>   2
Atom  15H    basis set group =>   3
Atom  16H    basis set group =>   3
Atom  17H    basis set group =>   3
Atom  18H    basis set group =>   3
Atom  19H    basis set group =>   3
Atom  20H    basis set group =>   3
Atom  21H    basis set group =>   3
---------------------------------
AUXILIARY/J BASIS SET INFORMATION
---------------------------------
There are 3 groups of distinct atoms

 Group   1 Type N   : 12s5p4d2f1g contracted to 6s4p3d1f1g pattern {711111/2111/211/2/1}
 Group   2 Type C   : 12s5p4d2f1g contracted to 6s4p3d1f1g pattern {711111/2111/211/2/1}
 Group   3 Type H   : 5s2p1d contracted to 3s1p1d pattern {311/2/1}

Atom   0N    basis set group =>   1
Atom   1C    basis set group =>   2
Atom   2N    basis set group =>   1
Atom   3C    basis set group =>   2
Atom   4C    basis set group =>   2
Atom   5C    basis set group =>   2
Atom   6C    basis set group =>   2
Atom   7H    basis set group =>   3
Atom   8H    basis set group =>   3
Atom   9H    basis set group =>   3
Atom  10H    basis set group =>   3
Atom  11H    basis set group =>   3
Atom  12H    basis set group =>   3
Atom  13C    basis set group =>   2
Atom  14C    basis set group =>   2
Atom  15H    basis set group =>   3
Atom  16H    basis set group =>   3
Atom  17H    basis set group =>   3
Atom  18H    basis set group =>   3
Atom  19H    basis set group =>   3
Atom  20H    basis set group =>   3
Atom  21H    basis set group =>   3
------------------------------------------------------------------------------
                           ORCA GTO INTEGRAL CALCULATION
                           -- RI-GTO INTEGRALS CHOSEN --
------------------------------------------------------------------------------
------------------------------------------------------------------------------
                   ___                                                        
                  /   \      - P O W E R E D   B Y -                         
                 /     \                                                     
                 |  |  |   _    _      __       _____    __    __             
                 |  |  |  | |  | |    /  \     |  _  \  |  |  /  |          
                  \  \/   | |  | |   /    \    | | | |  |  | /  /          
                 / \  \   | |__| |  /  /\  \   | |_| |  |  |/  /          
                |  |  |   |  __  | /  /__\  \  |    /   |      \           
                |  |  |   | |  | | |   __   |  |    \   |  |\   \          
                \     /   | |  | | |  |  |  |  | |\  \  |  | \   \       
                 \___/    |_|  |_| |__|  |__|  |_| \__\ |__|  \__/        
                                                                              
                      - O R C A' S   B I G   F R I E N D -                    
                                      &                                       
                       - I N T E G R A L  F E E D E R -                       
                                                                              
 v1 FN, 2020, v2 2021                                                         
------------------------------------------------------------------------------


Reading SHARK input file 2_prot_aq_2.SHARKINP.tmp ... ok
----------------------
SHARK INTEGRAL PACKAGE
----------------------

Number of atoms                             ...     22
Number of basis functions                   ...    191
Number of shells                            ...     93
Maximum angular momentum                    ...      2
Integral batch strategy                     ... SHARK/LIBINT Hybrid
RI-J (if used) integral strategy            ... SPLIT-RIJ (Revised 2003 algorithm where possible)
Printlevel                                  ...      1
Contraction scheme used                     ... SEGMENTED contraction
Coulomb Range Separation                    ... NOT USED
Exchange Range Separation                   ... Long Range
   Mu parameter                             ...  0.300000
   Scaling (regular/separated)              ...  0.157706  0.842294
Finite Nucleus Model                        ... NOT USED
Auxiliary Coulomb fitting basis             ... AVAILABLE
   # of basis functions in Aux-J            ...    584
   # of shells in Aux-J                     ...    200
   Maximum angular momentum in Aux-J        ...      4
Auxiliary J/K fitting basis                 ... NOT available
Auxiliary Correlation fitting basis         ... NOT available
Auxiliary 'external' fitting basis          ... NOT available
Integral threshold                          ...     2.500000e-11
Primitive cut-off                           ...     2.500000e-12
Primitive pair pre-selection threshold      ...     2.500000e-12

Calculating pre-screening integrals         ... done (  0.0 sec) Dimension = 93
Organizing shell pair data                  ... done (  0.0 sec)
Shell pair information
Total number of shell pairs                 ...      4371
Shell pairs after pre-screening             ...      4060
Total number of primitive shell pairs       ...     15207
Primitive shell pairs kept                  ...     10342
          la=0 lb=0:   1355 shell pairs
          la=1 lb=0:   1514 shell pairs
          la=1 lb=1:    442 shell pairs
          la=2 lb=0:    446 shell pairs
          la=2 lb=1:    261 shell pairs
          la=2 lb=2:     42 shell pairs

Calculating one electron integrals          ... done (  0.0 sec)
Calculating RI/J V-Matrix + Cholesky decomp.... done (  0.1 sec)
Calculating Nuclear repulsion               ... done (  0.0 sec) ENN=    476.935266580843 Eh

SHARK setup successfully completed in   0.3 seconds

Maximum memory used throughout the entire GTOINT-calculation: 27.3 MB
-------------------------------------------------------------------------------
                                 ORCA SCF
-------------------------------------------------------------------------------

------------
SCF SETTINGS
------------
Hamiltonian:
 Density Functional     Method          .... DFT(GTOs)
 Exchange Functional    Exchange        .... WB97X
 Correlation Functional Correlation     .... WB97X
 Gradients option       PostSCFGGA      .... off
 Hybrid DFT is turned on
   Fraction HF Exchange ScalHFX         ....  0.157706
   Scaling of DF-GGA-X  ScalDFX         ....  0.000000
   Scaling of DF-GGA-C  ScalDFC         ....  1.000000
   Scaling of DF-LDA-C  ScalLDAC        ....  1.000000
   Perturbative correction              ....  0.000000
   Density functional embedding theory  .... OFF
 Long-range corrected/Screened/Range-Separated Hybrid DFT is turned on
   Amount of maximum screened exact exchange              ....  0.842294
   Range separation parameter mu (erf(mu*r12)/r12)        ....  0.300000
 RI-approximation to the Coulomb term is turned on
   Number of AuxJ basis functions       .... 584
   RIJ-COSX (HFX calculated with COS-X)).... on


General Settings:
 Integral files         IntName         .... 2_prot_aq_2
 Hartree-Fock type      HFTyp           .... RHF
 Total Charge           Charge          ....    1
 Multiplicity           Mult            ....    1
 Number of Electrons    NEL             ....   68
 Basis Dimension        Dim             ....  191
 Nuclear Repulsion      ENuc            ....    476.9352665808 Eh

Convergence Acceleration:
 DIIS                   CNVDIIS         .... on
   Start iteration      DIISMaxIt       ....     0
   Startup error        DIISStart       ....  0.200000
   # of expansion vecs  DIISMaxEq       ....     5
   Bias factor          DIISBfac        ....   1.050
   Max. coefficient     DIISMaxC        ....  10.000
 Trust-Rad. Augm. Hess. CNVTRAH         .... auto
   Auto Start mean grad. ratio tolernc. ....  1.125000
   Auto Start start iteration           ....    20
   Auto Start num. interpolation iter.  ....    10
   Max. Number of Micro iterations      ....    16
   Max. Number of Macro iterations      .... Maxiter - #DIIS iter
   Number of Davidson start vectors     ....     2
   Converg. threshold I  (grad. norm)   ....   1.000e-05
   Converg. threshold II (energy diff.) ....   1.000e-08
   Grad. Scal. Fac. for Micro threshold ....   0.100
   Minimum threshold for Micro iter.    ....   0.010
   NR start threshold (gradient norm)   ....   0.001
   Initial trust radius                 ....   0.400
   Minimum AH scaling param. (alpha)    ....   1.000
   Maximum AH scaling param. (alpha)    .... 1000.000
   Orbital update algorithm             .... Taylor
   White noise on init. David. guess    .... on
   Maximum white noise                  ....   0.010
   Quad. conv. algorithm                .... NR
 SOSCF                  CNVSOSCF        .... on
   Start iteration      SOSCFMaxIt      ....   150
   Startup grad/error   SOSCFStart      ....  0.001000
 Level Shifting         CNVShift        .... on
   Level shift para.    LevelShift      ....    0.2500
   Turn off err/grad.   ShiftErr        ....    0.0000
 Zerner damping         CNVZerner       .... off
 Static damping         CNVDamp         .... on
   Fraction old density DampFac         ....    0.8500
   Max. Damping (<1)    DampMax         ....    0.9800
   Min. Damping (>=0)   DampMin         ....    0.0000
   Turn off err/grad.   DampErr         ....    0.0300
 Fernandez-Rico         CNVRico         .... off

SCF Procedure:
 Maximum # iterations   MaxIter         ....   125
 SCF integral mode      SCFMode         .... Direct
   Integral package                     .... SHARK and LIBINT hybrid scheme
 Reset frequency        DirectResetFreq ....    20
 Integral Threshold     Thresh          ....  2.500e-11 Eh
 Primitive CutOff       TCut            ....  2.500e-12 Eh

Convergence Tolerance:
 Convergence Check Mode ConvCheckMode   .... Total+1el-Energy
 Convergence forced     ConvForced      .... 0
 Energy Change          TolE            ....  1.000e-08 Eh
 1-El. energy change                    ....  1.000e-05 Eh
 Orbital Gradient       TolG            ....  1.000e-05
 Orbital Rotation angle TolX            ....  1.000e-05
 DIIS Error             TolErr          ....  5.000e-07


Diagonalization of the overlap matrix:
Smallest eigenvalue                        ... 9.616e-04
Time for diagonalization                   ...    0.007 sec
Threshold for overlap eigenvalues          ... 1.000e-08
Number of eigenvalues below threshold      ... 0
Time for construction of square roots      ...    0.017 sec
Total time needed                          ...    0.025 sec

Time for model grid setup =    0.321 sec

------------------------------
INITIAL GUESS: MODEL POTENTIAL
------------------------------
Loading Hartree-Fock densities                     ... done
Calculating cut-offs                               ... done
Initializing the effective Hamiltonian             ... done
Setting up the integral package (SHARK)            ... done
Starting the Coulomb interaction                   ... done (   0.3 sec)
Reading the grid                                   ... done
Mapping shells                                     ... done
Starting the XC term evaluation                    ... done (   0.4 sec)
  promolecular density results
     # of electrons  =     68.995231450
     EX              =    -52.844520436
     EC              =     -2.293037852
     EX+EC           =    -55.137558288
Transforming the Hamiltonian                       ... done (   0.0 sec)
Diagonalizing the Hamiltonian                      ... done (   0.0 sec)
Back transforming the eigenvectors                 ... done (   0.0 sec)
Now organizing SCF variables                       ... done
                      ------------------
                      INITIAL GUESS DONE (   1.0 sec)
                      ------------------
-------------------
DFT GRID GENERATION
-------------------

General Integration Accuracy     IntAcc      ... 4.388
Radial Grid Type                 RadialGrid  ... OptM3 with GC (2021)
Angular Grid (max. ang.)         AngularGrid ... 4 (Lebedev-302)
Angular grid pruning method      GridPruning ... 4 (adaptive)
Weight generation scheme         WeightScheme... Becke
Basis function cutoff            BFCut       ... 1.0000e-11
Integration weight cutoff        WCut        ... 1.0000e-14
Angular grids for H and He will be reduced by one unit
Partially contracted basis set               ... off
Rotationally invariant grid construction     ... off

Total number of grid points                  ...    95611
Total number of batches                      ...     1505
Average number of points per batch           ...       63
Average number of grid points per atom       ...     4346
Time for grid setup =    1.199 sec

--------------------
COSX GRID GENERATION
--------------------

GRIDX 1
-------
General Integration Accuracy     IntAcc      ... 3.816
Radial Grid Type                 RadialGrid  ... OptM3 with GC (2021)
Angular Grid (max. ang.)         AngularGrid ... 1 (Lebedev-50)
Angular grid pruning method      GridPruning ... 4 (adaptive)
Weight generation scheme         WeightScheme... Becke
Basis function cutoff            BFCut       ... 1.0000e-11
Integration weight cutoff        WCut        ... 1.0000e-14
Angular grids for H and He will be reduced by one unit
Partially contracted basis set               ... on
Rotationally invariant grid construction     ... off

Total number of grid points                  ...    12240
Total number of batches                      ...      204
Average number of points per batch           ...       60
Average number of grid points per atom       ...      556
UseSFitting                                  ... on

GRIDX 2
-------
General Integration Accuracy     IntAcc      ... 4.020
Radial Grid Type                 RadialGrid  ... OptM3 with GC (2021)
Angular Grid (max. ang.)         AngularGrid ... 2 (Lebedev-110)
Angular grid pruning method      GridPruning ... 4 (adaptive)
Weight generation scheme         WeightScheme... Becke
Basis function cutoff            BFCut       ... 1.0000e-11
Integration weight cutoff        WCut        ... 1.0000e-14
Angular grids for H and He will be reduced by one unit
Partially contracted basis set               ... on
Rotationally invariant grid construction     ... off

Total number of grid points                  ...    25766
Total number of batches                      ...      415
Average number of points per batch           ...       62
Average number of grid points per atom       ...     1171
UseSFitting                                  ... on

GRIDX 3
-------
General Integration Accuracy     IntAcc      ... 4.338
Radial Grid Type                 RadialGrid  ... OptM3 with GC (2021)
Angular Grid (max. ang.)         AngularGrid ... 3 (Lebedev-194)
Angular grid pruning method      GridPruning ... 4 (adaptive)
Weight generation scheme         WeightScheme... Becke
Basis function cutoff            BFCut       ... 1.0000e-11
Integration weight cutoff        WCut        ... 1.0000e-14
Angular grids for H and He will be reduced by one unit
Partially contracted basis set               ... on
Rotationally invariant grid construction     ... off

Total number of grid points                  ...    56292
Total number of batches                      ...      891
Average number of points per batch           ...       63
Average number of grid points per atom       ...     2559
UseSFitting                                  ... on

Time for X-Grid setup             =    1.542 sec


--------------------
CPCM SOLVATION MODEL
--------------------
CPCM parameters:
  Epsilon                                         ...      80.4000
  Refrac                                          ...       1.3300
  Rsolv                                           ...       1.3000
  Surface type                                    ... GAUSSIAN VDW
  Epsilon function type                           ...         CPCM
Radii:
 Radius for N  used is    3.5149 Bohr (=   1.8600 Ang.)
 Radius for C  used is    3.8550 Bohr (=   2.0400 Ang.)
 Radius for H  used is    2.4944 Bohr (=   1.3200 Ang.)
Calculating surface                               ...        done! (  0.0s)
GEPOL surface points                              ...         1200
GEPOL Volume                                      ...    1160.2043
GEPOL Surface-area                                ...     659.0436
Calculating surface distance matrix               ...        done! (  0.0s)
Performing Cholesky decomposition & store         ...        done! (  0.0s)
Overall time for CPCM initialization              ...                 0.1s
--------------
SCF ITERATIONS
--------------
ITER       Energy         Delta-E        Max-DP      RMS-DP      [F,P]     Damp
               ***  Starting incremental Fock matrix formation  ***
  0   -383.4409007556   0.000000000000 0.03148881  0.00070621  0.1485830 0.8500
  1   -383.4692659617  -0.028365206056 0.02838387  0.00065231  0.1199003 0.8500
                               ***Turning on DIIS***
  2   -383.4909947842  -0.021728822471 0.02230795  0.00053297  0.0922920 0.8500
  3   -383.5072881814  -0.016293397203 0.01414031  0.00038962  0.0701833 0.8500
  4   -383.5199283401  -0.012640158725 0.00957041  0.00030439  0.0559917 0.8500
  5   -383.5299171519  -0.009988811765 0.00733641  0.00025232  0.0463963 0.8500
  6   -383.5380462686  -0.008129116732 0.00599383  0.00021382  0.0390931 0.8500
  7   -383.5447752122  -0.006728943646 0.00515715  0.00018406  0.0331474 0.8500
  8   -383.5504023269  -0.005627114709 0.02943161  0.00105434  0.0280374 0.0000
  9   -383.5806261231  -0.030223796182 0.00126073  0.00003091  0.0011906 0.0000
                      *** Initiating the SOSCF procedure ***
                           *** Shutting down DIIS ***
                      *** Re-Reading the Fockian *** 
                      *** Removing any level shift *** 
ITER      Energy       Delta-E        Grad      Rot      Max-DP    RMS-DP
 10   -383.58063748  -0.0000113542  0.000149  0.000149  0.000360  0.000012
               *** Restarting incremental Fock matrix formation ***
 11   -383.58073329  -0.0000958124  0.000086  0.000138  0.000357  0.000014
 12   -383.58073359  -0.0000002969  0.000047  0.000132  0.000172  0.000007
 13   -383.58073362  -0.0000000297  0.000022  0.000023  0.000060  0.000002
 14   -383.58073363  -0.0000000183  0.000003  0.000005  0.000011  0.000000
                  ***Gradient check signals convergence***
              ***Rediagonalizing the Fockian in SOSCF/NRSCF***

               *****************************************************
               *                     SUCCESS                       *
               *           SCF CONVERGED AFTER  15 CYCLES          *
               *****************************************************

Old exchange energy                            =    -17.462216838 Eh
New exchange energy                            =    -17.462190964 Eh
Exchange energy change after final integration =      0.000025875 Eh
Total energy after final integration           =   -383.580707764 Eh
Final COS-X integration done in                =    35.794 sec

----------------
TOTAL SCF ENERGY
----------------

Total Energy       :         -383.58070776 Eh          -10437.76170 eV

Components:
Nuclear Repulsion  :          476.93526658 Eh           12978.06840 eV
Electronic Energy  :         -860.51597435 Eh          -23415.83010 eV
One Electron Energy:        -1448.92934733 Eh          -39427.37199 eV
Two Electron Energy:          588.41337298 Eh           16011.54189 eV
Max COSX asymmetry :            0.00000148 Eh               0.00004 eV
CPCM Dielectric    :           -0.07916771 Eh              -2.15426 eV

Virial components:
Potential Energy   :         -762.80430405 Eh          -20756.96038 eV
Kinetic Energy     :          379.22359628 Eh           10319.19867 eV
Virial Ratio       :            2.01148956


DFT components:
N(Alpha)           :       34.000053149519 electrons
N(Beta)            :       34.000053149519 electrons
N(Total)           :       68.000106299037 electrons
E(XC)              :      -38.882245870795 Eh       
DFET-embed. en.    :        0.000000000000 Eh       
CPCM Solvation Model Properties:
Surface-charge          :           -1.01560954
Charge-correction       :            0.00226190 Eh               0.06155 eV
Free-energy (cav+disp)  :  This term is not implemented in the current solvation scheme

---------------
SCF CONVERGENCE
---------------

  Last Energy change         ...   -4.2753e-09  Tolerance :   1.0000e-08
  Last MAX-Density change    ...    5.3291e-15  Tolerance :   1.0000e-07
  Last RMS-Density change    ...    4.4891e-17  Tolerance :   5.0000e-09
  Last Orbital Gradient      ...    2.4973e-06  Tolerance :   1.0000e-05
  Last Orbital Rotation      ...    4.9738e-06  Tolerance :   1.0000e-05

             **** THE GBW FILE WAS UPDATED (2_prot_aq_2.gbw) ****
             **** DENSITY 2_prot_aq_2.scfp WAS UPDATED ****
             **** ENERGY FILE WAS UPDATED (2_prot_aq_2.en.tmp) ****
             **** THE GBW FILE WAS UPDATED (2_prot_aq_2.gbw) ****
             **** DENSITY 2_prot_aq_2.scfp WAS UPDATED ****
----------------
ORBITAL ENERGIES
----------------

  NO   OCC          E(Eh)            E(eV) 
   0   2.0000     -14.508556      -394.7979 
   1   2.0000     -14.507887      -394.7797 
   2   2.0000     -10.375159      -282.3224 
   3   2.0000     -10.329514      -281.0804 
   4   2.0000     -10.328050      -281.0405 
   5   2.0000     -10.322771      -280.8969 
   6   2.0000     -10.322699      -280.8949 
   7   2.0000     -10.282551      -279.8024 
   8   2.0000     -10.281985      -279.7870 
   9   2.0000      -1.215282       -33.0695 
  10   2.0000      -1.098477       -29.8911 
  11   2.0000      -0.956070       -26.0160 
  12   2.0000      -0.916570       -24.9411 
  13   2.0000      -0.879641       -23.9363 
  14   2.0000      -0.828899       -22.5555 
  15   2.0000      -0.827649       -22.5215 
  16   2.0000      -0.736709       -20.0469 
  17   2.0000      -0.725183       -19.7332 
  18   2.0000      -0.665263       -18.1027 
  19   2.0000      -0.645460       -17.5639 
  20   2.0000      -0.607642       -16.5348 
  21   2.0000      -0.599789       -16.3211 
  22   2.0000      -0.584405       -15.9025 
  23   2.0000      -0.556404       -15.1405 
  24   2.0000      -0.543152       -14.7799 
  25   2.0000      -0.538170       -14.6444 
  26   2.0000      -0.529952       -14.4207 
  27   2.0000      -0.524587       -14.2747 
  28   2.0000      -0.511979       -13.9316 
  29   2.0000      -0.508316       -13.8320 
  30   2.0000      -0.505476       -13.7547 
  31   2.0000      -0.496437       -13.5087 
  32   2.0000      -0.410848       -11.1797 
  33   2.0000      -0.344743        -9.3809 
  34   0.0000       0.067157         1.8274 
  35   0.0000       0.102880         2.7995 
  36   0.0000       0.140251         3.8164 
  37   0.0000       0.157894         4.2965 
  38   0.0000       0.169272         4.6061 
  39   0.0000       0.190079         5.1723 
  40   0.0000       0.199070         5.4170 
  41   0.0000       0.199111         5.4181 
  42   0.0000       0.209843         5.7101 
  43   0.0000       0.227766         6.1978 
  44   0.0000       0.233508         6.3541 
  45   0.0000       0.239918         6.5285 
  46   0.0000       0.242263         6.5923 
  47   0.0000       0.244772         6.6606 
  48   0.0000       0.260820         7.0973 
  49   0.0000       0.261984         7.1289 
  50   0.0000       0.286548         7.7974 
  51   0.0000       0.301006         8.1908 
  52   0.0000       0.313426         8.5288 
  53   0.0000       0.338304         9.2057 
  54   0.0000       0.354318         9.6415 
  55   0.0000       0.359541         9.7836 
  56   0.0000       0.430890        11.7251 
  57   0.0000       0.451714        12.2918 
  58   0.0000       0.462274        12.5791 
  59   0.0000       0.462556        12.5868 
  60   0.0000       0.473488        12.8843 
  61   0.0000       0.498893        13.5756 
  62   0.0000       0.525207        14.2916 
  63   0.0000       0.544262        14.8101 
  64   0.0000       0.548595        14.9280 
  65   0.0000       0.568517        15.4701 
  66   0.0000       0.593936        16.1618 
  67   0.0000       0.602332        16.3903 
  68   0.0000       0.625607        17.0236 
  69   0.0000       0.640815        17.4375 
  70   0.0000       0.664989        18.0953 
  71   0.0000       0.694575        18.9003 
  72   0.0000       0.699019        19.0213 
  73   0.0000       0.713043        19.4029 
  74   0.0000       0.726874        19.7792 
  75   0.0000       0.733183        19.9509 
  76   0.0000       0.733985        19.9728 
  77   0.0000       0.742749        20.2112 
  78   0.0000       0.757071        20.6009 
  79   0.0000       0.762295        20.7431 
  80   0.0000       0.765424        20.8282 
  81   0.0000       0.772674        21.0255 
  82   0.0000       0.774731        21.0815 
  83   0.0000       0.778385        21.1809 
  84   0.0000       0.790985        21.5238 
  85   0.0000       0.795639        21.6505 
  86   0.0000       0.803215        21.8566 
  87   0.0000       0.820583        22.3292 
  88   0.0000       0.821647        22.3582 
  89   0.0000       0.825540        22.4641 
  90   0.0000       0.831346        22.6221 
  91   0.0000       0.850905        23.1543 
  92   0.0000       0.905442        24.6383 
  93   0.0000       0.921937        25.0872 
  94   0.0000       0.948574        25.8120 
  95   0.0000       0.987593        26.8738 
  96   0.0000       1.007427        27.4135 
  97   0.0000       1.031924        28.0801 
  98   0.0000       1.085306        29.5327 
  99   0.0000       1.101876        29.9836 
 100   0.0000       1.183567        32.2065 
 101   0.0000       1.210833        32.9484 
 102   0.0000       1.227068        33.3902 
 103   0.0000       1.251857        34.0648 
 104   0.0000       1.282010        34.8853 
 105   0.0000       1.283489        34.9255 
 106   0.0000       1.293711        35.2037 
 107   0.0000       1.300390        35.3854 
 108   0.0000       1.350772        36.7564 
 109   0.0000       1.397426        38.0259 
 110   0.0000       1.424537        38.7636 
 111   0.0000       1.512097        41.1462 
 112   0.0000       1.527598        41.5681 
 113   0.0000       1.597462        43.4691 
 114   0.0000       1.612764        43.8855 
 115   0.0000       1.619805        44.0771 
 116   0.0000       1.624649        44.2089 
 117   0.0000       1.627377        44.2832 
 118   0.0000       1.640342        44.6360 
 119   0.0000       1.646373        44.8001 
 120   0.0000       1.655463        45.0474 
 121   0.0000       1.660094        45.1735 
 122   0.0000       1.713333        46.6222 
 123   0.0000       1.766564        48.0706 
 124   0.0000       1.809432        49.2371 
 125   0.0000       1.835971        49.9593 
 126   0.0000       1.837814        50.0095 
 127   0.0000       1.841668        50.1143 
 128   0.0000       1.875305        51.0297 
 129   0.0000       1.876009        51.0488 
 130   0.0000       1.884722        51.2859 
 131   0.0000       1.889415        51.4136 
 132   0.0000       1.901346        51.7383 
 133   0.0000       1.910326        51.9826 
 134   0.0000       1.927117        52.4395 
 135   0.0000       1.954019        53.1716 
 136   0.0000       1.963987        53.4428 
 137   0.0000       1.982851        53.9561 
 138   0.0000       1.994518        54.2736 
 139   0.0000       1.995255        54.2936 
 140   0.0000       2.004849        54.5547 
 141   0.0000       2.034188        55.3531 
 142   0.0000       2.041923        55.5636 
 143   0.0000       2.085847        56.7588 
 144   0.0000       2.133554        58.0570 
 145   0.0000       2.137119        58.1540 
 146   0.0000       2.144832        58.3639 
 147   0.0000       2.182379        59.3855 
 148   0.0000       2.200050        59.8664 
 149   0.0000       2.217481        60.3407 
 150   0.0000       2.227810        60.6218 
 151   0.0000       2.260370        61.5078 
 152   0.0000       2.298139        62.5355 
 153   0.0000       2.352110        64.0042 
 154   0.0000       2.355023        64.0834 
 155   0.0000       2.391684        65.0810 
 156   0.0000       2.407582        65.5136 
 157   0.0000       2.430793        66.1452 
 158   0.0000       2.488654        67.7197 
 159   0.0000       2.513099        68.3849 
 160   0.0000       2.514241        68.4160 
 161   0.0000       2.538399        69.0734 
 162   0.0000       2.556475        69.5652 
 163   0.0000       2.561200        69.6938 
 164   0.0000       2.609883        71.0185 
 165   0.0000       2.622279        71.3558 
 166   0.0000       2.660917        72.4072 
 167   0.0000       2.667507        72.5866 
 168   0.0000       2.724533        74.1383 
 169   0.0000       2.790770        75.9407 
 170   0.0000       2.799736        76.1847 
 171   0.0000       2.847418        77.4822 
 172   0.0000       2.857120        77.7462 
 173   0.0000       2.882123        78.4266 
 174   0.0000       2.889034        78.6146 
 175   0.0000       2.891296        78.6762 
 176   0.0000       2.906843        79.0992 
 177   0.0000       2.942331        80.0649 
 178   0.0000       2.997827        81.5750 
 179   0.0000       3.018617        82.1407 
 180   0.0000       3.053013        83.0767 
 181   0.0000       3.056515        83.1720 
 182   0.0000       3.063878        83.3724 
 183   0.0000       3.065506        83.4167 
 184   0.0000       3.089273        84.0634 
 185   0.0000       3.137042        85.3633 
 186   0.0000       3.151853        85.7663 
 187   0.0000       3.302163        89.8564 
 188   0.0000       3.433428        93.4283 
 189   0.0000       3.521845        95.8343 
 190   0.0000       3.587520        97.6214 

                    ********************************
                    * MULLIKEN POPULATION ANALYSIS *
                    ********************************

-----------------------
MULLIKEN ATOMIC CHARGES
-----------------------
   0 N :   -0.200626
   1 C :    0.211424
   2 N :   -0.202648
   3 C :   -0.096555
   4 C :   -0.105085
   5 C :    0.086910
   6 C :    0.076047
   7 H :    0.089660
   8 H :    0.087675
   9 H :    0.087426
  10 H :    0.087645
  11 H :    0.093886
  12 H :    0.093445
  13 C :    0.080116
  14 C :    0.103407
  15 H :    0.067839
  16 H :    0.052400
  17 H :    0.067897
  18 H :    0.073652
  19 H :    0.051384
  20 H :    0.073260
  21 H :    0.120840
Sum of atomic charges:    1.0000000

--------------------------------
MULLIKEN REDUCED ORBITAL CHARGES
--------------------------------
  0 N s       :     3.391678  s :     3.391678
      pz      :     1.467736  p :     3.774832
      px      :     1.149959
      py      :     1.157137
      dz2     :     0.002374  d :     0.034116
      dxz     :     0.006016
      dyz     :     0.006783
      dx2y2   :     0.008402
      dxy     :     0.010542
  1 C s       :     3.083541  s :     3.083541
      pz      :     0.955341  p :     2.637370
      px      :     0.773077
      py      :     0.908952
      dz2     :     0.005142  d :     0.067665
      dxz     :     0.016845
      dyz     :     0.006384
      dx2y2   :     0.016769
      dxy     :     0.022525
  2 N s       :     3.392985  s :     3.392985
      pz      :     1.471413  p :     3.775597
      px      :     1.148490
      py      :     1.155694
      dz2     :     0.002378  d :     0.034067
      dxz     :     0.005928
      dyz     :     0.006856
      dx2y2   :     0.008381
      dxy     :     0.010524
  3 C s       :     3.088796  s :     3.088796
      pz      :     1.049306  p :     2.949344
      px      :     1.024685
      py      :     0.875353
      dz2     :     0.004472  d :     0.058415
      dxz     :     0.008884
      dyz     :     0.011054
      dx2y2   :     0.020433
      dxy     :     0.013571
  4 C s       :     3.092478  s :     3.092478
      pz      :     1.045809  p :     2.953940
      px      :     1.003668
      py      :     0.904463
      dz2     :     0.004530  d :     0.058667
      dxz     :     0.009868
      dyz     :     0.010104
      dx2y2   :     0.020324
      dxy     :     0.013842
  5 C s       :     2.992912  s :     2.992912
      pz      :     1.071645  p :     2.882429
      px      :     0.763777
      py      :     1.047008
      dz2     :     0.007258  d :     0.037749
      dxz     :     0.009566
      dyz     :     0.003114
      dx2y2   :     0.011420
      dxy     :     0.006390
  6 C s       :     3.006074  s :     3.006074
      pz      :     1.069284  p :     2.880162
      px      :     0.768130
      py      :     1.042749
      dz2     :     0.007358  d :     0.037717
      dxz     :     0.009691
      dyz     :     0.002911
      dx2y2   :     0.011084
      dxy     :     0.006672
  7 H s       :     0.886166  s :     0.886166
      pz      :     0.005016  p :     0.024175
      px      :     0.002581
      py      :     0.016578
  8 H s       :     0.888305  s :     0.888305
      pz      :     0.012805  p :     0.024020
      px      :     0.005475
      py      :     0.005741
  9 H s       :     0.888540  s :     0.888540
      pz      :     0.012622  p :     0.024034
      px      :     0.005566
      py      :     0.005845
 10 H s       :     0.888108  s :     0.888108
      pz      :     0.005054  p :     0.024248
      px      :     0.002595
      py      :     0.016599
 11 H s       :     0.882194  s :     0.882194
      pz      :     0.012577  p :     0.023920
      px      :     0.005650
      py      :     0.005693
 12 H s       :     0.882650  s :     0.882650
      pz      :     0.012678  p :     0.023905
      px      :     0.005605
      py      :     0.005622
 13 C s       :     2.898667  s :     2.898667
      pz      :     1.049919  p :     2.994596
      px      :     0.977927
      py      :     0.966751
      dz2     :     0.005440  d :     0.026621
      dxz     :     0.001944
      dyz     :     0.008107
      dx2y2   :     0.004158
      dxy     :     0.006971
 14 C s       :     2.877575  s :     2.877575
      pz      :     1.043981  p :     2.992131
      px      :     0.979204
      py      :     0.968946
      dz2     :     0.005415  d :     0.026887
      dxz     :     0.008381
      dyz     :     0.001980
      dx2y2   :     0.002956
      dxy     :     0.008155
 15 H s       :     0.907045  s :     0.907045
      pz      :     0.012313  p :     0.025116
      px      :     0.008512
      py      :     0.004291
 16 H s       :     0.922538  s :     0.922538
      pz      :     0.004976  p :     0.025062
      px      :     0.006994
      py      :     0.013091
 17 H s       :     0.906985  s :     0.906985
      pz      :     0.012285  p :     0.025118
      px      :     0.008544
      py      :     0.004289
 18 H s       :     0.901223  s :     0.901223
      pz      :     0.012453  p :     0.025125
      px      :     0.004783
      py      :     0.007889
 19 H s       :     0.923314  s :     0.923314
      pz      :     0.005139  p :     0.025302
      px      :     0.015038
      py      :     0.005125
 20 H s       :     0.901614  s :     0.901614
      pz      :     0.011979  p :     0.025126
      px      :     0.004874
      py      :     0.008273
 21 H s       :     0.854172  s :     0.854172
      pz      :     0.004617  p :     0.024988
      px      :     0.001291
      py      :     0.019080


                     *******************************
                     * LOEWDIN POPULATION ANALYSIS *
                     *******************************

----------------------
LOEWDIN ATOMIC CHARGES
----------------------
   0 N :    0.101497
   1 C :    0.118694
   2 N :    0.099957
   3 C :   -0.008344
   4 C :   -0.007641
   5 C :    0.052413
   6 C :    0.050957
   7 H :    0.054396
   8 H :    0.050927
   9 H :    0.050906
  10 H :    0.054330
  11 H :    0.050911
  12 H :    0.050890
  13 C :   -0.047142
  14 C :   -0.045501
  15 H :    0.051972
  16 H :    0.052033
  17 H :    0.051914
  18 H :    0.054196
  19 H :    0.047658
  20 H :    0.054162
  21 H :    0.060813

-------------------------------
LOEWDIN REDUCED ORBITAL CHARGES
-------------------------------
  0 N s       :     3.036717  s :     3.036717
      pz      :     1.396128  p :     3.783308
      px      :     1.186173
      py      :     1.201007
      dz2     :     0.004480  d :     0.078478
      dxz     :     0.009790
      dyz     :     0.013203
      dx2y2   :     0.023005
      dxy     :     0.028000
  1 C s       :     2.831819  s :     2.831819
      pz      :     0.974640  p :     2.891730
      px      :     0.895215
      py      :     1.021875
      dz2     :     0.011042  d :     0.157757
      dxz     :     0.034997
      dyz     :     0.010090
      dx2y2   :     0.042045
      dxy     :     0.059584
  2 N s       :     3.038068  s :     3.038068
      pz      :     1.398457  p :     3.783728
      px      :     1.186498
      py      :     1.198773
      dz2     :     0.004473  d :     0.078248
      dxz     :     0.009616
      dyz     :     0.013371
      dx2y2   :     0.022764
      dxy     :     0.028025
  3 C s       :     2.835683  s :     2.835683
      pz      :     1.034918  p :     3.033434
      px      :     1.054092
      py      :     0.944425
      dz2     :     0.009679  d :     0.139227
      dxz     :     0.017683
      dyz     :     0.020530
      dx2y2   :     0.054427
      dxy     :     0.036908
  4 C s       :     2.835142  s :     2.835142
      pz      :     1.033666  p :     3.032437
      px      :     1.055599
      py      :     0.943172
      dz2     :     0.009816  d :     0.140062
      dxz     :     0.018824
      dyz     :     0.019444
      dx2y2   :     0.054417
      dxy     :     0.037560
  5 C s       :     2.819003  s :     2.819003
      pz      :     1.098377  p :     3.033530
      px      :     0.862732
      py      :     1.072420
      dz2     :     0.018020  d :     0.095053
      dxz     :     0.025590
      dyz     :     0.006898
      dx2y2   :     0.029221
      dxy     :     0.015325
  6 C s       :     2.820123  s :     2.820123
      pz      :     1.098196  p :     3.034085
      px      :     0.866165
      py      :     1.069724
      dz2     :     0.018164  d :     0.094835
      dxz     :     0.025941
      dyz     :     0.006418
      dx2y2   :     0.028410
      dxy     :     0.015902
  7 H s       :     0.877855  s :     0.877855
      pz      :     0.013602  p :     0.067749
      px      :     0.008689
      py      :     0.045459
  8 H s       :     0.881832  s :     0.881832
      pz      :     0.034568  p :     0.067240
      px      :     0.016765
      py      :     0.015907
  9 H s       :     0.881827  s :     0.881827
      pz      :     0.034063  p :     0.067267
      px      :     0.016994
      py      :     0.016210
 10 H s       :     0.877949  s :     0.877949
      pz      :     0.013609  p :     0.067721
      px      :     0.008675
      py      :     0.045438
 11 H s       :     0.881778  s :     0.881778
      pz      :     0.034368  p :     0.067311
      px      :     0.017205
      py      :     0.015738
 12 H s       :     0.881824  s :     0.881824
      pz      :     0.034641  p :     0.067285
      px      :     0.017087
      py      :     0.015557
 13 C s       :     2.810683  s :     2.810683
      pz      :     1.084606  p :     3.164130
      px      :     1.045844
      py      :     1.033680
      dz2     :     0.014527  d :     0.072328
      dxz     :     0.003883
      dyz     :     0.022156
      dx2y2   :     0.012238
      dxy     :     0.019524
 14 C s       :     2.810322  s :     2.810322
      pz      :     1.079956  p :     3.162269
      px      :     1.044797
      py      :     1.037516
      dz2     :     0.014627  d :     0.072909
      dxz     :     0.022755
      dyz     :     0.003938
      dx2y2   :     0.008628
      dxy     :     0.022962
 15 H s       :     0.879890  s :     0.879890
      pz      :     0.032548  p :     0.068138
      px      :     0.022826
      py      :     0.012764
 16 H s       :     0.879666  s :     0.879666
      pz      :     0.013414  p :     0.068301
      px      :     0.019506
      py      :     0.035380
 17 H s       :     0.879938  s :     0.879938
      pz      :     0.032467  p :     0.068148
      px      :     0.022917
      py      :     0.012763
 18 H s       :     0.877894  s :     0.877894
      pz      :     0.033106  p :     0.067910
      px      :     0.013281
      py      :     0.021524
 19 H s       :     0.883031  s :     0.883031
      pz      :     0.013883  p :     0.069311
      px      :     0.040418
      py      :     0.015009
 20 H s       :     0.877883  s :     0.877883
      pz      :     0.031814  p :     0.067954
      px      :     0.013579
      py      :     0.022561
 21 H s       :     0.862621  s :     0.862621
      pz      :     0.015713  p :     0.076566
      px      :     0.007216
      py      :     0.053636


                      *****************************
                      * MAYER POPULATION ANALYSIS *
                      *****************************

  NA   - Mulliken gross atomic population
  ZA   - Total nuclear charge
  QA   - Mulliken gross atomic charge
  VA   - Mayer's total valence
  BVA  - Mayer's bonded valence
  FA   - Mayer's free valence

  ATOM       NA         ZA         QA         VA         BVA        FA
  0 N      7.2006     7.0000    -0.2006     3.5280     3.5280    -0.0000
  1 C      5.7886     6.0000     0.2114     3.8617     3.8617    -0.0000
  2 N      7.2026     7.0000    -0.2026     3.5243     3.5243     0.0000
  3 C      6.0966     6.0000    -0.0966     4.0365     4.0365    -0.0000
  4 C      6.1051     6.0000    -0.1051     4.0635     4.0635    -0.0000
  5 C      5.9131     6.0000     0.0869     3.8733     3.8733    -0.0000
  6 C      5.9240     6.0000     0.0760     3.8741     3.8741    -0.0000
  7 H      0.9103     1.0000     0.0897     0.9970     0.9970    -0.0000
  8 H      0.9123     1.0000     0.0877     0.9926     0.9926    -0.0000
  9 H      0.9126     1.0000     0.0874     0.9928     0.9928    -0.0000
 10 H      0.9124     1.0000     0.0876     0.9981     0.9981    -0.0000
 11 H      0.9061     1.0000     0.0939     0.9884     0.9884    -0.0000
 12 H      0.9066     1.0000     0.0934     0.9885     0.9885     0.0000
 13 C      5.9199     6.0000     0.0801     3.9498     3.9498     0.0000
 14 C      5.8966     6.0000     0.1034     3.9490     3.9490    -0.0000
 15 H      0.9322     1.0000     0.0678     0.9957     0.9957    -0.0000
 16 H      0.9476     1.0000     0.0524     1.0052     1.0052    -0.0000
 17 H      0.9321     1.0000     0.0679     0.9958     0.9958     0.0000
 18 H      0.9263     1.0000     0.0737     0.9925     0.9925     0.0000
 19 H      0.9486     1.0000     0.0514     1.0105     1.0105    -0.0000
 20 H      0.9267     1.0000     0.0733     0.9927     0.9927    -0.0000
 21 H      0.8792     1.0000     0.1208     0.9970     0.9970     0.0000

  Mayer bond orders larger than 0.100000
B(  0-N ,  1-C ) :   1.3484 B(  0-N ,  4-C ) :   1.1824 B(  0-N ,  5-C ) :   0.9196 
B(  1-C ,  2-N ) :   1.3471 B(  1-C , 21-H ) :   0.9718 B(  2-N ,  3-C ) :   1.1860 
B(  2-N ,  6-C ) :   0.9118 B(  3-C ,  4-C ) :   1.5980 B(  3-C , 13-C ) :   1.0840 
B(  4-C , 14-C ) :   1.1020 B(  5-C ,  7-H ) :   0.9690 B(  5-C ,  8-H ) :   0.9710 
B(  5-C ,  9-H ) :   0.9709 B(  6-C , 10-H ) :   0.9687 B(  6-C , 11-H ) :   0.9713 
B(  6-C , 12-H ) :   0.9716 B( 13-C , 18-H ) :   0.9503 B( 13-C , 19-H ) :   0.9430 
B( 13-C , 20-H ) :   0.9499 B( 14-C , 15-H ) :   0.9458 B( 14-C , 16-H ) :   0.9361 
B( 14-C , 17-H ) :   0.9459 

-------
TIMINGS
-------

Total SCF time: 0 days 0 hours 4 min 4 sec 

Total time                  ....     244.865 sec
Sum of individual times     ....     244.419 sec  ( 99.8%)

Fock matrix formation       ....     240.509 sec  ( 98.2%)
  Split-RI-J                ....       9.071 sec  (  3.8% of F)
  Chain of spheres X        ....     193.210 sec  ( 80.3% of F)
  XC integration            ....      23.606 sec  (  9.8% of F)
    Basis function eval.    ....       8.726 sec  ( 37.0% of XC)
    Density eval.           ....       5.157 sec  ( 21.8% of XC)
    XC-Functional eval.     ....       3.310 sec  ( 14.0% of XC)
    XC-Potential eval.      ....       5.699 sec  ( 24.1% of XC)
Diagonalization             ....       0.078 sec  (  0.0%)
Density matrix formation    ....       0.010 sec  (  0.0%)
Population analysis         ....       0.009 sec  (  0.0%)
Initial guess               ....       0.698 sec  (  0.3%)
Orbital Transformation      ....       0.000 sec  (  0.0%)
Orbital Orthonormalization  ....       0.000 sec  (  0.0%)
DIIS solution               ....       0.026 sec  (  0.0%)
SOSCF solution              ....       0.026 sec  (  0.0%)
Grid generation             ....       3.062 sec  (  1.3%)

Maximum memory used throughout the entire SCF-calculation: 78.8 MB


-------------------------------------------------------------------------------
                          DFT DISPERSION CORRECTION                            
                                                                               
                                 DFTD4 V2.5                                    
-------------------------------------------------------------------------------
The WB97X functional is recognized
Active option DFTDOPT                   ...         5   

Starting D4
-------------------------   ----------------
Dispersion correction           -0.002872924
-------------------------   ----------------


-------------------------   --------------------
FINAL SINGLE POINT ENERGY      -383.583580688146
-------------------------   --------------------

------------------------------------------------------------------------------
                         ORCA SCF GRADIENT CALCULATION
------------------------------------------------------------------------------

 ... reading COSX grid (gridx3)
Gradient of the Kohn-Sham DFT energy:
Kohn-Sham wavefunction type      ... RKS
Hartree-Fock exchange scaling    ...    0.158
Number of operators              ...    1
Number of atoms                  ...   22
Basis set dimensions             ...  191
Integral neglect threshold       ... 2.5e-11
Integral primitive cutoff        ... 2.5e-12
SHARK Integral package           ... ON

Nuc. rep. gradient       (SHARK) ... done (  0.0 sec)
HCore & Overlap gradient (SHARK) ... done (  0.4 sec)
RI-J gradient            (SHARK) ... done (  2.0 sec)
COSX-gradient                    ... done ( 38.9 sec)
Exchange-correlation gradient    ... done
Dispersion correction            ... Starting D4


------------------- 
Dispersion Gradient 
------------------- 
   1  :   -0.000011445   -0.000006938    0.000000021
   2  :    0.000000001   -0.000000363    0.000000008
   3  :    0.000011153   -0.000006699    0.000000020
   4  :    0.000001854   -0.000008876    0.000000002
   5  :   -0.000001142   -0.000010292    0.000000003
   6  :   -0.000042884   -0.000017753   -0.000000039
   7  :    0.000042926   -0.000019005    0.000000008
   8  :   -0.000009392   -0.000005704    0.000000002
   9  :   -0.000008576   -0.000005178   -0.000000314
  10  :   -0.000008569   -0.000005167    0.000000305
  11  :    0.000009485   -0.000005702    0.000000006
  12  :    0.000008597   -0.000005417    0.000000444
  13  :    0.000008590   -0.000005393   -0.000000433
  14  :    0.000027792    0.000031616   -0.000000047
  15  :   -0.000028491    0.000030233    0.000000021
  16  :   -0.000008226    0.000006807   -0.000001652
  17  :   -0.000005775    0.000010377    0.000000001
  18  :   -0.000008220    0.000006813    0.000001662
  19  :    0.000007000    0.000009375   -0.000002152
  20  :    0.000008348    0.000005870    0.000000036
  21  :    0.000006925    0.000009489    0.000002097
  22  :    0.000000047   -0.000008092    0.000000001

  |G| =    0.000099283

done

------------------
CARTESIAN GRADIENT
------------------

   1   N   :   -0.013291584    0.003554469   -0.000007869
   2   C   :   -0.000004860   -0.005135505   -0.000024505
   3   N   :    0.012679686    0.004566160    0.000051350
   4   C   :    0.009413376   -0.007430448   -0.000101680
   5   C   :   -0.008896336   -0.007108586   -0.000037682
   6   C   :    0.008716654    0.002043397    0.000087748
   7   C   :   -0.008013982    0.002016860    0.000028146
   8   H   :   -0.000831650    0.006190036   -0.000077214
   9   H   :    0.001399413   -0.001834361    0.005143451
  10   H   :    0.001418002   -0.001905685   -0.005137242
  11   H   :    0.001104613    0.006101904   -0.000022934
  12   H   :   -0.001611460   -0.001998370   -0.004757611
  13   H   :   -0.001625951   -0.001954847    0.004787900
  14   C   :    0.003565262    0.000992233    0.000164216
  15   C   :   -0.000716162    0.003849075    0.000059056
  16   H   :    0.004791522   -0.000563159    0.006609180
  17   H   :   -0.004185976   -0.007514145   -0.000032613
  18   H   :    0.004824798   -0.000547823   -0.006630354
  19   H   :   -0.000024744   -0.004257473    0.006404862
  20   H   :   -0.008679122    0.001991580   -0.000275096
  21   H   :    0.000386225   -0.004546152   -0.006249933
  22   H   :   -0.000035543    0.013515398   -0.000003568

Difference to translation invariance:
           :    0.0003821806    0.0000245561   -0.0000223920

Difference to rotation invariance:
           :   -0.0001050627    0.0000759871   -0.0007124761

Norm of the cartesian gradient     ...    0.0404693035
RMS gradient                       ...    0.0049814269
MAX gradient                       ...    0.0135153975

-------
TIMINGS
-------

Total SCF gradient time            ...       51.509 sec

One electron gradient       ....       0.381 sec  (  0.7%)
RI-J Coulomb gradient       ....       1.992 sec  (  3.9%)
COSX gradient               ....      38.929 sec  ( 75.6%)
XC gradient                 ....       8.038 sec  ( 15.6%)
CPCM gradient               ....       0.807 sec  (  1.6%)
   A-Matrix (El+Nuc)        ....       0.070 sec  (  0.1%)
   Potential                ....       0.737 sec  (  1.4%)

Maximum memory used throughout the entire SCFGRAD-calculation: 64.0 MB
------------------------------------------------------------------------------
                         ORCA GEOMETRY RELAXATION STEP
------------------------------------------------------------------------------

Reading the OPT-File                    .... done
Getting information on internals        .... done
Copying old internal coords+grads       .... done
Making the new internal coordinates     .... (new redundants).... done
Validating the new internal coordinates .... (new redundants).... done
Calculating the B-matrix                .... done
Calculating the G,G- and P matrices     .... done
Transforming gradient to internals      .... done
Projecting the internal gradient        .... done
Number of atoms                         ....  22
Number of internal coordinates          .... 105
Current Energy                          ....  -383.583580688 Eh
Current gradient norm                   ....     0.040469304 Eh/bohr
Maximum allowed component of the step   ....  0.300
Current trust radius                    ....  0.300
Evaluating the initial hessian          ....  (Almloef) done
Projecting the Hessian                  .... done
Forming the augmented Hessian           .... done
Diagonalizing the augmented Hessian     .... done
Last element of RFO vector              ....  0.995505608
Lowest eigenvalues of augmented Hessian:
 -0.003676910  0.014557157  0.014900663  0.018607121  0.018925579
Length of the computed step             ....  0.095130161
The final length of the internal step   ....  0.095130161
Converting the step to cartesian space:
 Initial RMS(Int)=    0.0092837531
Transforming coordinates:
 Iter   0:  RMS(Cart)=    0.0190382794 RMS(Int)=    0.0092849571
 Iter   1:  RMS(Cart)=    0.0000556497 RMS(Int)=    0.0000244920
 Iter   2:  RMS(Cart)=    0.0000004469 RMS(Int)=    0.0000002828
 Iter   3:  RMS(Cart)=    0.0000000035 RMS(Int)=    0.0000000025
done
Storing new coordinates                 .... done

                                .--------------------.
          ----------------------|Geometry convergence|-------------------------
          Item                value                   Tolerance       Converged
          ---------------------------------------------------------------------
          RMS gradient        0.0038571789            0.0001000000      NO
          MAX gradient        0.0135142852            0.0003000000      NO
          RMS step            0.0092837531            0.0020000000      NO
          MAX step            0.0348000710            0.0040000000      NO
          ........................................................
          Max(Bonds)      0.0184      Max(Angles)    0.57
          Max(Dihed)        0.34      Max(Improp)    0.00
          ---------------------------------------------------------------------

The optimization has not yet converged - more geometry cycles are needed


[...]
     52       0.029468   0.000940   0.000381   0.034693  -0.031726  -0.009953
     53      -0.364104  -0.004481   0.001972  -0.425351   0.385321   0.181323
     54      -0.252237   0.004182  -0.001941   0.273933   0.302987  -0.129266
     55       0.010239  -0.000227   0.000627  -0.010989  -0.012497   0.000501
     56       0.370225  -0.005569   0.002283  -0.386684  -0.427820   0.194092
     57      -0.272820   0.004281  -0.001548  -0.285234  -0.315151  -0.125627
     58       0.027204  -0.000547   0.000845   0.027565   0.030811   0.008007
     59      -0.369932   0.005230  -0.001507  -0.372613  -0.411783  -0.175426
     60       0.155295  -0.002705   0.002340  -0.006484  -0.007023  -0.310216
     61      -0.273785   0.004045  -0.002424   0.011804   0.012684   0.563029
     62      -0.008903   0.000145  -0.000111   0.007005   0.007820   0.018104
     63       0.000007   0.001513  -0.000454  -0.000004  -0.000005   0.000084
     64       0.002211   0.000281   0.001458   0.000032   0.000001  -0.000033
     65       0.000079  -0.000042   0.000118   0.000008   0.000002   0.000003
                 60         61         62         63         64         65    
      0      -0.000281  -0.000004   0.000011   0.000177   0.000554   0.003731
      1       0.000260   0.000023   0.000006   0.000138   0.000477  -0.002889
      2       0.000013  -0.000601  -0.000098   0.000009   0.000019  -0.000184
      3       0.000002   0.000005  -0.000020   0.000132  -0.000179  -0.000004
      4       0.000180  -0.000014  -0.000002  -0.000197  -0.000220   0.094013
      5       0.000009   0.000193  -0.000175   0.000037  -0.000016   0.002977
      6       0.000274  -0.000001  -0.000028  -0.000572   0.000007  -0.003725
      7       0.000248  -0.000001  -0.000007   0.000483  -0.000016  -0.002888
      8       0.000005   0.000032   0.000611   0.000024  -0.000001   0.000014
      9       0.000761  -0.000002  -0.000002  -0.000599   0.000085   0.000941
     10       0.000032   0.000002   0.000025   0.000046   0.000078  -0.002130
     11      -0.000017   0.000037   0.000082   0.000010   0.000002  -0.000085
     12      -0.000781   0.000023  -0.000005   0.000111   0.000605  -0.000942
     13       0.000051   0.000007  -0.000003   0.000088   0.000028  -0.002133
     14       0.000008  -0.000073  -0.000044  -0.000001  -0.000011  -0.000040
     15       0.000207   0.003034   0.000166   0.004268   0.026372   0.000009
     16      -0.000267  -0.005671  -0.000320  -0.014843  -0.091013  -0.000204
     17       0.000384   0.095809   0.005085  -0.001045  -0.006306  -0.000007
     18      -0.000179   0.000131  -0.002467  -0.026695   0.004368   0.000009
     19      -0.000179  -0.000093   0.001500  -0.091100   0.014787  -0.000105
     20       0.000084   0.005139  -0.095951  -0.000717   0.000124  -0.000019
     21       0.000145   0.000184   0.000016  -0.000302  -0.001887  -0.001662
     22       0.001549   0.020692   0.001235   0.137174   0.842105   0.004461
     23       0.000103   0.009261   0.000505   0.005150   0.031646   0.000218
     24      -0.002134  -0.342742  -0.018352  -0.026079  -0.161429  -0.002212
     25       0.001979   0.268161   0.014271   0.019512   0.120664   0.000263
     26      -0.003225  -0.560199  -0.029880  -0.044490  -0.274683  -0.001836
     27       0.000629   0.306452   0.016417  -0.026029  -0.160598  -0.002095
     28      -0.000129  -0.221388  -0.011775   0.017845   0.110003   0.000135
     29      -0.001439  -0.584041  -0.031117   0.051596   0.317814   0.001959
     30      -0.000132  -0.000005   0.000077   0.004418  -0.000729   0.001651
     31       0.000744  -0.002386   0.046717   0.839894  -0.136512   0.003423
     32       0.000076   0.000299  -0.005675   0.051957  -0.008447   0.000075
     33       0.000315  -0.018078   0.340450   0.152634  -0.025048   0.002066
     34       0.000489  -0.011244   0.210357   0.087902  -0.014415   0.000054
     35       0.000292  -0.031279   0.586513   0.273378  -0.044751   0.001696
     36       0.000879   0.016489  -0.310332   0.170396  -0.027838   0.002018
     37       0.001099   0.014758  -0.275826   0.146307  -0.023873   0.000178
     38      -0.001332  -0.029686   0.555875  -0.317516   0.051762  -0.001682
     39       0.044382  -0.000030   0.000120  -0.000065   0.000129  -0.000018
     40      -0.046774   0.000030  -0.000080   0.000217  -0.000170   0.000201
     41      -0.002820  -0.000000   0.001340   0.000045  -0.000013   0.000006
     42      -0.046098   0.000338   0.000014  -0.000094   0.000154   0.000018
     43      -0.048732   0.000367   0.000016  -0.000089   0.000305   0.000201
     44      -0.000358  -0.001248  -0.000134   0.000008   0.000117   0.000001
     45       0.126751   0.004053   0.000487   0.000075  -0.000938   0.000483
     46      -0.000985   0.000932   0.000114   0.000090   0.000557  -0.000301
     47       0.176152   0.005548   0.000680   0.000009  -0.001831   0.000322
     48       0.312375  -0.002244  -0.000100   0.000331  -0.002523  -0.000955
     49       0.567119  -0.003990  -0.000179   0.000713  -0.004113  -0.001332
     50       0.010602  -0.000666  -0.000041   0.000010  -0.000041  -0.000027
     51       0.120942  -0.006091  -0.000564   0.000239   0.000011   0.000478
     52       0.009882  -0.001560  -0.000181   0.000140   0.000690  -0.000266
     53      -0.182923   0.009168   0.000859  -0.000275   0.000656  -0.000400
     54      -0.120349   0.000049   0.004927   0.000396  -0.000295  -0.000449
     55       0.000307  -0.000027  -0.000836   0.000528  -0.000081  -0.000299
     56       0.180969  -0.000091  -0.007300  -0.001119   0.000536   0.000332
     57      -0.117894   0.000124  -0.006149   0.000055  -0.000235  -0.000523
     58       0.007408   0.000006   0.001434   0.000600  -0.000087  -0.000268
     59      -0.164800   0.000169  -0.008502   0.000725  -0.000440  -0.000400
     60      -0.301100   0.000219  -0.000542   0.002025  -0.001035   0.000951
     61       0.545333  -0.000392   0.000886  -0.003190   0.001839  -0.001325
     62       0.017601  -0.000034   0.000596  -0.000123   0.000063  -0.000060
     63      -0.000003  -0.000039   0.000062   0.000710  -0.001001   0.000018
     64      -0.001643   0.000138   0.000270   0.005452   0.004870  -0.994999
     65      -0.000045  -0.000406   0.000362   0.000046   0.000184  -0.031608


-----------
IR SPECTRUM
-----------

 Mode   freq       eps      Int      T**2         TX        TY        TZ
       cm**-1   L/(mol*cm) km/mol    a.u.
----------------------------------------------------------------------------
  6:    103.09   0.000082    0.41  0.000248  (-0.000326 -0.000127 -0.015733)
  7:    107.28   0.000001    0.01  0.000003  (-0.000401  0.000704 -0.001568)
  8:    142.54   0.000003    0.02  0.000007  ( 0.000722 -0.001537  0.002037)
  9:    152.47   0.000308    1.56  0.000631  (-0.000230 -0.000459  0.025114)
 10:    163.05   0.000013    0.07  0.000025  (-0.001536  0.000836  0.004648)
 11:    179.12   0.001927    9.74  0.003358  ( 0.001870 -0.001242  0.057904)
 12:    275.16   0.000236    1.19  0.000268  (-0.011372  0.011594  0.002013)
 13:    277.52   0.000237    1.20  0.000267  ( 0.012665  0.010302  0.000244)
 14:    292.58   0.000230    1.16  0.000245  ( 0.000077 -0.012937  0.008829)
 15:    302.19   0.001919    9.70  0.001982  ( 0.001617  0.000530  0.044489)
 16:    325.46   0.000001    0.00  0.000001  (-0.000130 -0.000135  0.000866)
 17:    538.19   0.000451    2.28  0.000261  (-0.016161  0.000038  0.000472)
 18:    577.42   0.000577    2.91  0.000312  (-0.017647 -0.000039  0.000404)
 19:    621.87   0.000472    2.39  0.000237  ( 0.000014  0.015367  0.000909)
 20:    644.00   0.003718   18.79  0.001802  (-0.001194  0.001422 -0.042405)
 21:    693.85   0.000000    0.00  0.000000  (-0.000286  0.000158 -0.000117)
 22:    742.45   0.000518    2.62  0.000218  ( 0.000082 -0.014746 -0.000470)
 23:    861.11   0.003023   15.28  0.001095  ( 0.009148 -0.001201  0.031785)
 24:    862.20   0.001918    9.69  0.000694  ( 0.023298  0.000467 -0.012300)
 25:    977.52   0.000119    0.60  0.000038  (-0.000018  0.006159 -0.000049)
 26:   1045.42   0.001741    8.80  0.000520  (-0.001049  0.000397 -0.022771)
 27:   1068.50   0.000011    0.06  0.000003  (-0.001530  0.000006 -0.000918)
 28:   1082.03   0.002299   11.62  0.000663  ( 0.025747 -0.000169 -0.000345)
 29:   1106.79   0.000296    1.49  0.000083  ( 0.000557 -0.009099 -0.000513)
 30:   1118.57   0.002631   13.29  0.000734  ( 0.027078  0.000508 -0.000647)
 31:   1142.35   0.000006    0.03  0.000002  (-0.001180  0.000076 -0.000371)
 32:   1147.14   0.000140    0.71  0.000038  (-0.000071 -0.000810  0.006119)
 33:   1193.90   0.000017    0.09  0.000004  (-0.000104  0.002099  0.000040)
 34:   1233.64   0.015779   79.74  0.003992  (-0.063159  0.000002  0.001564)
 35:   1282.69   0.000652    3.30  0.000159  (-0.012593 -0.000134  0.000185)
 36:   1395.84   0.000145    0.73  0.000032  ( 0.001556 -0.005331 -0.001243)
 37:   1401.18   0.001580    7.99  0.000352  ( 0.018727  0.000508 -0.001012)
 38:   1416.94   0.000236    1.19  0.000052  (-0.000451 -0.006792 -0.002385)
 39:   1435.43   0.005795   29.28  0.001260  ( 0.035245 -0.000871 -0.004103)
 40:   1436.99   0.001688    8.53  0.000366  (-0.000961  0.001960  0.019018)
 41:   1438.29   0.000307    1.55  0.000067  ( 0.006157 -0.004095 -0.003443)
 42:   1442.74   0.001114    5.63  0.000241  ( 0.014586  0.005041  0.001690)
 43:   1444.59   0.004443   22.45  0.000960  (-0.002655 -0.000789 -0.030857)
 44:   1446.04   0.005207   26.32  0.001124  ( 0.003002 -0.014301 -0.030170)
 45:   1447.36   0.007376   37.28  0.001590  ( 0.004052  0.037554  0.012792)
 46:   1450.24   0.009938   50.22  0.002139  (-0.004648  0.031134 -0.033876)
 47:   1459.02   0.000030    0.15  0.000006  (-0.001835 -0.000664  0.001591)
 48:   1473.00   0.004847   24.50  0.001027  (-0.000383 -0.032009 -0.001486)
 49:   1528.56   0.000011    0.06  0.000002  ( 0.001496  0.000071  0.000141)
 50:   1545.24   0.000122    0.61  0.000025  ( 0.000186 -0.004945 -0.000240)
 51:   1674.61   0.033851  171.07  0.006308  ( 0.079399  0.000071 -0.001987)
 52:   1740.99   0.007290   36.84  0.001307  (-0.000070  0.036132  0.001059)
 53:   3075.50   0.002898   14.65  0.000294  ( 0.017145 -0.000131 -0.000262)
 54:   3076.42   0.001261    6.37  0.000128  ( 0.000242  0.011302  0.000359)
 55:   3096.63   0.003980   20.12  0.000401  ( 0.019954  0.001685 -0.000378)
 56:   3097.05   0.000670    3.38  0.000067  (-0.006071  0.005534  0.000056)
 57:   3169.07   0.001138    5.75  0.000112  ( 0.000152 -0.000322  0.010580)
 58:   3169.26   0.000003    0.01  0.000000  (-0.000111 -0.000084  0.000517)
 59:   3203.88   0.000266    1.34  0.000026  ( 0.005081 -0.000146 -0.000262)
 60:   3206.34   0.000617    3.12  0.000060  (-0.000106 -0.007746 -0.000282)
 61:   3211.42   0.000113    0.57  0.000011  (-0.000011 -0.000113  0.003314)
 62:   3211.53   0.000098    0.50  0.000010  (-0.000081  0.000052 -0.003088)
 63:   3228.18   0.000013    0.06  0.000001  (-0.000443 -0.001004  0.000140)
 64:   3228.34   0.000009    0.04  0.000001  ( 0.000535 -0.000747 -0.000114)
 65:   3301.06   0.011125   56.22  0.001052  (-0.000010 -0.032413 -0.001061)

* The epsilon (eps) is given for a Dirac delta lineshape.
** The dipole moment derivative (T) already includes vibrational overlap.

The first frequency considered to be a vibration is 6
The total number of vibrations considered is 60


--------------------------
THERMOCHEMISTRY AT 298.15K
--------------------------

Temperature         ... 298.15 K
Pressure            ... 1.00 atm
Total Mass          ... 125.19 AMU

Throughout the following assumptions are being made:
  (1) The electronic state is orbitally nondegenerate
  (2) There are no thermally accessible electronically excited states
  (3) Hindered rotations indicated by low frequency modes are not
      treated as such but are treated as vibrations and this may
      cause some error
  (4) All equations used are the standard statistical mechanics
      equations for an ideal gas
  (5) All vibrations are strictly harmonic

freq.     103.09  E(vib)   ...       0.46 
freq.     107.28  E(vib)   ...       0.45 
freq.     142.54  E(vib)   ...       0.41 
freq.     152.47  E(vib)   ...       0.40 
freq.     163.05  E(vib)   ...       0.39 
freq.     179.12  E(vib)   ...       0.37 
freq.     275.16  E(vib)   ...       0.28 
freq.     277.52  E(vib)   ...       0.28 
freq.     292.58  E(vib)   ...       0.27 
freq.     302.19  E(vib)   ...       0.26 
freq.     325.46  E(vib)   ...       0.24 
freq.     538.19  E(vib)   ...       0.12 
freq.     577.42  E(vib)   ...       0.11 
freq.     621.87  E(vib)   ...       0.09 
freq.     644.00  E(vib)   ...       0.09 
freq.     693.85  E(vib)   ...       0.07 
freq.     742.45  E(vib)   ...       0.06 
freq.     861.11  E(vib)   ...       0.04 
freq.     862.20  E(vib)   ...       0.04 
freq.     977.52  E(vib)   ...       0.03 
freq.    1045.42  E(vib)   ...       0.02 
freq.    1068.50  E(vib)   ...       0.02 
freq.    1082.03  E(vib)   ...       0.02 
freq.    1106.79  E(vib)   ...       0.02 
freq.    1118.57  E(vib)   ...       0.01 
freq.    1142.35  E(vib)   ...       0.01 
freq.    1147.14  E(vib)   ...       0.01 
freq.    1193.90  E(vib)   ...       0.01 
freq.    1233.64  E(vib)   ...       0.01 
freq.    1282.69  E(vib)   ...       0.01 
freq.    1395.84  E(vib)   ...       0.00 
freq.    1401.18  E(vib)   ...       0.00 
freq.    1416.94  E(vib)   ...       0.00 
freq.    1435.43  E(vib)   ...       0.00 
freq.    1436.99  E(vib)   ...       0.00 
freq.    1438.29  E(vib)   ...       0.00 
freq.    1442.74  E(vib)   ...       0.00 
freq.    1444.59  E(vib)   ...       0.00 
freq.    1446.04  E(vib)   ...       0.00 
freq.    1447.36  E(vib)   ...       0.00 
freq.    1450.24  E(vib)   ...       0.00 
freq.    1459.02  E(vib)   ...       0.00 
freq.    1473.00  E(vib)   ...       0.00 
freq.    1528.56  E(vib)   ...       0.00 
freq.    1545.24  E(vib)   ...       0.00 
freq.    1674.61  E(vib)   ...       0.00 
freq.    1740.99  E(vib)   ...       0.00 
freq.    3075.50  E(vib)   ...       0.00 
freq.    3076.42  E(vib)   ...       0.00 
freq.    3096.63  E(vib)   ...       0.00 
freq.    3097.05  E(vib)   ...       0.00 
freq.    3169.07  E(vib)   ...       0.00 
freq.    3169.26  E(vib)   ...       0.00 
freq.    3203.88  E(vib)   ...       0.00 
freq.    3206.34  E(vib)   ...       0.00 
freq.    3211.42  E(vib)   ...       0.00 
freq.    3211.53  E(vib)   ...       0.00 
freq.    3228.18  E(vib)   ...       0.00 
freq.    3228.34  E(vib)   ...       0.00 
freq.    3301.06  E(vib)   ...       0.00 

------------
INNER ENERGY
------------

The inner energy is: U= E(el) + E(ZPE) + E(vib) + E(rot) + E(trans)
    E(el)   - is the total energy from the electronic structure calculation
              = E(kin-el) + E(nuc-el) + E(el-el) + E(nuc-nuc)
    E(ZPE)  - the the zero temperature vibrational energy from the frequency calculation
    E(vib)  - the the finite temperature correction to E(ZPE) due to population
              of excited vibrational states
    E(rot)  - is the rotational thermal energy
    E(trans)- is the translational thermal energy

Summary of contributions to the inner energy U:
Electronic energy                ...   -383.58776885 Eh
Zero point energy                ...      0.19754403 Eh     123.96 kcal/mol
Thermal vibrational correction   ...      0.00744503 Eh       4.67 kcal/mol
Thermal rotational correction    ...      0.00141627 Eh       0.89 kcal/mol
Thermal translational correction ...      0.00141627 Eh       0.89 kcal/mol
-----------------------------------------------------------------------
Total thermal energy                   -383.37994725 Eh


Summary of corrections to the electronic energy:
(perhaps to be used in another calculation)
Total thermal correction                  0.01027757 Eh       6.45 kcal/mol
Non-thermal (ZPE) correction              0.19754403 Eh     123.96 kcal/mol
-----------------------------------------------------------------------
Total correction                          0.20782160 Eh     130.41 kcal/mol


--------
ENTHALPY
--------

The enthalpy is H = U + kB*T
                kB is Boltzmann's constant
Total free energy                 ...   -383.37994725 Eh 
Thermal Enthalpy correction       ...      0.00094421 Eh       0.59 kcal/mol
-----------------------------------------------------------------------
Total Enthalpy                    ...   -383.37900304 Eh


Note: Only C1 symmetry has been detected, increase convergence thresholds 
      if your molecule has a higher symmetry. Symmetry factor of 1.0 is   
      used for the rotational entropy correction. 
 

Note: Rotational entropy computed according to Herzberg 
Infrared and Raman Spectra, Chapter V,1, Van Nostrand Reinhold, 1945 
Point Group:  C1, Symmetry Number:   1  
Rotational constants in cm-1:     0.081272     0.050369     0.031855 

Vibrational entropy computed according to the QRRHO of S. Grimme
Chem.Eur.J. 2012 18 9955


-------
ENTROPY
-------

The entropy contributions are T*S = T*(S(el)+S(vib)+S(rot)+S(trans))
     S(el)   - electronic entropy
     S(vib)  - vibrational entropy
     S(rot)  - rotational entropy
     S(trans)- translational entropy
The entropies will be listed as multiplied by the temperature to get
units of energy

Electronic entropy                ...      0.00000000 Eh      0.00 kcal/mol
Vibrational entropy               ...      0.01296377 Eh      8.13 kcal/mol
Rotational entropy                ...      0.01373362 Eh      8.62 kcal/mol
Translational entropy             ...      0.01918948 Eh     12.04 kcal/mol
-----------------------------------------------------------------------
Final entropy term                ...      0.04588687 Eh     28.79 kcal/mol

In case the symmetry of your molecule has not been determined correctly
or in case you have a reason to use a different symmetry number we print 
out the resulting rotational entropy values for sn=1,12 :
 --------------------------------------------------------
|  sn= 1 | S(rot)=       0.01373362 Eh      8.62 kcal/mol|
|  sn= 2 | S(rot)=       0.01307916 Eh      8.21 kcal/mol|
|  sn= 3 | S(rot)=       0.01269633 Eh      7.97 kcal/mol|
|  sn= 4 | S(rot)=       0.01242471 Eh      7.80 kcal/mol|
|  sn= 5 | S(rot)=       0.01221402 Eh      7.66 kcal/mol|
|  sn= 6 | S(rot)=       0.01204187 Eh      7.56 kcal/mol|
|  sn= 7 | S(rot)=       0.01189633 Eh      7.47 kcal/mol|
|  sn= 8 | S(rot)=       0.01177025 Eh      7.39 kcal/mol|
|  sn= 9 | S(rot)=       0.01165904 Eh      7.32 kcal/mol|
|  sn=10 | S(rot)=       0.01155956 Eh      7.25 kcal/mol|
|  sn=11 | S(rot)=       0.01146957 Eh      7.20 kcal/mol|
|  sn=12 | S(rot)=       0.01138742 Eh      7.15 kcal/mol|
 --------------------------------------------------------


-------------------
GIBBS FREE ENERGY
-------------------

The Gibbs free energy is G = H - T*S

Total enthalpy                    ...   -383.37900304 Eh 
Total entropy correction          ...     -0.04588687 Eh    -28.79 kcal/mol
-----------------------------------------------------------------------
Final Gibbs free energy         ...   -383.42488991 Eh

For completeness - the Gibbs free energy minus the electronic energy
G-E(el)                           ...      0.16287894 Eh    102.21 kcal/mol


Timings for individual modules:

Sum of individual times         ...     6532.274 sec (= 108.871 min)
GTO integral calculation        ...        6.858 sec (=   0.114 min)   0.1 %
SCF iterations                  ...     4335.405 sec (=  72.257 min)  66.4 %
SCF Gradient evaluation         ...     1284.381 sec (=  21.406 min)  19.7 %
Geometry relaxation             ...        1.321 sec (=   0.022 min)   0.0 %
Analytical frequency calculation...      904.308 sec (=  15.072 min)  13.8 %
                             ****ORCA TERMINATED NORMALLY****
TOTAL RUN TIME: 0 days 1 hours 48 minutes 55 seconds 346 msec
