
                                 *****************
                                 * O   R   C   A *
                                 *****************

                                            #,                                       
                                            ###                                      
                                            ####                                     
                                            #####                                    
                                            ######                                   
                                           ########,                                 
                                     ,,################,,,,,                         
                               ,,#################################,,                 
                          ,,##########################################,,             
                       ,#########################################, ''#####,          
                    ,#############################################,,   '####,        
                  ,##################################################,,,,####,       
                ,###########''''           ''''###############################       
              ,#####''   ,,,,##########,,,,          '''####'''          '####       
            ,##' ,,,,###########################,,,                        '##       
           ' ,,###''''                  '''############,,,                           
         ,,##''                                '''############,,,,        ,,,,,,###''
      ,#''                                            '''#######################'''  
     '                                                          ''''####''''         
             ,#######,   #######,   ,#######,      ##                                
            ,#'     '#,  ##    ##  ,#'     '#,    #''#        ######   ,####,        
            ##       ##  ##   ,#'  ##            #'  '#       #        #'  '#        
            ##       ##  #######   ##           ,######,      #####,   #    #        
            '#,     ,#'  ##    ##  '#,     ,#' ,#      #,         ##   #,  ,#        
             '#######'   ##     ##  '#######'  #'      '#     #####' # '####'        



                  #######################################################
                  #                        -***-                        #
                  #          Department of theory and spectroscopy      #
                  #    Directorship and core code : Frank Neese         #
                  #        Max Planck Institute fuer Kohlenforschung    #
                  #                Kaiser Wilhelm Platz 1               #
                  #                 D-45470 Muelheim/Ruhr               #
                  #                      Germany                        #
                  #                                                     #
                  #                  All rights reserved                #
                  #                        -***-                        #
                  #######################################################


                         Program Version 5.0.4 -  RELEASE  -


 With contributions from (in alphabetic order):
   Daniel Aravena         : Magnetic Suceptibility
   Michael Atanasov       : Ab Initio Ligand Field Theory (pilot matlab implementation)
   Alexander A. Auer      : GIAO ZORA, VPT2 properties, NMR spectrum
   Ute Becker             : Parallelization
   Giovanni Bistoni       : ED, misc. LED, open-shell LED, HFLD
   Martin Brehm           : Molecular dynamics
   Dmytro Bykov           : SCF Hessian
   Vijay G. Chilkuri      : MRCI spin determinant printing, contributions to CSF-ICE
   Dipayan Datta          : RHF DLPNO-CCSD density
   Achintya Kumar Dutta   : EOM-CC, STEOM-CC
   Dmitry Ganyushin       : Spin-Orbit,Spin-Spin,Magnetic field MRCI
   Miquel Garcia          : C-PCM and meta-GGA Hessian, CC/C-PCM, Gaussian charge scheme
   Yang Guo               : DLPNO-NEVPT2, F12-NEVPT2, CIM, IAO-localization
   Andreas Hansen         : Spin unrestricted coupled pair/coupled cluster methods
   Benjamin Helmich-Paris : MC-RPA, TRAH-SCF, COSX integrals
   Lee Huntington         : MR-EOM, pCC
   Robert Izsak           : Overlap fitted RIJCOSX, COSX-SCS-MP3, EOM
   Marcus Kettner         : VPT2
   Christian Kollmar      : KDIIS, OOCD, Brueckner-CCSD(T), CCSD density, CASPT2, CASPT2-K
   Simone Kossmann        : Meta GGA functionals, TD-DFT gradient, OOMP2, MP2 Hessian
   Martin Krupicka        : Initial AUTO-CI
   Lucas Lang             : DCDCAS
   Marvin Lechner         : AUTO-CI (C++ implementation), FIC-MRCC
   Dagmar Lenk            : GEPOL surface, SMD
   Dimitrios Liakos       : Extrapolation schemes; Compound Job, initial MDCI parallelization
   Dimitrios Manganas     : Further ROCIS development; embedding schemes
   Dimitrios Pantazis     : SARC Basis sets
   Anastasios Papadopoulos: AUTO-CI, single reference methods and gradients
   Taras Petrenko         : DFT Hessian,TD-DFT gradient, ASA, ECA, R-Raman, ABS, FL, XAS/XES, NRVS
   Peter Pinski           : DLPNO-MP2, DLPNO-MP2 Gradient
   Christoph Reimann      : Effective Core Potentials
   Marius Retegan         : Local ZFS, SOC
   Christoph Riplinger    : Optimizer, TS searches, QM/MM, DLPNO-CCSD(T), (RO)-DLPNO pert. Triples
   Tobias Risthaus        : Range-separated hybrids, TD-DFT gradient, RPA, STAB
   Michael Roemelt        : Original ROCIS implementation
   Masaaki Saitow         : Open-shell DLPNO-CCSD energy and density
   Barbara Sandhoefer     : DKH picture change effects
   Avijit Sen             : IP-ROCIS
   Kantharuban Sivalingam : CASSCF convergence, NEVPT2, FIC-MRCI
   Bernardo de Souza      : ESD, SOC TD-DFT
   Georgi Stoychev        : AutoAux, RI-MP2 NMR, DLPNO-MP2 response
   Willem Van den Heuvel  : Paramagnetic NMR
   Boris Wezisla          : Elementary symmetry handling
   Frank Wennmohs         : Technical directorship


 We gratefully acknowledge several colleagues who have allowed us to
 interface, adapt or use parts of their codes:
   Stefan Grimme, W. Hujo, H. Kruse, P. Pracht,  : VdW corrections, initial TS optimization,
                  C. Bannwarth, S. Ehlert          DFT functionals, gCP, sTDA/sTD-DF
   Ed Valeev, F. Pavosevic, A. Kumar             : LibInt (2-el integral package), F12 methods
   Garnet Chan, S. Sharma, J. Yang, R. Olivares  : DMRG
   Ulf Ekstrom                                   : XCFun DFT Library
   Mihaly Kallay                                 : mrcc  (arbitrary order and MRCC methods)
   Jiri Pittner, Ondrej Demel                    : Mk-CCSD
   Frank Weinhold                                : gennbo (NPA and NBO analysis)
   Christopher J. Cramer and Donald G. Truhlar   : smd solvation model
   Lars Goerigk                                  : TD-DFT with DH, B97 family of functionals
   V. Asgeirsson, H. Jonsson                     : NEB implementation
   FAccTs GmbH                                   : IRC, NEB, NEB-TS, DLPNO-Multilevel, CI-OPT
                                                   MM, QMMM, 2- and 3-layer-ONIOM, Crystal-QMMM,
                                                   LR-CPCM, SF, NACMEs, symmetry and pop. for TD-DFT,
                                                   nearIR, NL-DFT gradient (VV10), updates on ESD,
                                                   ML-optimized integration grids
   S Lehtola, MJT Oliveira, MAL Marques          : LibXC Library
   Liviu Ungur et al                             : ANISO software


 Your calculation uses the libint2 library for the computation of 2-el integrals
 For citations please refer to: http://libint.valeyev.net

 Your ORCA version has been built with support for libXC version: 5.1.0
 For citations please refer to: https://tddft.org/programs/libxc/

 This ORCA versions uses:
   CBLAS   interface :  Fast vector & matrix operations
   LAPACKE interface :  Fast linear algebra routines
   SCALAPACK package :  Parallel linear algebra routines
   Shared memory     :  Shared parallel matrices
   BLAS/LAPACK       :  OpenBLAS 0.3.15  USE64BITINT DYNAMIC_ARCH NO_AFFINITY SkylakeX SINGLE_THREADED
        Core in use  :  SkylakeX
   Copyright (c) 2011-2014, The OpenBLAS Project




***************************************
The coordinates will be read from file: 2_prot_aq_4.xyz
***************************************


Your calculation utilizes the atom-pairwise dispersion correction
based on tight binding partial charges (D4)
Cite in your paper:
E.Caldeweyher, C.Bannwarth, S.Grimme, J.Chem.Phys., (2017), 147, 034112.
E.Caldeweyher, S.Ehlert, A.Hansen, H.Neugebauer, S.Grimme, J.Chem.Phys., (2018), in progress.
   

XCFun DFT library Copyright 2009-2010 Ulf Ekstrom and contributors.
See http://admol.org/xcfun for more information.
This is free software; see the source code for copying conditions.
There is ABSOLUTELY NO WARRANTY; not even for MERCHANTABILITY or FITNESS FOR A PARTICULAR PURPOSE.
For details see the documentation.
Scientific users of this library should cite U. Ekstrom, L. Visscher, R. Bast, A. J. Thorvaldsen and K. Ruud;
J.Chem.Theor.Comp. 2010, DOI: 10.1021/ct100117s
XCFun Version 0.99 

================================================================================

----- Orbital basis set information -----
Your calculation utilizes the basis: def2-SVP
   F. Weigend and R. Ahlrichs, Phys. Chem. Chem. Phys. 7, 3297 (2005).

----- AuxJ basis set information -----
Your calculation utilizes the auxiliary basis: def2/J
   F. Weigend, Phys. Chem. Chem. Phys. 8, 1057 (2006).

================================================================================
                                        WARNINGS
                       Please study these warnings very carefully!
================================================================================


WARNING: Geometry Optimization
  ===> : Switching off AutoStart
         For restart on a previous wavefunction, please use MOREAD

INFO   : the flag for use of the SHARK integral package has been found!

================================================================================
                                       INPUT FILE
================================================================================
NAME = 2_prot_aq_4.inp
|  1> # ORCA 5.0.4 - /users/bwb16179/postgrad/2024_03/DFT_Crest_Conformers/Opt/prot/2_prot_aq_4.inp # write input file
|  2> # Basic Mode
|  3> #
|  4> ! Opt Freq wB97X Def2-SVP D4 SlowConv TightSCF Defgrid2 Def2/J RIJCOSX CPCM(Water)
|  5> 
|  6> 
|  7> 
|  8> %maxcore 4500
|  9> 
| 10> %geom
| 11> Maxiter 150
| 12> END
| 13> 
| 14> * xyzfile 1 1 2_prot_aq_4.xyz
| 15> 
| 16>                          ****END OF INPUT****
================================================================================

                       *****************************
                       * Geometry Optimization Run *
                       *****************************

Geometry optimization settings:
Update method            Update   .... BFGS
Choice of coordinates    CoordSys .... Z-matrix Internals
Initial Hessian          InHess   .... Almoef's Model

Convergence Tolerances:
Energy Change            TolE     ....  5.0000e-06 Eh
Max. Gradient            TolMAXG  ....  3.0000e-04 Eh/bohr
RMS Gradient             TolRMSG  ....  1.0000e-04 Eh/bohr
Max. Displacement        TolMAXD  ....  4.0000e-03 bohr
RMS Displacement         TolRMSD  ....  2.0000e-03 bohr
Strict Convergence                ....  False
------------------------------------------------------------------------------
                        ORCA OPTIMIZATION COORDINATE SETUP
------------------------------------------------------------------------------

The optimization will be done in new redundant internal coordinates
Making redundant internal coordinates   ...  (new redundants) done
Evaluating the initial hessian          ...  (Almloef) done
Evaluating the coordinates              ...  done
Calculating the B-matrix                .... done
Calculating the G-matrix                .... done
Diagonalizing the G-matrix              .... done
The first mode is                       ....   45
The number of degrees of freedom        ....   60

    -----------------------------------------------------------------
                    Redundant Internal Coordinates


    -----------------------------------------------------------------
         Definition                    Initial Value    Approx d2E/dq
    -----------------------------------------------------------------
      1. B(C   1,N   0)                  1.3290         0.700162   
      2. B(N   2,C   1)                  1.3337         0.688170   
      3. B(C   3,N   2)                  1.3719         0.598021   
      4. B(C   4,C   3)                  1.3757         0.658584   
      5. B(C   4,N   0)                  1.3695         0.603457   
      6. B(C   5,N   0)                  1.4370         0.470936   
      7. B(C   6,N   2)                  1.4414         0.463278   
      8. B(H   7,C   5)                  1.0906         0.359294   
      9. B(H   8,C   5)                  1.0873         0.363680   
     10. B(H   9,C   5)                  1.0906         0.359271   
     11. B(H  10,C   6)                  1.0902         0.359834   
     12. B(H  11,C   6)                  1.0903         0.359658   
     13. B(H  12,C   6)                  1.0859         0.365619   
     14. B(C  13,C   3)                  1.4833         0.443502   
     15. B(C  14,C   4)                  1.4798         0.449180   
     16. B(H  15,C  14)                  1.0849         0.366882   
     17. B(H  16,C  14)                  1.0893         0.360975   
     18. B(H  17,C  14)                  1.0893         0.361001   
     19. B(H  18,C  13)                  1.0889         0.361497   
     20. B(H  19,C  13)                  1.0844         0.367523   
     21. B(H  20,C  13)                  1.0889         0.361543   
     22. B(H  21,C   1)                  1.0720         0.384663   
     23. A(C   1,N   0,C   5)          126.4165         0.416828   
     24. A(C   4,N   0,C   5)          125.2760         0.405983   
     25. A(C   1,N   0,C   4)          108.3075         0.435752   
     26. A(N   2,C   1,H  21)          124.9751         0.361023   
     27. A(N   0,C   1,N   2)          109.4944         0.446217   
     28. A(N   0,C   1,H  21)          125.5305         0.362089   
     29. A(C   1,N   2,C   3)          108.3186         0.433692   
     30. A(C   1,N   2,C   6)          123.2343         0.414339   
     31. A(C   3,N   2,C   6)          128.4470         0.404162   
     32. A(C   4,C   3,C  13)          127.4732         0.413269   
     33. A(N   2,C   3,C  13)          125.8071         0.403655   
     34. A(N   2,C   3,C   4)          106.7197         0.433112   
     35. A(N   0,C   4,C  14)          122.6332         0.405209   
     36. A(N   0,C   4,C   3)          107.1597         0.433818   
     37. A(C   3,C   4,C  14)          130.2071         0.414204   
     38. A(H   8,C   5,H   9)          109.1592         0.291186   
     39. A(H   7,C   5,H   9)          108.4569         0.290632   
     40. A(N   0,C   5,H   9)          110.1401         0.334815   
     41. A(H   7,C   5,H   8)          109.1608         0.291189   
     42. A(N   0,C   5,H   8)          109.7590         0.335494   
     43. A(N   0,C   5,H   7)          110.1361         0.334818   
     44. A(H  10,C   6,H  11)          108.8070         0.290750   
     45. A(H  11,C   6,H  12)          108.7187         0.291479   
     46. A(H  10,C   6,H  12)          108.7070         0.291502   
     47. A(N   2,C   6,H  12)          110.4930         0.334877   
     48. A(N   2,C   6,H  11)          110.0523         0.333964   
     49. A(N   2,C   6,H  10)          110.0210         0.333991   
     50. A(H  19,C  13,H  20)          108.1638         0.291957   
     51. A(H  18,C  13,H  20)          107.8350         0.291199   
     52. A(C   3,C  13,H  20)          110.1018         0.333859   
     53. A(H  18,C  13,H  19)          108.1857         0.291952   
     54. A(C   3,C  13,H  19)          112.3098         0.334770   
     55. A(C   3,C  13,H  18)          110.1111         0.333852   
     56. A(H  16,C  14,H  17)          107.8481         0.291065   
     57. A(H  15,C  14,H  17)          108.5841         0.291808   
     58. A(C   4,C  14,H  17)          110.7910         0.334482   
     59. A(H  15,C  14,H  16)          108.5814         0.291805   
     60. A(C   4,C  14,H  16)          110.7884         0.334478   
     61. A(C   4,C  14,H  15)          110.1687         0.335381   
     62. D(N   2,C   1,N   0,C   4)     -0.0066         0.040569   
     63. D(H  21,C   1,N   0,C   4)   -179.9979         0.040569   
     64. D(N   2,C   1,N   0,C   5)    179.9667         0.040569   
     65. D(H  21,C   1,N   0,C   5)     -0.0246         0.040569   
     66. D(C   6,N   2,C   1,H  21)     -0.0624         0.039058   
     67. D(C   6,N   2,C   1,N   0)    179.9462         0.039058   
     68. D(C   3,N   2,C   1,H  21)    180.0000         0.039058   
     69. D(C   3,N   2,C   1,N   0)      0.0086         0.039058   
     70. D(C  13,C   3,N   2,C   6)      0.0505         0.028803   
     71. D(C   4,C   3,N   2,C   6)   -179.9405         0.028803   
     72. D(C   4,C   3,N   2,C   1)     -0.0071         0.028803   
     73. D(C  13,C   3,N   2,C   1)    179.9838         0.028803   
     74. D(C  14,C   4,N   0,C   1)   -179.9860         0.029368   
     75. D(C   3,C   4,N   0,C   5)   -179.9717         0.029368   
     76. D(C   3,C   4,N   0,C   1)      0.0021         0.029368   
     77. D(C  14,C   4,C   3,C  13)     -0.0008         0.030256   
     78. D(N   0,C   4,C   3,C  13)   -179.9877         0.030256   
     79. D(N   0,C   4,C   3,N   2)      0.0031         0.030256   
     80. D(C  14,C   4,N   0,C   5)      0.0403         0.029368   
     81. D(C  14,C   4,C   3,N   2)    179.9899         0.030256   
     82. D(H   9,C   5,N   0,C   4)     59.9418         0.018951   
     83. D(H   9,C   5,N   0,C   1)   -120.0272         0.018951   
     84. D(H   8,C   5,N   0,C   4)   -179.8478         0.018951   
     85. D(H   8,C   5,N   0,C   1)      0.1832         0.018951   
     86. D(H   7,C   5,N   0,C   4)    -59.6380         0.018951   
     87. D(H   7,C   5,N   0,C   1)    120.3930         0.018951   
     88. D(H  11,C   6,N   2,C   3)    119.0961         0.018326   
     89. D(H  11,C   6,N   2,C   1)    -60.8282         0.018326   
     90. D(H  10,C   6,N   2,C   3)   -121.0189         0.018326   
     91. D(H  12,C   6,N   2,C   1)    179.0970         0.018326   
     92. D(H  10,C   6,N   2,C   1)     59.0568         0.018326   
     93. D(H  12,C   6,N   2,C   3)     -0.9787         0.018326   
     94. D(H  20,C  13,C   3,C   4)     59.2520         0.014510   
     95. D(H  20,C  13,C   3,N   2)   -120.7371         0.014510   
     96. D(H  19,C  13,C   3,C   4)    179.8487         0.014510   
     97. D(H  19,C  13,C   3,N   2)     -0.1404         0.014510   
     98. D(H  18,C  13,C   3,C   4)    -59.5205         0.014510   
     99. D(H  18,C  13,C   3,N   2)    120.4904         0.014510   
    100. D(H  17,C  14,C   4,C   3)    120.2303         0.014880   
    101. D(H  17,C  14,C   4,N   0)    -59.7846         0.014880   
    102. D(H  16,C  14,C   4,C   3)   -120.1122         0.014880   
    103. D(H  16,C  14,C   4,N   0)     59.8728         0.014880   
    104. D(H  15,C  14,C   4,C   3)      0.0565         0.014880   
    105. D(H  15,C  14,C   4,N   0)   -179.9584         0.014880   
    -----------------------------------------------------------------

Number of atoms                         .... 22
Number of degrees of freedom            .... 105

         *************************************************************
         *                GEOMETRY OPTIMIZATION CYCLE   1            *
         *************************************************************
---------------------------------
CARTESIAN COORDINATES (ANGSTROEM)
---------------------------------
  N     -1.076149   -0.646914    0.000100
  C      0.008983   -1.414200   -0.000038
  N      1.098249   -0.644616   -0.000385
  C      0.698897    0.667897   -0.000279
  C     -0.676759    0.663012   -0.000016
  C     -2.440274   -1.098579   -0.000205
  C      2.439149   -1.173455    0.000519
  H     -2.959621   -0.725098    0.883096
  H     -2.467585   -2.185539    0.002695
  H     -2.957718   -0.729890   -0.886653
  H      2.593409   -1.801151   -0.877399
  H      2.603478   -1.774239    0.895440
  H      3.165926   -0.366850   -0.016008
  C      1.597131    1.848292   -0.000233
  C     -1.636073    1.789782    0.000392
  H     -1.103139    2.734787   -0.000527
  H     -2.275576    1.752772    0.881486
  H     -2.277306    1.751988   -0.879386
  H      1.410949    2.460508   -0.881329
  H      2.644819    1.568351    0.002164
  H      1.407886    2.462548    0.878745
  H      0.013973   -2.486226   -0.000026

----------------------------
CARTESIAN COORDINATES (A.U.)
----------------------------
  NO LB      ZA    FRAG     MASS         X           Y           Z
   0 N     7.0000    0    14.007   -2.033627   -1.222491    0.000190
   1 C     6.0000    0    12.011    0.016975   -2.672451   -0.000071
   2 N     7.0000    0    14.007    2.075389   -1.218148   -0.000728
   3 C     6.0000    0    12.011    1.320723    1.262142   -0.000527
   4 C     6.0000    0    12.011   -1.278888    1.252911   -0.000030
   5 C     6.0000    0    12.011   -4.611450   -2.076013   -0.000388
   6 C     6.0000    0    12.011    4.609324   -2.217509    0.000981
   7 H     1.0000    0     1.008   -5.592872   -1.370236    1.668810
   8 H     1.0000    0     1.008   -4.663059   -4.130070    0.005093
   9 H     1.0000    0     1.008   -5.589278   -1.379293   -1.675531
  10 H     1.0000    0     1.008    4.900833   -3.403682   -1.658044
  11 H     1.0000    0     1.008    4.919860   -3.352825    1.692137
  12 H     1.0000    0     1.008    5.982733   -0.693245   -0.030251
  13 C     6.0000    0    12.011    3.018141    3.492765   -0.000441
  14 C     6.0000    0    12.011   -3.091730    3.382199    0.000741
  15 H     1.0000    0     1.008   -2.084630    5.167999   -0.000996
  16 H     1.0000    0     1.008   -4.300215    3.312259    1.665767
  17 H     1.0000    0     1.008   -4.303485    3.310777   -1.661799
  18 H     1.0000    0     1.008    2.666308    4.649687   -1.665471
  19 H     1.0000    0     1.008    4.997984    2.963754    0.004090
  20 H     1.0000    0     1.008    2.660519    4.653541    1.660588
  21 H     1.0000    0     1.008    0.026406   -4.698287   -0.000049

--------------------------------
INTERNAL COORDINATES (ANGSTROEM)
--------------------------------
 N      0   0   0     0.000000000000     0.00000000     0.00000000
 C      1   0   0     1.328998990955     0.00000000     0.00000000
 N      2   1   0     1.333701553225   109.49442569     0.00000000
 C      3   2   1     1.371922780409   108.31864141     0.00000000
 C      1   2   3     1.369459600053   108.30752914     0.00000000
 C      1   2   3     1.436954723615   126.41645700   179.96671836
 C      3   2   1     1.441417934645   123.23432943   179.94620476
 H      6   1   2     1.090609884597   110.13607727   120.39303589
 H      6   1   2     1.087307174103   109.75895617     0.18316573
 H      6   1   2     1.090627577474   110.14006244   239.97275163
 H      7   3   2     1.090201109046   110.02098834    59.05675835
 H      7   3   2     1.090334318066   110.05228520   299.17176826
 H      7   3   2     1.085859415846   110.49295039   179.09695944
 C      4   3   2     1.483292834581   125.80709186   179.98383638
 C      5   1   2     1.479829908539   122.63323610   180.01399065
 H     15   5   1     1.084921066330   110.16866497   180.04159382
 H     15   5   1     1.089339543909   110.78843543    59.87283646
 H     15   5   1     1.089319557376   110.79101652   300.21535956
 H     14   4   3     1.088945838676   110.11112717   120.49043342
 H     14   4   3     1.084445494750   112.30981799   359.85957269
 H     14   4   3     1.088911382159   110.10183365   239.26293476
 H      2   1   3     1.072037636274   125.53047580   180.00869873

---------------------------
INTERNAL COORDINATES (A.U.)
---------------------------
 N      0   0   0     0.000000000000     0.00000000     0.00000000
 C      1   0   0     2.511444125163     0.00000000     0.00000000
 N      2   1   0     2.520330679981   109.49442569     0.00000000
 C      3   2   1     2.592558331861   108.31864141     0.00000000
 C      1   2   3     2.587903595569   108.30752914     0.00000000
 C      1   2   3     2.715450894478   126.41645700   179.96671836
 C      3   2   1     2.723885141002   123.23432943   179.94620476
 H      6   1   2     2.060954000835   110.13607727   120.39303589
 H      6   1   2     2.054712782503   109.75895617     0.18316573
 H      6   1   2     2.060987435528   110.14006244   239.97275163
 H      7   3   2     2.060181526993   110.02098834    59.05675835
 H      7   3   2     2.060433255560   110.05228520   299.17176826
 H      7   3   2     2.051976915889   110.49295039   179.09695944
 C      4   3   2     2.803017233766   125.80709186   179.98383638
 C      5   1   2     2.796473251924   122.63323610   180.01399065
 H     15   5   1     2.050203692285   110.16866497   180.04159382
 H     15   5   1     2.058553404839   110.78843543    59.87283646
 H     15   5   1     2.058515635764   110.79101652   300.21535956
 H     14   4   3     2.057809409772   110.11112717   120.49043342
 H     14   4   3     2.049304992242   112.30981799   359.85957269
 H     14   4   3     2.057744296391   110.10183365   239.26293476
 H      2   1   3     2.025857537815   125.53047580   180.00869873

---------------------
BASIS SET INFORMATION
---------------------
There are 3 groups of distinct atoms

 Group   1 Type N   : 7s4p1d contracted to 3s2p1d pattern {511/31/1}
 Group   2 Type C   : 7s4p1d contracted to 3s2p1d pattern {511/31/1}
 Group   3 Type H   : 4s1p contracted to 2s1p pattern {31/1}

Atom   0N    basis set group =>   1
Atom   1C    basis set group =>   2
Atom   2N    basis set group =>   1
Atom   3C    basis set group =>   2
Atom   4C    basis set group =>   2
Atom   5C    basis set group =>   2
Atom   6C    basis set group =>   2
Atom   7H    basis set group =>   3
Atom   8H    basis set group =>   3
Atom   9H    basis set group =>   3
Atom  10H    basis set group =>   3
Atom  11H    basis set group =>   3
Atom  12H    basis set group =>   3
Atom  13C    basis set group =>   2
Atom  14C    basis set group =>   2
Atom  15H    basis set group =>   3
Atom  16H    basis set group =>   3
Atom  17H    basis set group =>   3
Atom  18H    basis set group =>   3
Atom  19H    basis set group =>   3
Atom  20H    basis set group =>   3
Atom  21H    basis set group =>   3
---------------------------------
AUXILIARY/J BASIS SET INFORMATION
---------------------------------
There are 3 groups of distinct atoms

 Group   1 Type N   : 12s5p4d2f1g contracted to 6s4p3d1f1g pattern {711111/2111/211/2/1}
 Group   2 Type C   : 12s5p4d2f1g contracted to 6s4p3d1f1g pattern {711111/2111/211/2/1}
 Group   3 Type H   : 5s2p1d contracted to 3s1p1d pattern {311/2/1}

Atom   0N    basis set group =>   1
Atom   1C    basis set group =>   2
Atom   2N    basis set group =>   1
Atom   3C    basis set group =>   2
Atom   4C    basis set group =>   2
Atom   5C    basis set group =>   2
Atom   6C    basis set group =>   2
Atom   7H    basis set group =>   3
Atom   8H    basis set group =>   3
Atom   9H    basis set group =>   3
Atom  10H    basis set group =>   3
Atom  11H    basis set group =>   3
Atom  12H    basis set group =>   3
Atom  13C    basis set group =>   2
Atom  14C    basis set group =>   2
Atom  15H    basis set group =>   3
Atom  16H    basis set group =>   3
Atom  17H    basis set group =>   3
Atom  18H    basis set group =>   3
Atom  19H    basis set group =>   3
Atom  20H    basis set group =>   3
Atom  21H    basis set group =>   3
------------------------------------------------------------------------------
                           ORCA GTO INTEGRAL CALCULATION
                           -- RI-GTO INTEGRALS CHOSEN --
------------------------------------------------------------------------------
------------------------------------------------------------------------------
                   ___                                                        
                  /   \      - P O W E R E D   B Y -                         
                 /     \                                                     
                 |  |  |   _    _      __       _____    __    __             
                 |  |  |  | |  | |    /  \     |  _  \  |  |  /  |          
                  \  \/   | |  | |   /    \    | | | |  |  | /  /          
                 / \  \   | |__| |  /  /\  \   | |_| |  |  |/  /          
                |  |  |   |  __  | /  /__\  \  |    /   |      \           
                |  |  |   | |  | | |   __   |  |    \   |  |\   \          
                \     /   | |  | | |  |  |  |  | |\  \  |  | \   \       
                 \___/    |_|  |_| |__|  |__|  |_| \__\ |__|  \__/        
                                                                              
                      - O R C A' S   B I G   F R I E N D -                    
                                      &                                       
                       - I N T E G R A L  F E E D E R -                       
                                                                              
 v1 FN, 2020, v2 2021                                                         
------------------------------------------------------------------------------


Reading SHARK input file 2_prot_aq_4.SHARKINP.tmp ... ok
----------------------
SHARK INTEGRAL PACKAGE
----------------------

Number of atoms                             ...     22
Number of basis functions                   ...    191
Number of shells                            ...     93
Maximum angular momentum                    ...      2
Integral batch strategy                     ... SHARK/LIBINT Hybrid
RI-J (if used) integral strategy            ... SPLIT-RIJ (Revised 2003 algorithm where possible)
Printlevel                                  ...      1
Contraction scheme used                     ... SEGMENTED contraction
Coulomb Range Separation                    ... NOT USED
Exchange Range Separation                   ... Long Range
   Mu parameter                             ...  0.300000
   Scaling (regular/separated)              ...  0.157706  0.842294
Finite Nucleus Model                        ... NOT USED
Auxiliary Coulomb fitting basis             ... AVAILABLE
   # of basis functions in Aux-J            ...    584
   # of shells in Aux-J                     ...    200
   Maximum angular momentum in Aux-J        ...      4
Auxiliary J/K fitting basis                 ... NOT available
Auxiliary Correlation fitting basis         ... NOT available
Auxiliary 'external' fitting basis          ... NOT available
Integral threshold                          ...     2.500000e-11
Primitive cut-off                           ...     2.500000e-12
Primitive pair pre-selection threshold      ...     2.500000e-12

Calculating pre-screening integrals         ... done (  0.0 sec) Dimension = 93
Organizing shell pair data                  ... done (  0.0 sec)
Shell pair information
Total number of shell pairs                 ...      4371
Shell pairs after pre-screening             ...      4059
Total number of primitive shell pairs       ...     15207
Primitive shell pairs kept                  ...     10327
          la=0 lb=0:   1353 shell pairs
          la=1 lb=0:   1516 shell pairs
          la=1 lb=1:    441 shell pairs
          la=2 lb=0:    446 shell pairs
          la=2 lb=1:    261 shell pairs
          la=2 lb=2:     42 shell pairs

Calculating one electron integrals          ... done (  0.0 sec)
Calculating RI/J V-Matrix + Cholesky decomp.... done (  0.0 sec)
Calculating Nuclear repulsion               ... done (  0.0 sec) ENN=    476.647554022857 Eh

SHARK setup successfully completed in   0.2 seconds

Maximum memory used throughout the entire GTOINT-calculation: 27.3 MB
-------------------------------------------------------------------------------
                                 ORCA SCF
-------------------------------------------------------------------------------

------------
SCF SETTINGS
------------
Hamiltonian:
 Density Functional     Method          .... DFT(GTOs)
 Exchange Functional    Exchange        .... WB97X
 Correlation Functional Correlation     .... WB97X
 Gradients option       PostSCFGGA      .... off
 Hybrid DFT is turned on
   Fraction HF Exchange ScalHFX         ....  0.157706
   Scaling of DF-GGA-X  ScalDFX         ....  0.000000
   Scaling of DF-GGA-C  ScalDFC         ....  1.000000
   Scaling of DF-LDA-C  ScalLDAC        ....  1.000000
   Perturbative correction              ....  0.000000
   Density functional embedding theory  .... OFF
 Long-range corrected/Screened/Range-Separated Hybrid DFT is turned on
   Amount of maximum screened exact exchange              ....  0.842294
   Range separation parameter mu (erf(mu*r12)/r12)        ....  0.300000
 RI-approximation to the Coulomb term is turned on
   Number of AuxJ basis functions       .... 584
   RIJ-COSX (HFX calculated with COS-X)).... on


General Settings:
 Integral files         IntName         .... 2_prot_aq_4
 Hartree-Fock type      HFTyp           .... RHF
 Total Charge           Charge          ....    1
 Multiplicity           Mult            ....    1
 Number of Electrons    NEL             ....   68
 Basis Dimension        Dim             ....  191
 Nuclear Repulsion      ENuc            ....    476.6475540229 Eh

Convergence Acceleration:
 DIIS                   CNVDIIS         .... on
   Start iteration      DIISMaxIt       ....     0
   Startup error        DIISStart       ....  0.200000
   # of expansion vecs  DIISMaxEq       ....     5
   Bias factor          DIISBfac        ....   1.050
   Max. coefficient     DIISMaxC        ....  10.000
 Trust-Rad. Augm. Hess. CNVTRAH         .... auto
   Auto Start mean grad. ratio tolernc. ....  1.125000
   Auto Start start iteration           ....    20
   Auto Start num. interpolation iter.  ....    10
   Max. Number of Micro iterations      ....    16
   Max. Number of Macro iterations      .... Maxiter - #DIIS iter
   Number of Davidson start vectors     ....     2
   Converg. threshold I  (grad. norm)   ....   1.000e-05
   Converg. threshold II (energy diff.) ....   1.000e-08
   Grad. Scal. Fac. for Micro threshold ....   0.100
   Minimum threshold for Micro iter.    ....   0.010
   NR start threshold (gradient norm)   ....   0.001
   Initial trust radius                 ....   0.400
   Minimum AH scaling param. (alpha)    ....   1.000
   Maximum AH scaling param. (alpha)    .... 1000.000
   Orbital update algorithm             .... Taylor
   White noise on init. David. guess    .... on
   Maximum white noise                  ....   0.010
   Quad. conv. algorithm                .... NR
 SOSCF                  CNVSOSCF        .... on
   Start iteration      SOSCFMaxIt      ....   150
   Startup grad/error   SOSCFStart      ....  0.001000
 Level Shifting         CNVShift        .... on
   Level shift para.    LevelShift      ....    0.2500
   Turn off err/grad.   ShiftErr        ....    0.0000
 Zerner damping         CNVZerner       .... off
 Static damping         CNVDamp         .... on
   Fraction old density DampFac         ....    0.8500
   Max. Damping (<1)    DampMax         ....    0.9800
   Min. Damping (>=0)   DampMin         ....    0.0000
   Turn off err/grad.   DampErr         ....    0.0300
 Fernandez-Rico         CNVRico         .... off

SCF Procedure:
 Maximum # iterations   MaxIter         ....   125
 SCF integral mode      SCFMode         .... Direct
   Integral package                     .... SHARK and LIBINT hybrid scheme
 Reset frequency        DirectResetFreq ....    20
 Integral Threshold     Thresh          ....  2.500e-11 Eh
 Primitive CutOff       TCut            ....  2.500e-12 Eh

Convergence Tolerance:
 Convergence Check Mode ConvCheckMode   .... Total+1el-Energy
 Convergence forced     ConvForced      .... 0
 Energy Change          TolE            ....  1.000e-08 Eh
 1-El. energy change                    ....  1.000e-05 Eh
 Orbital Gradient       TolG            ....  1.000e-05
 Orbital Rotation angle TolX            ....  1.000e-05
 DIIS Error             TolErr          ....  5.000e-07


Diagonalization of the overlap matrix:
Smallest eigenvalue                        ... 9.835e-04
Time for diagonalization                   ...    0.006 sec
Threshold for overlap eigenvalues          ... 1.000e-08
Number of eigenvalues below threshold      ... 0
Time for construction of square roots      ...    0.002 sec
Total time needed                          ...    0.009 sec

Time for model grid setup =    0.309 sec

------------------------------
INITIAL GUESS: MODEL POTENTIAL
------------------------------
Loading Hartree-Fock densities                     ... done
Calculating cut-offs                               ... done
Initializing the effective Hamiltonian             ... done
Setting up the integral package (SHARK)            ... done
Starting the Coulomb interaction                   ... done (   0.3 sec)
Reading the grid                                   ... done
Mapping shells                                     ... done
Starting the XC term evaluation                    ... done (   0.4 sec)
  promolecular density results
     # of electrons  =     68.996925059
     EX              =    -52.844954206
     EC              =     -2.293254255
     EX+EC           =    -55.138208461
Transforming the Hamiltonian                       ... done (   0.0 sec)
Diagonalizing the Hamiltonian                      ... done (   0.0 sec)
Back transforming the eigenvectors                 ... done (   0.0 sec)
Now organizing SCF variables                       ... done
                      ------------------
                      INITIAL GUESS DONE (   1.0 sec)
                      ------------------
-------------------
DFT GRID GENERATION
-------------------

General Integration Accuracy     IntAcc      ... 4.388
Radial Grid Type                 RadialGrid  ... OptM3 with GC (2021)
Angular Grid (max. ang.)         AngularGrid ... 4 (Lebedev-302)
Angular grid pruning method      GridPruning ... 4 (adaptive)
Weight generation scheme         WeightScheme... Becke
Basis function cutoff            BFCut       ... 1.0000e-11
Integration weight cutoff        WCut        ... 1.0000e-14
Angular grids for H and He will be reduced by one unit
Partially contracted basis set               ... off
Rotationally invariant grid construction     ... off

Total number of grid points                  ...    95586
Total number of batches                      ...     1504
Average number of points per batch           ...       63
Average number of grid points per atom       ...     4345
Time for grid setup =    1.190 sec

--------------------
COSX GRID GENERATION
--------------------

GRIDX 1
-------
General Integration Accuracy     IntAcc      ... 3.816
Radial Grid Type                 RadialGrid  ... OptM3 with GC (2021)
Angular Grid (max. ang.)         AngularGrid ... 1 (Lebedev-50)
Angular grid pruning method      GridPruning ... 4 (adaptive)
Weight generation scheme         WeightScheme... Becke
Basis function cutoff            BFCut       ... 1.0000e-11
Integration weight cutoff        WCut        ... 1.0000e-14
Angular grids for H and He will be reduced by one unit
Partially contracted basis set               ... on
Rotationally invariant grid construction     ... off

Total number of grid points                  ...    12248
Total number of batches                      ...      204
Average number of points per batch           ...       60
Average number of grid points per atom       ...      557
UseSFitting                                  ... on

GRIDX 2
-------
General Integration Accuracy     IntAcc      ... 4.020
Radial Grid Type                 RadialGrid  ... OptM3 with GC (2021)
Angular Grid (max. ang.)         AngularGrid ... 2 (Lebedev-110)
Angular grid pruning method      GridPruning ... 4 (adaptive)
Weight generation scheme         WeightScheme... Becke
Basis function cutoff            BFCut       ... 1.0000e-11
Integration weight cutoff        WCut        ... 1.0000e-14
Angular grids for H and He will be reduced by one unit
Partially contracted basis set               ... on
Rotationally invariant grid construction     ... off

Total number of grid points                  ...    25782
Total number of batches                      ...      416
Average number of points per batch           ...       61
Average number of grid points per atom       ...     1172
UseSFitting                                  ... on

GRIDX 3
-------
General Integration Accuracy     IntAcc      ... 4.338
Radial Grid Type                 RadialGrid  ... OptM3 with GC (2021)
Angular Grid (max. ang.)         AngularGrid ... 3 (Lebedev-194)
Angular grid pruning method      GridPruning ... 4 (adaptive)
Weight generation scheme         WeightScheme... Becke
Basis function cutoff            BFCut       ... 1.0000e-11
Integration weight cutoff        WCut        ... 1.0000e-14
Angular grids for H and He will be reduced by one unit
Partially contracted basis set               ... on
Rotationally invariant grid construction     ... off

Total number of grid points                  ...    56322
Total number of batches                      ...      891
Average number of points per batch           ...       63
Average number of grid points per atom       ...     2560
UseSFitting                                  ... on

Time for X-Grid setup             =    1.531 sec


--------------------
CPCM SOLVATION MODEL
--------------------
CPCM parameters:
  Epsilon                                         ...      80.4000
  Refrac                                          ...       1.3300
  Rsolv                                           ...       1.3000
  Surface type                                    ... GAUSSIAN VDW
  Epsilon function type                           ...         CPCM
Radii:
 Radius for N  used is    3.5149 Bohr (=   1.8600 Ang.)
 Radius for C  used is    3.8550 Bohr (=   2.0400 Ang.)
 Radius for H  used is    2.4944 Bohr (=   1.3200 Ang.)
Calculating surface                               ...        done! (  0.0s)
GEPOL surface points                              ...         1194
GEPOL Volume                                      ...    1161.8743
GEPOL Surface-area                                ...     658.6029
Calculating surface distance matrix               ...        done! (  0.0s)
Performing Cholesky decomposition & store         ...        done! (  0.0s)
Overall time for CPCM initialization              ...                 0.1s
--------------
SCF ITERATIONS
--------------
ITER       Energy         Delta-E        Max-DP      RMS-DP      [F,P]     Damp
               ***  Starting incremental Fock matrix formation  ***
  0   -383.4391861334   0.000000000000 0.03151616  0.00070386  0.1488348 0.8500
  1   -383.4674447165  -0.028258583054 0.02840532  0.00065060  0.1200767 0.8500
                               ***Turning on DIIS***
  2   -383.4890965598  -0.021651843264 0.02232061  0.00053178  0.0923986 0.8500
  3   -383.5053370507  -0.016240490988 0.01413801  0.00038907  0.0702406 0.8500
  4   -383.5179383905  -0.012601339778 0.00956497  0.00030407  0.0560351 0.8500
  5   -383.5278975532  -0.009959162656 0.00733458  0.00025208  0.0464388 0.8500
  6   -383.5360026857  -0.008105132553 0.00599490  0.00021365  0.0391340 0.8500
  7   -383.5427116697  -0.006708983942 0.00516074  0.00018394  0.0331845 0.8500
  8   -383.5483219049  -0.005610235211 0.02945264  0.00105374  0.0280678 0.0000
  9   -383.5784539144  -0.030132009529 0.00127197  0.00003086  0.0012008 0.0000
                      *** Initiating the SOSCF procedure ***
                           *** Shutting down DIIS ***
                      *** Re-Reading the Fockian *** 
                      *** Removing any level shift *** 
ITER      Energy       Delta-E        Grad      Rot      Max-DP    RMS-DP
 10   -383.57846529  -0.0000113794  0.000150  0.000150  0.000349  0.000012
               *** Restarting incremental Fock matrix formation ***
 11   -383.57856462  -0.0000993296  0.000086  0.000134  0.000397  0.000014
 12   -383.57856491  -0.0000002904  0.000047  0.000132  0.000199  0.000007
 13   -383.57856495  -0.0000000312  0.000020  0.000019  0.000066  0.000002
 14   -383.57856496  -0.0000000181  0.000004  0.000006  0.000012  0.000000
                 **** Energy Check signals convergence ****
              ***Rediagonalizing the Fockian in SOSCF/NRSCF***

               *****************************************************
               *                     SUCCESS                       *
               *           SCF CONVERGED AFTER  15 CYCLES          *
               *****************************************************

Old exchange energy                            =    -17.462122553 Eh
New exchange energy                            =    -17.462086864 Eh
Exchange energy change after final integration =      0.000035688 Eh
Total energy after final integration           =   -383.578529278 Eh
Final COS-X integration done in                =    35.550 sec

----------------
TOTAL SCF ENERGY
----------------

Total Energy       :         -383.57852928 Eh          -10437.70242 eV

Components:
Nuclear Repulsion  :          476.64755402 Eh           12970.23934 eV
Electronic Energy  :         -860.22608330 Eh          -23407.94176 eV
One Electron Energy:        -1448.35956928 Eh          -39411.86754 eV
Two Electron Energy:          588.13348598 Eh           16003.92578 eV
Max COSX asymmetry :            0.00000231 Eh               0.00006 eV
CPCM Dielectric    :           -0.07912803 Eh              -2.15318 eV

Virial components:
Potential Energy   :         -762.80100530 Eh          -20756.87061 eV
Kinetic Energy     :          379.22247603 Eh           10319.16819 eV
Virial Ratio       :            2.01148680


DFT components:
N(Alpha)           :       34.000061885290 electrons
N(Beta)            :       34.000061885290 electrons
N(Total)           :       68.000123770581 electrons
E(XC)              :      -38.882477308069 Eh       
DFET-embed. en.    :        0.000000000000 Eh       
CPCM Solvation Model Properties:
Surface-charge          :           -1.01562237
Charge-correction       :            0.00226166 Eh               0.06154 eV
Free-energy (cav+disp)  :  This term is not implemented in the current solvation scheme

---------------
SCF CONVERGENCE
---------------

  Last Energy change         ...   -2.7592e-09  Tolerance :   1.0000e-08
  Last MAX-Density change    ...    2.6645e-15  Tolerance :   1.0000e-07
  Last RMS-Density change    ...    3.1184e-17  Tolerance :   5.0000e-09
  Last Orbital Gradient      ...    3.5794e-06  Tolerance :   1.0000e-05
  Last Orbital Rotation      ...    6.5598e-06  Tolerance :   1.0000e-05

             **** THE GBW FILE WAS UPDATED (2_prot_aq_4.gbw) ****
             **** DENSITY 2_prot_aq_4.scfp WAS UPDATED ****
             **** ENERGY FILE WAS UPDATED (2_prot_aq_4.en.tmp) ****
             **** THE GBW FILE WAS UPDATED (2_prot_aq_4.gbw) ****
             **** DENSITY 2_prot_aq_4.scfp WAS UPDATED ****
----------------
ORBITAL ENERGIES
----------------

  NO   OCC          E(Eh)            E(eV) 
   0   2.0000     -14.508907      -394.8074 
   1   2.0000     -14.508698      -394.8017 
   2   2.0000     -10.373339      -282.2729 
   3   2.0000     -10.331488      -281.1341 
   4   2.0000     -10.327183      -281.0169 
   5   2.0000     -10.322929      -280.9012 
   6   2.0000     -10.321772      -280.8697 
   7   2.0000     -10.282410      -279.7986 
   8   2.0000     -10.282357      -279.7971 
   9   2.0000      -1.214996       -33.0617 
  10   2.0000      -1.098316       -29.8867 
  11   2.0000      -0.956803       -26.0359 
  12   2.0000      -0.915304       -24.9067 
  13   2.0000      -0.879576       -23.9345 
  14   2.0000      -0.829978       -22.5848 
  15   2.0000      -0.826882       -22.5006 
  16   2.0000      -0.736564       -20.0429 
  17   2.0000      -0.724861       -19.7245 
  18   2.0000      -0.665396       -18.1064 
  19   2.0000      -0.645264       -17.5585 
  20   2.0000      -0.609008       -16.5720 
  21   2.0000      -0.599710       -16.3189 
  22   2.0000      -0.583591       -15.8803 
  23   2.0000      -0.557281       -15.1644 
  24   2.0000      -0.544815       -14.8252 
  25   2.0000      -0.538077       -14.6418 
  26   2.0000      -0.529259       -14.4019 
  27   2.0000      -0.525066       -14.2878 
  28   2.0000      -0.513741       -13.9796 
  29   2.0000      -0.505193       -13.7470 
  30   2.0000      -0.503700       -13.7064 
  31   2.0000      -0.496714       -13.5163 
  32   2.0000      -0.411407       -11.1950 
  33   2.0000      -0.343646        -9.3511 
  34   0.0000       0.062351         1.6967 
  35   0.0000       0.106412         2.8956 
  36   0.0000       0.140741         3.8298 
  37   0.0000       0.159936         4.3521 
  38   0.0000       0.170745         4.6462 
  39   0.0000       0.187906         5.1132 
  40   0.0000       0.198677         5.4063 
  41   0.0000       0.199022         5.4157 
  42   0.0000       0.215851         5.8736 
  43   0.0000       0.221899         6.0382 
  44   0.0000       0.231595         6.3020 
  45   0.0000       0.235506         6.4084 
  46   0.0000       0.247544         6.7360 
  47   0.0000       0.253506         6.8982 
  48   0.0000       0.260378         7.0852 
  49   0.0000       0.271144         7.3782 
  50   0.0000       0.288890         7.8611 
  51   0.0000       0.300883         8.1874 
  52   0.0000       0.306242         8.3333 
  53   0.0000       0.342896         9.3307 
  54   0.0000       0.356850         9.7104 
  55   0.0000       0.394111        10.7243 
  56   0.0000       0.428300        11.6546 
  57   0.0000       0.436770        11.8851 
  58   0.0000       0.463035        12.5998 
  59   0.0000       0.471013        12.8169 
  60   0.0000       0.478404        13.0180 
  61   0.0000       0.498758        13.5719 
  62   0.0000       0.502681        13.6786 
  63   0.0000       0.552137        15.0244 
  64   0.0000       0.558433        15.1957 
  65   0.0000       0.569750        15.5037 
  66   0.0000       0.585724        15.9384 
  67   0.0000       0.609570        16.5872 
  68   0.0000       0.619894        16.8682 
  69   0.0000       0.641850        17.4656 
  70   0.0000       0.660101        17.9623 
  71   0.0000       0.679457        18.4890 
  72   0.0000       0.707817        19.2607 
  73   0.0000       0.712532        19.3890 
  74   0.0000       0.715603        19.4725 
  75   0.0000       0.733337        19.9551 
  76   0.0000       0.737523        20.0690 
  77   0.0000       0.747702        20.3460 
  78   0.0000       0.757823        20.6214 
  79   0.0000       0.759988        20.6803 
  80   0.0000       0.768979        20.9250 
  81   0.0000       0.769693        20.9444 
  82   0.0000       0.772088        21.0096 
  83   0.0000       0.779728        21.2175 
  84   0.0000       0.792708        21.5707 
  85   0.0000       0.804198        21.8833 
  86   0.0000       0.808923        22.0119 
  87   0.0000       0.816671        22.2228 
  88   0.0000       0.821200        22.3460 
  89   0.0000       0.821383        22.3510 
  90   0.0000       0.848215        23.0811 
  91   0.0000       0.853813        23.2334 
  92   0.0000       0.904834        24.6218 
  93   0.0000       0.926697        25.2167 
  94   0.0000       0.954873        25.9834 
  95   0.0000       0.970518        26.4091 
  96   0.0000       1.005162        27.3518 
  97   0.0000       1.038119        28.2486 
  98   0.0000       1.079559        29.3763 
  99   0.0000       1.095833        29.8191 
 100   0.0000       1.182903        32.1884 
 101   0.0000       1.209793        32.9201 
 102   0.0000       1.226717        33.3807 
 103   0.0000       1.260367        34.2963 
 104   0.0000       1.277113        34.7520 
 105   0.0000       1.285676        34.9850 
 106   0.0000       1.291443        35.1420 
 107   0.0000       1.292221        35.1631 
 108   0.0000       1.365645        37.1611 
 109   0.0000       1.393185        37.9105 
 110   0.0000       1.425617        38.7930 
 111   0.0000       1.511415        41.1277 
 112   0.0000       1.540552        41.9206 
 113   0.0000       1.593970        43.3741 
 114   0.0000       1.613411        43.9031 
 115   0.0000       1.622441        44.1489 
 116   0.0000       1.625154        44.2227 
 117   0.0000       1.627580        44.2887 
 118   0.0000       1.642090        44.6835 
 119   0.0000       1.645863        44.7862 
 120   0.0000       1.652753        44.9737 
 121   0.0000       1.656320        45.0708 
 122   0.0000       1.714449        46.6525 
 123   0.0000       1.773870        48.2694 
 124   0.0000       1.806344        49.1531 
 125   0.0000       1.832678        49.8697 
 126   0.0000       1.847062        50.2611 
 127   0.0000       1.862251        50.6744 
 128   0.0000       1.869566        50.8735 
 129   0.0000       1.871974        50.9390 
 130   0.0000       1.894315        51.5469 
 131   0.0000       1.896430        51.6045 
 132   0.0000       1.903597        51.7995 
 133   0.0000       1.904577        51.8262 
 134   0.0000       1.926037        52.4101 
 135   0.0000       1.931855        52.5685 
 136   0.0000       1.952717        53.1361 
 137   0.0000       1.954841        53.1939 
 138   0.0000       1.985923        54.0397 
 139   0.0000       1.993560        54.2475 
 140   0.0000       2.018422        54.9241 
 141   0.0000       2.039221        55.4900 
 142   0.0000       2.045750        55.6677 
 143   0.0000       2.090066        56.8736 
 144   0.0000       2.135245        58.1030 
 145   0.0000       2.140816        58.2546 
 146   0.0000       2.142574        58.3024 
 147   0.0000       2.187726        59.5310 
 148   0.0000       2.198599        59.8269 
 149   0.0000       2.202923        59.9446 
 150   0.0000       2.226213        60.5783 
 151   0.0000       2.261470        61.5377 
 152   0.0000       2.291699        62.3603 
 153   0.0000       2.349184        63.9245 
 154   0.0000       2.357714        64.1567 
 155   0.0000       2.377035        64.6824 
 156   0.0000       2.404426        65.4278 
 157   0.0000       2.428851        66.0924 
 158   0.0000       2.502508        68.0967 
 159   0.0000       2.512183        68.3600 
 160   0.0000       2.531693        68.8909 
 161   0.0000       2.548200        69.3400 
 162   0.0000       2.552877        69.4673 
 163   0.0000       2.562392        69.7262 
 164   0.0000       2.599963        70.7486 
 165   0.0000       2.609347        71.0039 
 166   0.0000       2.656357        72.2831 
 167   0.0000       2.670338        72.6636 
 168   0.0000       2.719486        74.0010 
 169   0.0000       2.780632        75.6648 
 170   0.0000       2.783562        75.7446 
 171   0.0000       2.848576        77.5137 
 172   0.0000       2.861596        77.8680 
 173   0.0000       2.883415        78.4617 
 174   0.0000       2.894459        78.7622 
 175   0.0000       2.908717        79.1502 
 176   0.0000       2.912065        79.2413 
 177   0.0000       2.926417        79.6319 
 178   0.0000       3.006334        81.8065 
 179   0.0000       3.013379        81.9982 
 180   0.0000       3.028867        82.4197 
 181   0.0000       3.060001        83.2669 
 182   0.0000       3.076303        83.7104 
 183   0.0000       3.078036        83.7576 
 184   0.0000       3.090953        84.1091 
 185   0.0000       3.135407        85.3188 
 186   0.0000       3.149080        85.6908 
 187   0.0000       3.300116        89.8007 
 188   0.0000       3.431044        93.3634 
 189   0.0000       3.520642        95.8015 
 190   0.0000       3.585469        97.5656 

                    ********************************
                    * MULLIKEN POPULATION ANALYSIS *
                    ********************************

-----------------------
MULLIKEN ATOMIC CHARGES
-----------------------
   0 N :   -0.192829
   1 C :    0.215999
   2 N :   -0.207309
   3 C :   -0.089888
   4 C :   -0.111086
   5 C :    0.086845
   6 C :    0.084457
   7 H :    0.088016
   8 H :    0.090026
   9 H :    0.088110
  10 H :    0.090061
  11 H :    0.090302
  12 H :    0.084725
  13 C :    0.075582
  14 C :    0.103136
  15 H :    0.052042
  16 H :    0.067774
  17 H :    0.067681
  18 H :    0.073978
  19 H :    0.051240
  20 H :    0.073890
  21 H :    0.117246
Sum of atomic charges:    1.0000000

--------------------------------
MULLIKEN REDUCED ORBITAL CHARGES
--------------------------------
  0 N s       :     3.388578  s :     3.388578
      pz      :     1.462047  p :     3.769912
      px      :     1.149825
      py      :     1.158040
      dz2     :     0.002365  d :     0.034339
      dxz     :     0.006069
      dyz     :     0.006894
      dx2y2   :     0.008451
      dxy     :     0.010560
  1 C s       :     3.087665  s :     3.087665
      pz      :     0.955851  p :     2.629119
      px      :     0.769912
      py      :     0.903356
      dz2     :     0.005150  d :     0.067217
      dxz     :     0.016576
      dyz     :     0.006383
      dx2y2   :     0.016724
      dxy     :     0.022384
  2 N s       :     3.393950  s :     3.393950
      pz      :     1.475116  p :     3.779477
      px      :     1.153628
      py      :     1.150733
      dz2     :     0.002372  d :     0.033882
      dxz     :     0.005538
      dyz     :     0.007125
      dx2y2   :     0.008079
      dxy     :     0.010769
  3 C s       :     3.083308  s :     3.083308
      pz      :     1.047743  p :     2.948114
      px      :     1.026375
      py      :     0.873997
      dz2     :     0.004453  d :     0.058466
      dxz     :     0.008842
      dyz     :     0.011295
      dx2y2   :     0.020297
      dxy     :     0.013579
  4 C s       :     3.093948  s :     3.093948
      pz      :     1.050254  p :     2.958612
      px      :     1.002053
      py      :     0.906304
      dz2     :     0.004539  d :     0.058526
      dxz     :     0.009727
      dyz     :     0.010097
      dx2y2   :     0.020330
      dxy     :     0.013832
  5 C s       :     2.992974  s :     2.992974
      pz      :     1.071985  p :     2.882470
      px      :     0.763672
      py      :     1.046813
      dz2     :     0.007258  d :     0.037712
      dxz     :     0.009497
      dyz     :     0.003118
      dx2y2   :     0.011411
      dxy     :     0.006427
  6 C s       :     2.995929  s :     2.995929
      pz      :     1.073869  p :     2.882126
      px      :     0.776442
      py      :     1.031814
      dz2     :     0.007359  d :     0.037488
      dxz     :     0.005194
      dyz     :     0.007355
      dx2y2   :     0.007674
      dxy     :     0.009905
  7 H s       :     0.887942  s :     0.887942
      pz      :     0.012695  p :     0.024042
      px      :     0.005543
      py      :     0.005804
  8 H s       :     0.885799  s :     0.885799
      pz      :     0.005010  p :     0.024175
      px      :     0.002575
      py      :     0.016590
  9 H s       :     0.887851  s :     0.887851
      pz      :     0.012746  p :     0.024039
      px      :     0.005520
      py      :     0.005773
 10 H s       :     0.885938  s :     0.885938
      pz      :     0.012488  p :     0.024001
      px      :     0.003016
      py      :     0.008498
 11 H s       :     0.885714  s :     0.885714
      pz      :     0.012767  p :     0.023984
      px      :     0.003049
      py      :     0.008168
 12 H s       :     0.890282  s :     0.890282
      pz      :     0.005182  p :     0.024993
      px      :     0.008894
      py      :     0.010916
 13 C s       :     2.902051  s :     2.902051
      pz      :     1.048474  p :     2.995673
      px      :     0.983147
      py      :     0.964052
      dz2     :     0.005466  d :     0.026694
      dxz     :     0.001977
      dyz     :     0.008084
      dx2y2   :     0.004610
      dxy     :     0.006557
 14 C s       :     2.877533  s :     2.877533
      pz      :     1.043919  p :     2.992420
      px      :     0.978817
      py      :     0.969684
      dz2     :     0.005412  d :     0.026911
      dxz     :     0.008416
      dyz     :     0.001993
      dx2y2   :     0.002956
      dxy     :     0.008134
 15 H s       :     0.922879  s :     0.922879
      pz      :     0.004986  p :     0.025079
      px      :     0.006971
      py      :     0.013122
 16 H s       :     0.907119  s :     0.907119
      pz      :     0.012303  p :     0.025107
      px      :     0.008510
      py      :     0.004293
 17 H s       :     0.907212  s :     0.907212
      pz      :     0.012283  p :     0.025106
      px      :     0.008531
      py      :     0.004293
 18 H s       :     0.900895  s :     0.900895
      pz      :     0.012228  p :     0.025128
      px      :     0.004945
      py      :     0.007954
 19 H s       :     0.923174  s :     0.923174
      pz      :     0.005175  p :     0.025586
      px      :     0.015299
      py      :     0.005111
 20 H s       :     0.900978  s :     0.900978
      pz      :     0.012195  p :     0.025132
      px      :     0.004957
      py      :     0.007980
 21 H s       :     0.857725  s :     0.857725
      pz      :     0.004671  p :     0.025029
      px      :     0.001318
      py      :     0.019040


                     *******************************
                     * LOEWDIN POPULATION ANALYSIS *
                     *******************************

----------------------
LOEWDIN ATOMIC CHARGES
----------------------
   0 N :    0.105552
   1 C :    0.119608
   2 N :    0.097559
   3 C :   -0.006620
   4 C :   -0.010485
   5 C :    0.052656
   6 C :    0.052557
   7 H :    0.051286
   8 H :    0.054498
   9 H :    0.051291
  10 H :    0.052337
  11 H :    0.052200
  12 H :    0.048996
  13 C :   -0.046973
  14 C :   -0.045556
  15 H :    0.051722
  16 H :    0.051755
  17 H :    0.051736
  18 H :    0.054265
  19 H :    0.046590
  20 H :    0.054273
  21 H :    0.060753

-------------------------------
LOEWDIN REDUCED ORBITAL CHARGES
-------------------------------
  0 N s       :     3.036351  s :     3.036351
      pz      :     1.389881  p :     3.779140
      px      :     1.186894
      py      :     1.202365
      dz2     :     0.004477  d :     0.078958
      dxz     :     0.009868
      dyz     :     0.013425
      dx2y2   :     0.023136
      dxy     :     0.028053
  1 C s       :     2.831311  s :     2.831311
      pz      :     0.976245  p :     2.892081
      px      :     0.894089
      py      :     1.021747
      dz2     :     0.011031  d :     0.157000
      dxz     :     0.034433
      dyz     :     0.010123
      dx2y2   :     0.042056
      dxy     :     0.059357
  2 N s       :     3.039153  s :     3.039153
      pz      :     1.401489  p :     3.785450
      px      :     1.187485
      py      :     1.196476
      dz2     :     0.004446  d :     0.077838
      dxz     :     0.009185
      dyz     :     0.013578
      dx2y2   :     0.022168
      dxy     :     0.028461
  3 C s       :     2.836128  s :     2.836128
      pz      :     1.032459  p :     3.031188
      px      :     1.053052
      py      :     0.945677
      dz2     :     0.009661  d :     0.139303
      dxz     :     0.017636
      dyz     :     0.020964
      dx2y2   :     0.054369
      dxy     :     0.036673
  4 C s       :     2.834875  s :     2.834875
      pz      :     1.038173  p :     3.035816
      px      :     1.054587
      py      :     0.943056
      dz2     :     0.009837  d :     0.139795
      dxz     :     0.018570
      dyz     :     0.019426
      dx2y2   :     0.054469
      dxy     :     0.037493
  5 C s       :     2.819029  s :     2.819029
      pz      :     1.098500  p :     3.033383
      px      :     0.862626
      py      :     1.072257
      dz2     :     0.018021  d :     0.094932
      dxz     :     0.025411
      dyz     :     0.006894
      dx2y2   :     0.029204
      dxy     :     0.015403
  6 C s       :     2.818940  s :     2.818940
      pz      :     1.100746  p :     3.034323
      px      :     0.871467
      py      :     1.062110
      dz2     :     0.018165  d :     0.094180
      dxz     :     0.011837
      dyz     :     0.020138
      dx2y2   :     0.018196
      dxy     :     0.025844
  7 H s       :     0.881433  s :     0.881433
      pz      :     0.034256  p :     0.067281
      px      :     0.016933
      py      :     0.016092
  8 H s       :     0.877740  s :     0.877740
      pz      :     0.013596  p :     0.067762
      px      :     0.008674
      py      :     0.045492
  9 H s       :     0.881433  s :     0.881433
      pz      :     0.034398  p :     0.067276
      px      :     0.016875
      py      :     0.016003
 10 H s       :     0.880229  s :     0.880229
      pz      :     0.033892  p :     0.067434
      px      :     0.009979
      py      :     0.023563
 11 H s       :     0.880397  s :     0.880397
      pz      :     0.034657  p :     0.067403
      px      :     0.010082
      py      :     0.022663
 12 H s       :     0.881589  s :     0.881589
      pz      :     0.014035  p :     0.069414
      px      :     0.025166
      py      :     0.030213
 13 C s       :     2.810882  s :     2.810882
      pz      :     1.084049  p :     3.163750
      px      :     1.048371
      py      :     1.031331
      dz2     :     0.014604  d :     0.072341
      dxz     :     0.003970
      dyz     :     0.022062
      dx2y2   :     0.013273
      dxy     :     0.018431
 14 C s       :     2.810242  s :     2.810242
      pz      :     1.079935  p :     3.162333
      px      :     1.044644
      py      :     1.037754
      dz2     :     0.014620  d :     0.072980
      dxz     :     0.022839
      dyz     :     0.003969
      dx2y2   :     0.008648
      dxy     :     0.022905
 15 H s       :     0.879895  s :     0.879895
      pz      :     0.013445  p :     0.068383
      px      :     0.019446
      py      :     0.035491
 16 H s       :     0.880112  s :     0.880112
      pz      :     0.032524  p :     0.068133
      px      :     0.022832
      py      :     0.012777
 17 H s       :     0.880127  s :     0.880127
      pz      :     0.032469  p :     0.068137
      px      :     0.022889
      py      :     0.012779
 18 H s       :     0.877734  s :     0.877734
      pz      :     0.032560  p :     0.068001
      px      :     0.013700
      py      :     0.021741
 19 H s       :     0.883493  s :     0.883493
      pz      :     0.013887  p :     0.069917
      px      :     0.041160
      py      :     0.014871
 20 H s       :     0.877718  s :     0.877718
      pz      :     0.032472  p :     0.068009
      px      :     0.013731
      py      :     0.021806
 21 H s       :     0.862668  s :     0.862668
      pz      :     0.015781  p :     0.076579
      px      :     0.007305
      py      :     0.053493


                      *****************************
                      * MAYER POPULATION ANALYSIS *
                      *****************************

  NA   - Mulliken gross atomic population
  ZA   - Total nuclear charge
  QA   - Mulliken gross atomic charge
  VA   - Mayer's total valence
  BVA  - Mayer's bonded valence
  FA   - Mayer's free valence

  ATOM       NA         ZA         QA         VA         BVA        FA
  0 N      7.1928     7.0000    -0.1928     3.5312     3.5312    -0.0000
  1 C      5.7840     6.0000     0.2160     3.8556     3.8556    -0.0000
  2 N      7.2073     7.0000    -0.2073     3.5182     3.5182     0.0000
  3 C      6.0899     6.0000    -0.0899     4.0326     4.0326    -0.0000
  4 C      6.1111     6.0000    -0.1111     4.0623     4.0623     0.0000
  5 C      5.9132     6.0000     0.0868     3.8724     3.8724     0.0000
  6 C      5.9155     6.0000     0.0845     3.8648     3.8648     0.0000
  7 H      0.9120     1.0000     0.0880     0.9927     0.9927     0.0000
  8 H      0.9100     1.0000     0.0900     0.9967     0.9967    -0.0000
  9 H      0.9119     1.0000     0.0881     0.9927     0.9927     0.0000
 10 H      0.9099     1.0000     0.0901     0.9926     0.9926     0.0000
 11 H      0.9097     1.0000     0.0903     0.9923     0.9923     0.0000
 12 H      0.9153     1.0000     0.0847     1.0047     1.0047    -0.0000
 13 C      5.9244     6.0000     0.0756     3.9558     3.9558    -0.0000
 14 C      5.8969     6.0000     0.1031     3.9496     3.9496     0.0000
 15 H      0.9480     1.0000     0.0520     1.0062     1.0062    -0.0000
 16 H      0.9322     1.0000     0.0678     0.9957     0.9957    -0.0000
 17 H      0.9323     1.0000     0.0677     0.9957     0.9957     0.0000
 18 H      0.9260     1.0000     0.0740     0.9919     0.9919    -0.0000
 19 H      0.9488     1.0000     0.0512     1.0103     1.0103    -0.0000
 20 H      0.9261     1.0000     0.0739     0.9920     0.9920    -0.0000
 21 H      0.8828     1.0000     0.1172     0.9983     0.9983     0.0000

  Mayer bond orders larger than 0.100000
B(  0-N ,  1-C ) :   1.3519 B(  0-N ,  4-C ) :   1.1856 B(  0-N ,  5-C ) :   0.9195 
B(  1-C ,  2-N ) :   1.3413 B(  1-C , 21-H ) :   0.9744 B(  2-N ,  3-C ) :   1.1872 
B(  2-N ,  6-C ) :   0.9073 B(  3-C ,  4-C ) :   1.5900 B(  3-C , 13-C ) :   1.0858 
B(  4-C , 14-C ) :   1.1017 B(  5-C ,  7-H ) :   0.9706 B(  5-C ,  8-H ) :   0.9689 
B(  5-C ,  9-H ) :   0.9706 B(  6-C , 10-H ) :   0.9725 B(  6-C , 11-H ) :   0.9727 
B(  6-C , 12-H ) :   0.9714 B( 13-C , 18-H ) :   0.9496 B( 13-C , 19-H ) :   0.9449 
B( 13-C , 20-H ) :   0.9496 B( 14-C , 15-H ) :   0.9355 B( 14-C , 16-H ) :   0.9462 
B( 14-C , 17-H ) :   0.9462 

-------
TIMINGS
-------

Total SCF time: 0 days 0 hours 4 min 2 sec 

Total time                  ....     242.430 sec
Sum of individual times     ....     241.997 sec  ( 99.8%)

Fock matrix formation       ....     238.140 sec  ( 98.2%)
  Split-RI-J                ....       9.022 sec  (  3.8% of F)
  Chain of spheres X        ....     190.358 sec  ( 79.9% of F)
  XC integration            ....      24.128 sec  ( 10.1% of F)
    Basis function eval.    ....       8.647 sec  ( 35.8% of XC)
    Density eval.           ....       5.522 sec  ( 22.9% of XC)
    XC-Functional eval.     ....       3.521 sec  ( 14.6% of XC)
    XC-Potential eval.      ....       5.731 sec  ( 23.8% of XC)
Diagonalization             ....       0.078 sec  (  0.0%)
Density matrix formation    ....       0.010 sec  (  0.0%)
Population analysis         ....       0.008 sec  (  0.0%)
Initial guess               ....       0.674 sec  (  0.3%)
Orbital Transformation      ....       0.000 sec  (  0.0%)
Orbital Orthonormalization  ....       0.000 sec  (  0.0%)
DIIS solution               ....       0.029 sec  (  0.0%)
SOSCF solution              ....       0.026 sec  (  0.0%)
Grid generation             ....       3.030 sec  (  1.2%)

Maximum memory used throughout the entire SCF-calculation: 78.8 MB


-------------------------------------------------------------------------------
                          DFT DISPERSION CORRECTION                            
                                                                               
                                 DFTD4 V2.5                                    
-------------------------------------------------------------------------------
The WB97X functional is recognized
Active option DFTDOPT                   ...         5   

Starting D4
-------------------------   ----------------
Dispersion correction           -0.002871113
-------------------------   ----------------


-------------------------   --------------------
FINAL SINGLE POINT ENERGY      -383.581400390816
-------------------------   --------------------

------------------------------------------------------------------------------
                         ORCA SCF GRADIENT CALCULATION
------------------------------------------------------------------------------

 ... reading COSX grid (gridx3)
Gradient of the Kohn-Sham DFT energy:
Kohn-Sham wavefunction type      ... RKS
Hartree-Fock exchange scaling    ...    0.158
Number of operators              ...    1
Number of atoms                  ...   22
Basis set dimensions             ...  191
Integral neglect threshold       ... 2.5e-11
Integral primitive cutoff        ... 2.5e-12
SHARK Integral package           ... ON

Nuc. rep. gradient       (SHARK) ... done (  0.0 sec)
HCore & Overlap gradient (SHARK) ... done (  0.4 sec)
RI-J gradient            (SHARK) ... done (  2.0 sec)
COSX-gradient                    ... done ( 38.8 sec)
Exchange-correlation gradient    ... done
Dispersion correction            ... Starting D4


------------------- 
Dispersion Gradient 
------------------- 
   1  :   -0.000011588   -0.000007079   -0.000000001
   2  :    0.000000190    0.000000872   -0.000000001
   3  :    0.000011070   -0.000006417   -0.000000010
   4  :    0.000001817   -0.000008314    0.000000001
   5  :   -0.000000316   -0.000011521   -0.000000003
   6  :   -0.000042855   -0.000017770   -0.000000007
   7  :    0.000042190   -0.000021244    0.000000025
   8  :   -0.000008598   -0.000005192    0.000000323
   9  :   -0.000009435   -0.000005728    0.000000001
  10  :   -0.000008599   -0.000005196   -0.000000325
  11  :    0.000009117   -0.000005862   -0.000000404
  12  :    0.000009098   -0.000005859    0.000000409
  13  :    0.000008751   -0.000005424   -0.000000018
  14  :    0.000026910    0.000032829   -0.000000011
  15  :   -0.000028161    0.000030144    0.000000011
  16  :   -0.000005687    0.000010313   -0.000000001
  17  :   -0.000008159    0.000006756    0.000001666
  18  :   -0.000008162    0.000006749   -0.000001659
  19  :    0.000006892    0.000009568   -0.000002110
  20  :    0.000008258    0.000006773    0.000000012
  21  :    0.000006885    0.000009577    0.000002102
  22  :    0.000000381   -0.000007974    0.000000002

  |G| =    0.000099625

done

------------------
CARTESIAN GRADIENT
------------------

   1   N   :   -0.013692467    0.003445722   -0.000025030
   2   C   :   -0.000727330   -0.005665972    0.000030036
   3   N   :    0.012949082    0.005338911    0.000072479
   4   C   :    0.010150487   -0.008125743   -0.000042701
   5   C   :   -0.008850318   -0.007318417   -0.000000099
   6   C   :    0.008902526    0.002106446    0.000019943
   7   C   :   -0.007206944    0.005795868   -0.000167438
   8   H   :    0.001363924   -0.001893344   -0.005129051
   9   H   :   -0.000846556    0.006185347   -0.000021922
  10   H   :    0.001362200   -0.001872784    0.005135862
  11   H   :   -0.000241857    0.002331477    0.004758430
  12   H   :   -0.000315694    0.002143781   -0.004812471
  13   H   :   -0.002617819   -0.005434229    0.000163073
  14   C   :    0.002358202    0.001508380    0.000010795
  15   C   :   -0.000687634    0.003920584    0.000002379
  16   H   :   -0.004214711   -0.007538401    0.000008222
  17   H   :    0.004812558   -0.000582621   -0.006613621
  18   H   :    0.004827996   -0.000581869    0.006613253
  19   H   :    0.000497974   -0.004434300    0.006139533
  20   H   :   -0.008331478    0.001992824   -0.000005206
  21   H   :    0.000543376   -0.004460256   -0.006135905
  22   H   :    0.000309556    0.013437503    0.000009004

Difference to translation invariance:
           :    0.0003450739    0.0002989087    0.0000095610

Difference to rotation invariance:
           :    0.0000766301   -0.0000482792    0.0007344112

Norm of the cartesian gradient     ...    0.0411781067
RMS gradient                       ...    0.0050686746
MAX gradient                       ...    0.0136924669

-------
TIMINGS
-------

Total SCF gradient time            ...       51.281 sec

One electron gradient       ....       0.387 sec  (  0.8%)
RI-J Coulomb gradient       ....       2.007 sec  (  3.9%)
COSX gradient               ....      38.772 sec  ( 75.6%)
XC gradient                 ....       7.969 sec  ( 15.5%)
CPCM gradient               ....       0.796 sec  (  1.6%)
   A-Matrix (El+Nuc)        ....       0.069 sec  (  0.1%)
   Potential                ....       0.726 sec  (  1.4%)

Maximum memory used throughout the entire SCFGRAD-calculation: 64.0 MB
------------------------------------------------------------------------------
                         ORCA GEOMETRY RELAXATION STEP
------------------------------------------------------------------------------

Reading the OPT-File                    .... done
Getting information on internals        .... done
Copying old internal coords+grads       .... done
Making the new internal coordinates     .... (new redundants).... done
Validating the new internal coordinates .... (new redundants).... done
Calculating the B-matrix                .... done
Calculating the G,G- and P matrices     .... done
Transforming gradient to internals      .... done
Projecting the internal gradient        .... done
Number of atoms                         ....  22
Number of internal coordinates          .... 105
Current Energy                          ....  -383.581400391 Eh
Current gradient norm                   ....     0.041178107 Eh/bohr
Maximum allowed component of the step   ....  0.300
Current trust radius                    ....  0.300
Evaluating the initial hessian          ....  (Almloef) done
Projecting the Hessian                  .... done
Forming the augmented Hessian           .... done
Diagonalizing the augmented Hessian     .... done
Last element of RFO vector              ....  0.995476906
Lowest eigenvalues of augmented Hessian:
 -0.003715389  0.014510378  0.014879814  0.018326542  0.018950784
Length of the computed step             ....  0.095435506
The final length of the internal step   ....  0.095435506
Converting the step to cartesian space:
 Initial RMS(Int)=    0.0093135517
Transforming coordinates:
 Iter   0:  RMS(Cart)=    0.0187649076 RMS(Int)=    0.0093178215
 Iter   1:  RMS(Cart)=    0.0000775803 RMS(Int)=    0.0000302813
 Iter   2:  RMS(Cart)=    0.0000006927 RMS(Int)=    0.0000004354
 Iter   3:  RMS(Cart)=    0.0000000053 RMS(Int)=    0.0000000036
done
Storing new coordinates                 .... done

                                .--------------------.
          ----------------------|Geometry convergence|-------------------------
          Item                value                   Tolerance       Converged
          ---------------------------------------------------------------------
          RMS gradient        0.0038838181            0.0001000000      NO
          MAX gradient        0.0134223729            0.0003000000      NO
          RMS step            0.0093135517            0.0020000000      NO
          MAX step            0.0345600002            0.0040000000      NO
          ........................................................
          Max(Bonds)      0.0183      Max(Angles)    0.58
          Max(Dihed)        0.30      Max(Improp)    0.00
          ---------------------------------------------------------------------

The optimization has not yet converged - more geometry cycles are needed


[...]
     49       0.001223  -0.000918  -0.000151   0.023358   0.001518   0.003764
     50      -0.018951   0.005199  -0.001604  -0.565793  -0.024660  -0.256241
     51       0.013381  -0.004212   0.001259  -0.417290  -0.018652   0.177691
     52       0.001196  -0.000914  -0.000152  -0.022670  -0.001486   0.003466
     53       0.018939  -0.005123   0.001569  -0.565621  -0.024772   0.256862
     54      -0.102276   0.001121   0.009452  -0.004824   0.115637   0.000399
     55       0.350339  -0.004389  -0.033450   0.017727  -0.400224  -0.002025
     56      -0.514800   0.006257   0.048663  -0.024855   0.566271   0.003078
     57       0.420981  -0.005610  -0.008862  -0.000041   0.001505   0.010668
     58      -0.129053   0.001458   0.006565   0.000012  -0.000467  -0.002841
     59       0.001180  -0.000017   0.000058   0.000430  -0.010430   0.000029
     60      -0.104505   0.001148   0.009665   0.004943  -0.118426   0.000359
     61       0.350391  -0.004387  -0.033399  -0.017771   0.401370  -0.001864
     62       0.512734  -0.006231  -0.048365  -0.024813   0.565475  -0.002846
     63      -0.000188  -0.001134   0.000942  -0.000000   0.000000  -0.000049
     64      -0.001121  -0.000941  -0.002515  -0.000004   0.000004  -0.000961
     65      -0.000003   0.000001  -0.000028   0.000017  -0.000060   0.000001
                 60         61         62         63         64         65    
      0       0.000003   0.000036  -0.000006   0.000576   0.000020  -0.003779
      1       0.000001  -0.000018  -0.000005   0.000489   0.000026   0.002834
      2      -0.000593   0.000000  -0.000019   0.000001   0.000004   0.000004
      3       0.000001  -0.000024  -0.000001  -0.000158   0.000504   0.000273
      4      -0.000001  -0.000107  -0.000011  -0.000263   0.000855  -0.093964
      5       0.000178   0.000005  -0.000221  -0.000002   0.000016  -0.000080
      6      -0.000000  -0.000491   0.000027  -0.000093   0.000275   0.003544
      7       0.000000  -0.000123  -0.000027   0.000063   0.000322   0.002914
      8       0.000078   0.000014  -0.000534  -0.000000  -0.000008  -0.000002
      9       0.000000   0.000700   0.000026  -0.000012  -0.000346  -0.000975
     10      -0.000000   0.000824   0.000005   0.000083  -0.000271   0.002098
     11       0.000043  -0.000003   0.000187  -0.000000  -0.000010   0.000001
     12       0.000000  -0.000064   0.000002   0.000609   0.000003   0.001009
     13       0.000001   0.000227   0.000004   0.000043   0.000128   0.002173
     14      -0.000083  -0.000001   0.000022   0.000001   0.000002   0.000002
     15      -0.000058  -0.000018  -0.000004   0.026792   0.000055  -0.000019
     16      -0.000124   0.000099   0.000016  -0.092451  -0.000107   0.000222
     17       0.096165  -0.000010   0.000329  -0.000103  -0.000002  -0.000002
     18      -0.000001   0.004943   0.000460   0.000082  -0.042091  -0.000609
     19      -0.000007   0.012970   0.002466   0.000049  -0.083277  -0.001336
     20      -0.000286  -0.002227   0.096290   0.000012   0.001983   0.000023
     21       0.325054   0.000124   0.000925  -0.164512  -0.000292   0.002204
     22      -0.246277  -0.000101  -0.000793   0.118830   0.000198  -0.000222
     23      -0.572934  -0.000263  -0.001842   0.301317   0.000466  -0.001963
     24      -0.000012   0.000005  -0.000002  -0.002079  -0.000041   0.001690
     25       0.002460  -0.000991  -0.000140   0.853937   0.000897  -0.004572
     26       0.008399   0.000003   0.000015  -0.001026  -0.000001   0.000002
     27      -0.324433   0.000183  -0.000890  -0.162384  -0.000281   0.002197
     28       0.245247  -0.000153   0.000762   0.116947   0.000192  -0.000222
     29      -0.574849   0.000378  -0.001772  -0.299072  -0.000462   0.001970
     30      -0.000299   0.006317   0.086285   0.000006  -0.039641  -0.001298
     31       0.001285  -0.025836  -0.411713  -0.000080   0.168486   0.002438
     32       0.001761  -0.037886  -0.567211  -0.000116   0.248430   0.003817
     33       0.000338   0.010759  -0.097426  -0.000024  -0.043273  -0.001303
     34      -0.001185  -0.038232   0.376995   0.000043   0.148369   0.002192
     35       0.001823   0.061471  -0.582979  -0.000059  -0.246927  -0.003824
     36      -0.000022  -0.072736   0.005020  -0.000956   0.571275   0.003847
     37      -0.000021  -0.080052   0.006404  -0.001068   0.684513   0.007405
     38      -0.000044   0.002773   0.009042   0.000039  -0.025012  -0.000238
     39      -0.000004  -0.078839  -0.001586  -0.000061  -0.010437  -0.000154
     40       0.000003   0.047366   0.000924   0.000025   0.005291  -0.000009
     41       0.000236  -0.000111  -0.000027  -0.000001  -0.000024   0.000001
     42      -0.000025   0.000955   0.000016   0.000044  -0.000031  -0.000011
     43      -0.000020   0.000748   0.000010   0.000220  -0.000097  -0.000196
     44      -0.001502  -0.000004  -0.000019   0.000002  -0.000002   0.000000
     45       0.000146  -0.004527  -0.000058  -0.001995   0.000584   0.000923
     46       0.000252  -0.009225  -0.000132  -0.003086   0.000885   0.001204
     47      -0.000611  -0.000007  -0.000003  -0.000001  -0.000004   0.000000
     48      -0.006159  -0.003101  -0.000197  -0.000063  -0.000099  -0.000522
     49      -0.001174  -0.000201   0.000049   0.000617   0.000052   0.000317
     50       0.008726   0.004210   0.000193   0.000695   0.000038   0.000416
     51       0.006325  -0.003094   0.000105  -0.000078  -0.000115  -0.000524
     52       0.001168  -0.000195  -0.000055   0.000615   0.000042   0.000318
     53       0.008954  -0.004201   0.000067  -0.000718  -0.000075  -0.000418
     54      -0.000336   0.040491   0.000950   0.000066   0.003501   0.000314
     55       0.000927  -0.165266  -0.003266  -0.000154  -0.016199   0.000235
     56      -0.001353   0.248578   0.004974   0.000180   0.024885  -0.000198
     57       0.000033   0.852139   0.017339   0.000874   0.124146   0.001668
     58      -0.000009  -0.251506  -0.005226  -0.000235  -0.041894  -0.000189
     59       0.000027   0.002351   0.000088   0.000003   0.000216   0.000003
     60       0.000347   0.041961   0.000631   0.000064   0.003563   0.000308
     61      -0.000947  -0.166665  -0.003133  -0.000147  -0.016203   0.000235
     62      -0.001376  -0.249580  -0.004644  -0.000168  -0.024846   0.000193
     63      -0.000002  -0.000149  -0.000035  -0.000886   0.000279  -0.000453
     64       0.000018   0.000104   0.000005   0.005862  -0.010974   0.995466
     65      -0.000401  -0.000018   0.001188   0.000011  -0.000046   0.000870


-----------
IR SPECTRUM
-----------

 Mode   freq       eps      Int      T**2         TX        TY        TZ
       cm**-1   L/(mol*cm) km/mol    a.u.
----------------------------------------------------------------------------
  8:     98.57   0.000044    0.22  0.000139  (-0.000017  0.000037 -0.011793)
  9:    139.57   0.000001    0.00  0.000002  (-0.000044 -0.000184 -0.001370)
 10:    158.70   0.000206    1.04  0.000406  (-0.000012  0.000042  0.020145)
 11:    170.49   0.001772    8.96  0.003244  (-0.000076  0.000104  0.056960)
 12:    264.11   0.000055    0.28  0.000065  (-0.007384 -0.003132  0.000502)
 13:    277.72   0.000463    2.34  0.000520  ( 0.008156 -0.021230  0.001637)
 14:    283.84   0.002118   10.70  0.002329  (-0.000093  0.000584  0.048253)
 15:    338.51   0.000085    0.43  0.000079  (-0.001050 -0.001224 -0.008722)
 16:    343.46   0.000216    1.09  0.000197  ( 0.009372  0.010357 -0.001243)
 17:    536.55   0.000407    2.06  0.000237  ( 0.014353 -0.005566 -0.000087)
 18:    579.15   0.000655    3.31  0.000353  ( 0.018772 -0.000731 -0.000080)
 19:    622.73   0.000684    3.46  0.000343  (-0.000231 -0.018505 -0.000419)
 20:    642.11   0.004521   22.85  0.002197  ( 0.000068  0.000207 -0.046875)
 21:    695.27   0.000000    0.00  0.000000  ( 0.000044  0.000065 -0.000465)
 22:    742.46   0.000686    3.47  0.000288  ( 0.000760 -0.016960  0.000055)
 23:    855.42   0.000942    4.76  0.000344  ( 0.016622 -0.007898  0.002203)
 24:    857.14   0.002957   14.94  0.001076  ( 0.001039 -0.000429 -0.032791)
 25:    976.39   0.001669    8.43  0.000533  ( 0.016430  0.016229  0.000121)
 26:   1036.41   0.001483    7.49  0.000446  (-0.000137 -0.000045  0.021128)
 27:   1067.58   0.000129    0.65  0.000038  ( 0.000062  0.000061  0.006136)
 28:   1082.20   0.000061    0.31  0.000018  ( 0.003011 -0.002914  0.000042)
 29:   1099.65   0.001743    8.81  0.000495  (-0.016754  0.014625  0.000125)
 30:   1124.75   0.002708   13.69  0.000751  ( 0.025993  0.008690  0.000478)
 31:   1136.85   0.000050    0.25  0.000014  ( 0.000488  0.001233 -0.003443)
 32:   1143.86   0.000121    0.61  0.000033  (-0.000084  0.000306 -0.005748)
 33:   1196.34   0.000251    1.27  0.000065  (-0.002952 -0.007528  0.000064)
 34:   1233.57   0.015928   80.49  0.004029  (-0.063309  0.004619  0.000040)
 35:   1282.66   0.000459    2.32  0.000112  ( 0.009580  0.004457 -0.000150)
 36:   1397.44   0.000668    3.38  0.000149  ( 0.005282 -0.011006 -0.000413)
 37:   1404.03   0.001243    6.28  0.000276  (-0.016460 -0.002252 -0.000438)
 38:   1413.22   0.000684    3.46  0.000151  (-0.011040  0.005406 -0.000109)
 39:   1431.74   0.006191   31.29  0.001349  (-0.034723  0.011859 -0.001772)
 40:   1436.99   0.003455   17.46  0.000750  (-0.000535 -0.000405 -0.027384)
 41:   1440.95   0.003754   18.97  0.000813  (-0.006625 -0.027631  0.002364)
 42:   1441.83   0.002567   12.97  0.000556  ( 0.000286  0.001954 -0.023488)
 43:   1442.92   0.004566   23.08  0.000988  (-0.013415 -0.028410  0.000695)
 44:   1447.11   0.004964   25.08  0.001070  (-0.000124  0.000082 -0.032717)
 45:   1450.32   0.005410   27.34  0.001164  (-0.002289  0.005561  0.033585)
 46:   1454.14   0.000240    1.21  0.000051  (-0.005413 -0.002682  0.003869)
 47:   1459.90   0.001198    6.06  0.000256  ( 0.008619 -0.013282  0.002333)
 48:   1480.78   0.004964   25.09  0.001046  ( 0.008422  0.031227  0.000197)
 49:   1532.86   0.001374    6.94  0.000280  ( 0.015698 -0.005767  0.000262)
 50:   1539.69   0.000527    2.66  0.000107  (-0.007048 -0.007563 -0.000009)
 51:   1666.37   0.029057  146.84  0.005441  ( 0.073749  0.001590  0.000176)
 52:   1727.69   0.007059   35.67  0.001275  (-0.011049  0.033954  0.000060)
 53:   3074.76   0.001958    9.89  0.000199  ( 0.011449 -0.008221 -0.000006)
 54:   3088.47   0.001648    8.33  0.000167  (-0.008673 -0.009556  0.000056)
 55:   3097.21   0.002173   10.98  0.000219  (-0.014288 -0.003851 -0.000022)
 56:   3110.63   0.002880   14.55  0.000289  ( 0.015691 -0.006532  0.000208)
 57:   3168.32   0.000601    3.04  0.000059  ( 0.000004 -0.000018  0.007695)
 58:   3180.35   0.000262    1.33  0.000026  ( 0.000010  0.000024 -0.005074)
 59:   3202.50   0.000355    1.80  0.000035  (-0.003776 -0.004514 -0.000008)
 60:   3212.34   0.000077    0.39  0.000008  (-0.000009 -0.000005  0.002743)
 61:   3215.61   0.000411    2.08  0.000040  (-0.005470  0.003153 -0.000038)
 62:   3220.05   0.000073    0.37  0.000007  (-0.000066  0.000137  0.002651)
 63:   3229.25   0.000006    0.03  0.000001  ( 0.000170 -0.000727 -0.000006)
 64:   3255.68   0.000068    0.34  0.000006  (-0.002171  0.001332  0.000002)
 65:   3300.63   0.011150   56.35  0.001054  (-0.000418  0.032465  0.000025)

* The epsilon (eps) is given for a Dirac delta lineshape.
** The dipole moment derivative (T) already includes vibrational overlap.

The first frequency considered to be a vibration is 8
The total number of vibrations considered is 58


--------------------------
THERMOCHEMISTRY AT 298.15K
--------------------------

Temperature         ... 298.15 K
Pressure            ... 1.00 atm
Total Mass          ... 125.19 AMU

Throughout the following assumptions are being made:
  (1) The electronic state is orbitally nondegenerate
  (2) There are no thermally accessible electronically excited states
  (3) Hindered rotations indicated by low frequency modes are not
      treated as such but are treated as vibrations and this may
      cause some error
  (4) All equations used are the standard statistical mechanics
      equations for an ideal gas
  (5) All vibrations are strictly harmonic

freq.      98.57  E(vib)   ...       0.46 
freq.     139.57  E(vib)   ...       0.42 
freq.     158.70  E(vib)   ...       0.39 
freq.     170.49  E(vib)   ...       0.38 
freq.     264.11  E(vib)   ...       0.29 
freq.     277.72  E(vib)   ...       0.28 
freq.     283.84  E(vib)   ...       0.28 
freq.     338.51  E(vib)   ...       0.23 
freq.     343.46  E(vib)   ...       0.23 
freq.     536.55  E(vib)   ...       0.12 
freq.     579.15  E(vib)   ...       0.11 
freq.     622.73  E(vib)   ...       0.09 
freq.     642.11  E(vib)   ...       0.09 
freq.     695.27  E(vib)   ...       0.07 
freq.     742.46  E(vib)   ...       0.06 
freq.     855.42  E(vib)   ...       0.04 
freq.     857.14  E(vib)   ...       0.04 
freq.     976.39  E(vib)   ...       0.03 
freq.    1036.41  E(vib)   ...       0.02 
freq.    1067.58  E(vib)   ...       0.02 
freq.    1082.20  E(vib)   ...       0.02 
freq.    1099.65  E(vib)   ...       0.02 
freq.    1124.75  E(vib)   ...       0.01 
freq.    1136.85  E(vib)   ...       0.01 
freq.    1143.86  E(vib)   ...       0.01 
freq.    1196.34  E(vib)   ...       0.01 
freq.    1233.57  E(vib)   ...       0.01 
freq.    1282.66  E(vib)   ...       0.01 
freq.    1397.44  E(vib)   ...       0.00 
freq.    1404.03  E(vib)   ...       0.00 
freq.    1413.22  E(vib)   ...       0.00 
freq.    1431.74  E(vib)   ...       0.00 
freq.    1436.99  E(vib)   ...       0.00 
freq.    1440.95  E(vib)   ...       0.00 
freq.    1441.83  E(vib)   ...       0.00 
freq.    1442.92  E(vib)   ...       0.00 
freq.    1447.11  E(vib)   ...       0.00 
freq.    1450.32  E(vib)   ...       0.00 
freq.    1454.14  E(vib)   ...       0.00 
freq.    1459.90  E(vib)   ...       0.00 
freq.    1480.78  E(vib)   ...       0.00 
freq.    1532.86  E(vib)   ...       0.00 
freq.    1539.69  E(vib)   ...       0.00 
freq.    1666.37  E(vib)   ...       0.00 
freq.    1727.69  E(vib)   ...       0.00 
freq.    3074.76  E(vib)   ...       0.00 
freq.    3088.47  E(vib)   ...       0.00 
freq.    3097.21  E(vib)   ...       0.00 
freq.    3110.63  E(vib)   ...       0.00 
freq.    3168.32  E(vib)   ...       0.00 
freq.    3180.35  E(vib)   ...       0.00 
freq.    3202.50  E(vib)   ...       0.00 
freq.    3212.34  E(vib)   ...       0.00 
freq.    3215.61  E(vib)   ...       0.00 
freq.    3220.05  E(vib)   ...       0.00 
freq.    3229.25  E(vib)   ...       0.00 
freq.    3255.68  E(vib)   ...       0.00 
freq.    3300.63  E(vib)   ...       0.00 

------------
INNER ENERGY
------------

The inner energy is: U= E(el) + E(ZPE) + E(vib) + E(rot) + E(trans)
    E(el)   - is the total energy from the electronic structure calculation
              = E(kin-el) + E(nuc-el) + E(el-el) + E(nuc-nuc)
    E(ZPE)  - the the zero temperature vibrational energy from the frequency calculation
    E(vib)  - the the finite temperature correction to E(ZPE) due to population
              of excited vibrational states
    E(rot)  - is the rotational thermal energy
    E(trans)- is the translational thermal energy

Summary of contributions to the inner energy U:
Electronic energy                ...   -383.58358035 Eh
Zero point energy                ...      0.19708383 Eh     123.67 kcal/mol
Thermal vibrational correction   ...      0.00608702 Eh       3.82 kcal/mol
Thermal rotational correction    ...      0.00141627 Eh       0.89 kcal/mol
Thermal translational correction ...      0.00141627 Eh       0.89 kcal/mol
-----------------------------------------------------------------------
Total thermal energy                   -383.37757696 Eh


Summary of corrections to the electronic energy:
(perhaps to be used in another calculation)
Total thermal correction                  0.00891956 Eh       5.60 kcal/mol
Non-thermal (ZPE) correction              0.19708383 Eh     123.67 kcal/mol
-----------------------------------------------------------------------
Total correction                          0.20600339 Eh     129.27 kcal/mol


--------
ENTHALPY
--------

The enthalpy is H = U + kB*T
                kB is Boltzmann's constant
Total free energy                 ...   -383.37757696 Eh 
Thermal Enthalpy correction       ...      0.00094421 Eh       0.59 kcal/mol
-----------------------------------------------------------------------
Total Enthalpy                    ...   -383.37663275 Eh


Note: Only C1 symmetry has been detected, increase convergence thresholds 
      if your molecule has a higher symmetry. Symmetry factor of 1.0 is   
      used for the rotational entropy correction. 
 

Note: Rotational entropy computed according to Herzberg 
Infrared and Raman Spectra, Chapter V,1, Van Nostrand Reinhold, 1945 
Point Group:  C1, Symmetry Number:   1  
Rotational constants in cm-1:     0.078943     0.051122     0.031783 

Vibrational entropy computed according to the QRRHO of S. Grimme
Chem.Eur.J. 2012 18 9955


-------
ENTROPY
-------

The entropy contributions are T*S = T*(S(el)+S(vib)+S(rot)+S(trans))
     S(el)   - electronic entropy
     S(vib)  - vibrational entropy
     S(rot)  - rotational entropy
     S(trans)- translational entropy
The entropies will be listed as multiplied by the temperature to get
units of energy

Electronic entropy                ...      0.00000000 Eh      0.00 kcal/mol
Vibrational entropy               ...      0.01028771 Eh      6.46 kcal/mol
Rotational entropy                ...      0.01374139 Eh      8.62 kcal/mol
Translational entropy             ...      0.01918948 Eh     12.04 kcal/mol
-----------------------------------------------------------------------
Final entropy term                ...      0.04321858 Eh     27.12 kcal/mol

In case the symmetry of your molecule has not been determined correctly
or in case you have a reason to use a different symmetry number we print 
out the resulting rotational entropy values for sn=1,12 :
 --------------------------------------------------------
|  sn= 1 | S(rot)=       0.01374139 Eh      8.62 kcal/mol|
|  sn= 2 | S(rot)=       0.01308694 Eh      8.21 kcal/mol|
|  sn= 3 | S(rot)=       0.01270411 Eh      7.97 kcal/mol|
|  sn= 4 | S(rot)=       0.01243248 Eh      7.80 kcal/mol|
|  sn= 5 | S(rot)=       0.01222179 Eh      7.67 kcal/mol|
|  sn= 6 | S(rot)=       0.01204965 Eh      7.56 kcal/mol|
|  sn= 7 | S(rot)=       0.01190410 Eh      7.47 kcal/mol|
|  sn= 8 | S(rot)=       0.01177803 Eh      7.39 kcal/mol|
|  sn= 9 | S(rot)=       0.01166682 Eh      7.32 kcal/mol|
|  sn=10 | S(rot)=       0.01156734 Eh      7.26 kcal/mol|
|  sn=11 | S(rot)=       0.01147735 Eh      7.20 kcal/mol|
|  sn=12 | S(rot)=       0.01139519 Eh      7.15 kcal/mol|
 --------------------------------------------------------


-------------------
GIBBS FREE ENERGY
-------------------

The Gibbs free energy is G = H - T*S

Total enthalpy                    ...   -383.37663275 Eh 
Total entropy correction          ...     -0.04321858 Eh    -27.12 kcal/mol
-----------------------------------------------------------------------
Final Gibbs free energy         ...   -383.41985134 Eh

For completeness - the Gibbs free energy minus the electronic energy
G-E(el)                           ...      0.16372902 Eh    102.74 kcal/mol


Timings for individual modules:

Sum of individual times         ...     2160.099 sec (=  36.002 min)
GTO integral calculation        ...        1.548 sec (=   0.026 min)   0.1 %
SCF iterations                  ...     1013.425 sec (=  16.890 min)  46.9 %
SCF Gradient evaluation         ...      255.799 sec (=   4.263 min)  11.8 %
Geometry relaxation             ...        0.269 sec (=   0.004 min)   0.0 %
Analytical frequency calculation...      889.057 sec (=  14.818 min)  41.2 %
                             ****ORCA TERMINATED NORMALLY****
TOTAL RUN TIME: 0 days 0 hours 36 minutes 0 seconds 861 msec
