
                                 *****************
                                 * O   R   C   A *
                                 *****************

                                            #,                                       
                                            ###                                      
                                            ####                                     
                                            #####                                    
                                            ######                                   
                                           ########,                                 
                                     ,,################,,,,,                         
                               ,,#################################,,                 
                          ,,##########################################,,             
                       ,#########################################, ''#####,          
                    ,#############################################,,   '####,        
                  ,##################################################,,,,####,       
                ,###########''''           ''''###############################       
              ,#####''   ,,,,##########,,,,          '''####'''          '####       
            ,##' ,,,,###########################,,,                        '##       
           ' ,,###''''                  '''############,,,                           
         ,,##''                                '''############,,,,        ,,,,,,###''
      ,#''                                            '''#######################'''  
     '                                                          ''''####''''         
             ,#######,   #######,   ,#######,      ##                                
            ,#'     '#,  ##    ##  ,#'     '#,    #''#        ######   ,####,        
            ##       ##  ##   ,#'  ##            #'  '#       #        #'  '#        
            ##       ##  #######   ##           ,######,      #####,   #    #        
            '#,     ,#'  ##    ##  '#,     ,#' ,#      #,         ##   #,  ,#        
             '#######'   ##     ##  '#######'  #'      '#     #####' # '####'        



                  #######################################################
                  #                        -***-                        #
                  #          Department of theory and spectroscopy      #
                  #    Directorship and core code : Frank Neese         #
                  #        Max Planck Institute fuer Kohlenforschung    #
                  #                Kaiser Wilhelm Platz 1               #
                  #                 D-45470 Muelheim/Ruhr               #
                  #                      Germany                        #
                  #                                                     #
                  #                  All rights reserved                #
                  #                        -***-                        #
                  #######################################################


                         Program Version 5.0.4 -  RELEASE  -


 With contributions from (in alphabetic order):
   Daniel Aravena         : Magnetic Suceptibility
   Michael Atanasov       : Ab Initio Ligand Field Theory (pilot matlab implementation)
   Alexander A. Auer      : GIAO ZORA, VPT2 properties, NMR spectrum
   Ute Becker             : Parallelization
   Giovanni Bistoni       : ED, misc. LED, open-shell LED, HFLD
   Martin Brehm           : Molecular dynamics
   Dmytro Bykov           : SCF Hessian
   Vijay G. Chilkuri      : MRCI spin determinant printing, contributions to CSF-ICE
   Dipayan Datta          : RHF DLPNO-CCSD density
   Achintya Kumar Dutta   : EOM-CC, STEOM-CC
   Dmitry Ganyushin       : Spin-Orbit,Spin-Spin,Magnetic field MRCI
   Miquel Garcia          : C-PCM and meta-GGA Hessian, CC/C-PCM, Gaussian charge scheme
   Yang Guo               : DLPNO-NEVPT2, F12-NEVPT2, CIM, IAO-localization
   Andreas Hansen         : Spin unrestricted coupled pair/coupled cluster methods
   Benjamin Helmich-Paris : MC-RPA, TRAH-SCF, COSX integrals
   Lee Huntington         : MR-EOM, pCC
   Robert Izsak           : Overlap fitted RIJCOSX, COSX-SCS-MP3, EOM
   Marcus Kettner         : VPT2
   Christian Kollmar      : KDIIS, OOCD, Brueckner-CCSD(T), CCSD density, CASPT2, CASPT2-K
   Simone Kossmann        : Meta GGA functionals, TD-DFT gradient, OOMP2, MP2 Hessian
   Martin Krupicka        : Initial AUTO-CI
   Lucas Lang             : DCDCAS
   Marvin Lechner         : AUTO-CI (C++ implementation), FIC-MRCC
   Dagmar Lenk            : GEPOL surface, SMD
   Dimitrios Liakos       : Extrapolation schemes; Compound Job, initial MDCI parallelization
   Dimitrios Manganas     : Further ROCIS development; embedding schemes
   Dimitrios Pantazis     : SARC Basis sets
   Anastasios Papadopoulos: AUTO-CI, single reference methods and gradients
   Taras Petrenko         : DFT Hessian,TD-DFT gradient, ASA, ECA, R-Raman, ABS, FL, XAS/XES, NRVS
   Peter Pinski           : DLPNO-MP2, DLPNO-MP2 Gradient
   Christoph Reimann      : Effective Core Potentials
   Marius Retegan         : Local ZFS, SOC
   Christoph Riplinger    : Optimizer, TS searches, QM/MM, DLPNO-CCSD(T), (RO)-DLPNO pert. Triples
   Tobias Risthaus        : Range-separated hybrids, TD-DFT gradient, RPA, STAB
   Michael Roemelt        : Original ROCIS implementation
   Masaaki Saitow         : Open-shell DLPNO-CCSD energy and density
   Barbara Sandhoefer     : DKH picture change effects
   Avijit Sen             : IP-ROCIS
   Kantharuban Sivalingam : CASSCF convergence, NEVPT2, FIC-MRCI
   Bernardo de Souza      : ESD, SOC TD-DFT
   Georgi Stoychev        : AutoAux, RI-MP2 NMR, DLPNO-MP2 response
   Willem Van den Heuvel  : Paramagnetic NMR
   Boris Wezisla          : Elementary symmetry handling
   Frank Wennmohs         : Technical directorship


 We gratefully acknowledge several colleagues who have allowed us to
 interface, adapt or use parts of their codes:
   Stefan Grimme, W. Hujo, H. Kruse, P. Pracht,  : VdW corrections, initial TS optimization,
                  C. Bannwarth, S. Ehlert          DFT functionals, gCP, sTDA/sTD-DF
   Ed Valeev, F. Pavosevic, A. Kumar             : LibInt (2-el integral package), F12 methods
   Garnet Chan, S. Sharma, J. Yang, R. Olivares  : DMRG
   Ulf Ekstrom                                   : XCFun DFT Library
   Mihaly Kallay                                 : mrcc  (arbitrary order and MRCC methods)
   Jiri Pittner, Ondrej Demel                    : Mk-CCSD
   Frank Weinhold                                : gennbo (NPA and NBO analysis)
   Christopher J. Cramer and Donald G. Truhlar   : smd solvation model
   Lars Goerigk                                  : TD-DFT with DH, B97 family of functionals
   V. Asgeirsson, H. Jonsson                     : NEB implementation
   FAccTs GmbH                                   : IRC, NEB, NEB-TS, DLPNO-Multilevel, CI-OPT
                                                   MM, QMMM, 2- and 3-layer-ONIOM, Crystal-QMMM,
                                                   LR-CPCM, SF, NACMEs, symmetry and pop. for TD-DFT,
                                                   nearIR, NL-DFT gradient (VV10), updates on ESD,
                                                   ML-optimized integration grids
   S Lehtola, MJT Oliveira, MAL Marques          : LibXC Library
   Liviu Ungur et al                             : ANISO software


 Your calculation uses the libint2 library for the computation of 2-el integrals
 For citations please refer to: http://libint.valeyev.net

 Your ORCA version has been built with support for libXC version: 5.1.0
 For citations please refer to: https://tddft.org/programs/libxc/

 This ORCA versions uses:
   CBLAS   interface :  Fast vector & matrix operations
   LAPACKE interface :  Fast linear algebra routines
   SCALAPACK package :  Parallel linear algebra routines
   Shared memory     :  Shared parallel matrices
   BLAS/LAPACK       :  OpenBLAS 0.3.15  USE64BITINT DYNAMIC_ARCH NO_AFFINITY SkylakeX SINGLE_THREADED
        Core in use  :  SkylakeX
   Copyright (c) 2011-2014, The OpenBLAS Project




***************************************
The coordinates will be read from file: 3_deprot_aq_1.xyz
***************************************


Your calculation utilizes the atom-pairwise dispersion correction
based on tight binding partial charges (D4)
Cite in your paper:
E.Caldeweyher, C.Bannwarth, S.Grimme, J.Chem.Phys., (2017), 147, 034112.
E.Caldeweyher, S.Ehlert, A.Hansen, H.Neugebauer, S.Grimme, J.Chem.Phys., (2018), in progress.
   

XCFun DFT library Copyright 2009-2010 Ulf Ekstrom and contributors.
See http://admol.org/xcfun for more information.
This is free software; see the source code for copying conditions.
There is ABSOLUTELY NO WARRANTY; not even for MERCHANTABILITY or FITNESS FOR A PARTICULAR PURPOSE.
For details see the documentation.
Scientific users of this library should cite U. Ekstrom, L. Visscher, R. Bast, A. J. Thorvaldsen and K. Ruud;
J.Chem.Theor.Comp. 2010, DOI: 10.1021/ct100117s
XCFun Version 0.99 

================================================================================

----- Orbital basis set information -----
Your calculation utilizes the basis: def2-SVP
   F. Weigend and R. Ahlrichs, Phys. Chem. Chem. Phys. 7, 3297 (2005).

----- AuxJ basis set information -----
Your calculation utilizes the auxiliary basis: def2/J
   F. Weigend, Phys. Chem. Chem. Phys. 8, 1057 (2006).

================================================================================
                                        WARNINGS
                       Please study these warnings very carefully!
================================================================================


WARNING: Geometry Optimization
  ===> : Switching off AutoStart
         For restart on a previous wavefunction, please use MOREAD

INFO   : the flag for use of the SHARK integral package has been found!

================================================================================
                                       INPUT FILE
================================================================================
NAME = 3_deprot_aq_1.inp
|  1> # ORCA 5.0.4 - /users/bwb16179/postgrad/2024_03/DFT_Crest_Conformers/Opt/deprot/3_deprot_aq_1.inp # write input file
|  2> # Basic Mode
|  3> #
|  4> ! Opt Freq wB97X Def2-SVP D4 SlowConv TightSCF Defgrid2 Def2/J RIJCOSX CPCM(Water)
|  5> 
|  6> 
|  7> 
|  8> %maxcore 4500
|  9> 
| 10> %geom
| 11> Maxiter 150
| 12> END
| 13> 
| 14> * xyzfile 0 1 3_deprot_aq_1.xyz
| 15> 
| 16>                          ****END OF INPUT****
================================================================================

                       *****************************
                       * Geometry Optimization Run *
                       *****************************

Geometry optimization settings:
Update method            Update   .... BFGS
Choice of coordinates    CoordSys .... Z-matrix Internals
Initial Hessian          InHess   .... Almoef's Model

Convergence Tolerances:
Energy Change            TolE     ....  5.0000e-06 Eh
Max. Gradient            TolMAXG  ....  3.0000e-04 Eh/bohr
RMS Gradient             TolRMSG  ....  1.0000e-04 Eh/bohr
Max. Displacement        TolMAXD  ....  4.0000e-03 bohr
RMS Displacement         TolRMSD  ....  2.0000e-03 bohr
Strict Convergence                ....  False
------------------------------------------------------------------------------
                        ORCA OPTIMIZATION COORDINATE SETUP
------------------------------------------------------------------------------

The optimization will be done in new redundant internal coordinates
Making redundant internal coordinates   ...  (new redundants) done
Evaluating the initial hessian          ...  (Almloef) done
Evaluating the coordinates              ...  done
Calculating the B-matrix                .... done
Calculating the G-matrix                .... done
Diagonalizing the G-matrix              .... done
The first mode is                       ....   29
The number of degrees of freedom        ....   39

    -----------------------------------------------------------------
                    Redundant Internal Coordinates


    -----------------------------------------------------------------
         Definition                    Initial Value    Approx d2E/dq
    -----------------------------------------------------------------
      1. B(C   1,N   0)                  1.3561         0.633910   
      2. B(N   2,C   1)                  1.3561         0.633867   
      3. B(C   3,N   2)                  1.3727         0.596415   
      4. B(C   4,C   3)                  1.3628         0.690443   
      5. B(C   4,N   0)                  1.3727         0.596408   
      6. B(C   5,N   0)                  1.4350         0.474342   
      7. B(C   6,N   2)                  1.4350         0.474382   
      8. B(H   7,C   5)                  1.0916         0.358023   
      9. B(H   8,C   5)                  1.0916         0.358003   
     10. B(H   9,C   5)                  1.0873         0.363711   
     11. B(H  10,C   6)                  1.0916         0.358006   
     12. B(H  11,C   6)                  1.0873         0.363706   
     13. B(H  12,C   6)                  1.0916         0.358007   
     14. B(Cl 13,C   3)                  1.7082         0.435637   
     15. B(Cl 14,C   4)                  1.7082         0.435624   
     16. A(C   1,N   0,C   5)          124.3355         0.410058   
     17. A(C   4,N   0,C   5)          124.3233         0.405657   
     18. A(C   1,N   0,C   4)          111.3412         0.427137   
     19. A(N   0,C   1,N   2)          104.3374         0.431831   
     20. A(C   1,N   2,C   3)          111.3395         0.427133   
     21. A(C   1,N   2,C   6)          124.3396         0.410059   
     22. A(C   3,N   2,C   6)          124.3209         0.405664   
     23. A(C   4,C   3,Cl 13)          130.0115         0.434261   
     24. A(N   2,C   3,C   4)          106.4919         0.436600   
     25. A(N   2,C   3,Cl 13)          123.4966         0.420259   
     26. A(N   0,C   4,Cl 14)          123.4998         0.420256   
     27. A(N   0,C   4,C   3)          106.4900         0.436599   
     28. A(C   3,C   4,Cl 14)          130.0102         0.434258   
     29. A(H   8,C   5,H   9)          109.7062         0.291028   
     30. A(H   7,C   5,H   9)          109.7116         0.291031   
     31. A(N   0,C   5,H   9)          107.6715         0.335901   
     32. A(H   7,C   5,H   8)          108.7157         0.290309   
     33. A(N   0,C   5,H   8)          110.5144         0.335019   
     34. A(N   0,C   5,H   7)          110.5116         0.335022   
     35. A(H  11,C   6,H  12)          109.7072         0.291028   
     36. A(H  10,C   6,H  12)          108.7170         0.290307   
     37. A(N   2,C   6,H  12)          110.5127         0.335024   
     38. A(H  10,C   6,H  11)          109.7070         0.291028   
     39. A(N   2,C   6,H  11)          107.6737         0.335905   
     40. A(N   2,C   6,H  10)          110.5135         0.335024   
     41. D(N   2,C   1,N   0,C   5)   -179.9927         0.029580   
     42. D(N   2,C   1,N   0,C   4)     -0.0010         0.029580   
     43. D(C   3,N   2,C   1,N   0)      0.0007         0.029576   
     44. D(C   6,N   2,C   1,N   0)   -179.9997         0.029576   
     45. D(Cl 13,C   3,N   2,C   1)   -179.9985         0.028638   
     46. D(C   4,C   3,N   2,C   6)   -179.9997         0.028638   
     47. D(Cl 13,C   3,N   2,C   6)      0.0019         0.028638   
     48. D(C   4,C   3,N   2,C   1)     -0.0001         0.028638   
     49. D(N   0,C   4,C   3,Cl 13)    179.9977         0.033498   
     50. D(N   0,C   4,C   3,N   2)     -0.0006         0.033498   
     51. D(Cl 14,C   4,N   0,C   5)     -0.0075         0.028637   
     52. D(C   3,C   4,N   0,C   5)    179.9927         0.028637   
     53. D(Cl 14,C   4,N   0,C   1)   -179.9992         0.028637   
     54. D(Cl 14,C   4,C   3,N   2)    179.9996         0.033498   
     55. D(Cl 14,C   4,C   3,Cl 13)     -0.0021         0.033498   
     56. D(C   3,C   4,N   0,C   1)      0.0010         0.028637   
     57. D(H   9,C   5,N   0,C   4)    179.9109         0.019233   
     58. D(H   9,C   5,N   0,C   1)     -0.0986         0.019233   
     59. D(H   8,C   5,N   0,C   4)    -60.2829         0.019233   
     60. D(H   8,C   5,N   0,C   1)    119.7076         0.019233   
     61. D(H   7,C   5,N   0,C   4)     60.0997         0.019233   
     62. D(H   7,C   5,N   0,C   1)   -119.9097         0.019233   
     63. D(H  12,C   6,N   2,C   3)     60.1860         0.019236   
     64. D(H  12,C   6,N   2,C   1)   -119.8136         0.019236   
     65. D(H  11,C   6,N   2,C   3)    179.9937         0.019236   
     66. D(H  11,C   6,N   2,C   1)     -0.0059         0.019236   
     67. D(H  10,C   6,N   2,C   3)    -60.1984         0.019236   
     68. D(H  10,C   6,N   2,C   1)    119.8020         0.019236   
    -----------------------------------------------------------------

Number of atoms                         .... 15
Number of degrees of freedom            .... 68

         *************************************************************
         *                GEOMETRY OPTIMIZATION CYCLE   1            *
         *************************************************************
---------------------------------
CARTESIAN COORDINATES (ANGSTROEM)
---------------------------------
  N     -1.071059   -1.174356   -0.000057
  C     -0.000026   -2.006090   -0.000037
  N      1.071040   -1.174368   -0.000006
  C      0.681389    0.141821    0.000009
  C     -0.681416    0.141839   -0.000015
  C     -2.437108   -1.613804    0.000060
  C      2.437089   -1.613741    0.000017
  H     -2.957381   -1.245721   -0.886150
  H     -2.956378   -1.248552    0.888045
  H     -2.434053   -2.701083   -0.001620
  H      2.956839   -1.247139   -0.887128
  H      2.434127   -2.701025    0.000112
  H      2.956846   -1.246981    0.887091
  Cl     1.779655    1.450115    0.000009
  Cl    -1.779623    1.450193   -0.000005

----------------------------
CARTESIAN COORDINATES (A.U.)
----------------------------
  NO LB      ZA    FRAG     MASS         X           Y           Z
   0 N     7.0000    0    14.007   -2.024008   -2.219211   -0.000107
   1 C     6.0000    0    12.011   -0.000049   -3.790961   -0.000070
   2 N     7.0000    0    14.007    2.023972   -2.219234   -0.000011
   3 C     6.0000    0    12.011    1.287638    0.268003    0.000016
   4 C     6.0000    0    12.011   -1.287689    0.268036   -0.000029
   5 C     6.0000    0    12.011   -4.605467   -3.049647    0.000113
   6 C     6.0000    0    12.011    4.605431   -3.049529    0.000032
   7 H     1.0000    0     1.008   -5.588640   -2.354072   -1.674580
   8 H     1.0000    0     1.008   -5.586745   -2.359421    1.678162
   9 H     1.0000    0     1.008   -4.599693   -5.104306   -0.003062
  10 H     1.0000    0     1.008    5.587616   -2.356752   -1.676429
  11 H     1.0000    0     1.008    4.599834   -5.104198    0.000211
  12 H     1.0000    0     1.008    5.587629   -2.356453    1.676359
  13 Cl   17.0000    0    35.453    3.363061    2.740320    0.000017
  14 Cl   17.0000    0    35.453   -3.363000    2.740467   -0.000010

--------------------------------
INTERNAL COORDINATES (ANGSTROEM)
--------------------------------
 N      0   0   0     0.000000000000     0.00000000     0.00000000
 C      1   0   0     1.356058062710     0.00000000     0.00000000
 N      2   1   0     1.356076613152   104.33742268     0.00000000
 C      3   2   1     1.372654816822   111.33953941     0.00000000
 C      4   3   2     1.362804150324   106.49187052     0.00000000
 C      1   2   3     1.434993176633   124.33549736   180.00733360
 C      3   2   1     1.434970159006   124.33955363   180.00031529
 H      6   1   2     1.091574681326   110.51157074   240.09027100
 H      6   1   2     1.091589947043   110.51441362   119.70764601
 H      6   1   2     1.087284251085   107.67154964   359.90142277
 H      7   3   2     1.091587391981   110.51348358   119.80200008
 H      7   3   2     1.087287957569   107.67371390     0.00000000
 H      7   3   2     1.091586696628   110.51273627   240.18636264
 Cl     4   3   2     1.708163598205   123.49659564   180.00154696
 Cl     5   4   3     1.708171648162   130.01020139   179.99964795

---------------------------
INTERNAL COORDINATES (A.U.)
---------------------------
 N      0   0   0     0.000000000000     0.00000000     0.00000000
 C      1   0   0     2.562578360218     0.00000000     0.00000000
 N      2   1   0     2.562613415473   104.33742268     0.00000000
 C      3   2   1     2.593941680201   111.33953941     0.00000000
 C      4   3   2     2.575326618283   106.49187052     0.00000000
 C      1   2   3     2.711744107881   124.33549736   180.00733360
 C      3   2   1     2.711700610870   124.33955363   180.00031529
 H      6   1   2     2.062777202428   110.51157074   240.09027100
 H      6   1   2     2.062806050453   110.51441362   119.70764601
 H      6   1   2     2.054669464276   107.67154964   359.90142277
 H      7   3   2     2.062801222086   110.51348358   119.80200008
 H      7   3   2     2.054676468517   107.67371390     0.00000000
 H      7   3   2     2.062799908058   110.51273627   240.18636264
 Cl     4   3   2     3.227961392541   123.49659564   180.00154696
 Cl     5   4   3     3.227976604754   130.01020139   179.99964795

---------------------
BASIS SET INFORMATION
---------------------
There are 4 groups of distinct atoms

 Group   1 Type N   : 7s4p1d contracted to 3s2p1d pattern {511/31/1}
 Group   2 Type C   : 7s4p1d contracted to 3s2p1d pattern {511/31/1}
 Group   3 Type H   : 4s1p contracted to 2s1p pattern {31/1}
 Group   4 Type Cl  : 10s7p1d contracted to 4s3p1d pattern {5311/511/1}

Atom   0N    basis set group =>   1
Atom   1C    basis set group =>   2
Atom   2N    basis set group =>   1
Atom   3C    basis set group =>   2
Atom   4C    basis set group =>   2
Atom   5C    basis set group =>   2
Atom   6C    basis set group =>   2
Atom   7H    basis set group =>   3
Atom   8H    basis set group =>   3
Atom   9H    basis set group =>   3
Atom  10H    basis set group =>   3
Atom  11H    basis set group =>   3
Atom  12H    basis set group =>   3
Atom  13Cl   basis set group =>   4
Atom  14Cl   basis set group =>   4
---------------------------------
AUXILIARY/J BASIS SET INFORMATION
---------------------------------
There are 4 groups of distinct atoms

 Group   1 Type N   : 12s5p4d2f1g contracted to 6s4p3d1f1g pattern {711111/2111/211/2/1}
 Group   2 Type C   : 12s5p4d2f1g contracted to 6s4p3d1f1g pattern {711111/2111/211/2/1}
 Group   3 Type H   : 5s2p1d contracted to 3s1p1d pattern {311/2/1}
 Group   4 Type Cl  : 14s5p5d2f1g contracted to 8s4p3d1f1g pattern {71111111/2111/311/2/1}

Atom   0N    basis set group =>   1
Atom   1C    basis set group =>   2
Atom   2N    basis set group =>   1
Atom   3C    basis set group =>   2
Atom   4C    basis set group =>   2
Atom   5C    basis set group =>   2
Atom   6C    basis set group =>   2
Atom   7H    basis set group =>   3
Atom   8H    basis set group =>   3
Atom   9H    basis set group =>   3
Atom  10H    basis set group =>   3
Atom  11H    basis set group =>   3
Atom  12H    basis set group =>   3
Atom  13Cl   basis set group =>   4
Atom  14Cl   basis set group =>   4
------------------------------------------------------------------------------
                           ORCA GTO INTEGRAL CALCULATION
                           -- RI-GTO INTEGRALS CHOSEN --
------------------------------------------------------------------------------
------------------------------------------------------------------------------
                   ___                                                        
                  /   \      - P O W E R E D   B Y -                         
                 /     \                                                     
                 |  |  |   _    _      __       _____    __    __             
                 |  |  |  | |  | |    /  \     |  _  \  |  |  /  |          
                  \  \/   | |  | |   /    \    | | | |  |  | /  /          
                 / \  \   | |__| |  /  /\  \   | |_| |  |  |/  /          
                |  |  |   |  __  | /  /__\  \  |    /   |      \           
                |  |  |   | |  | | |   __   |  |    \   |  |\   \          
                \     /   | |  | | |  |  |  |  | |\  \  |  | \   \       
                 \___/    |_|  |_| |__|  |__|  |_| \__\ |__|  \__/        
                                                                              
                      - O R C A' S   B I G   F R I E N D -                    
                                      &                                       
                       - I N T E G R A L  F E E D E R -                       
                                                                              
 v1 FN, 2020, v2 2021                                                         
------------------------------------------------------------------------------


Reading SHARK input file 3_deprot_aq_1.SHARKINP.tmp ... ok
----------------------
SHARK INTEGRAL PACKAGE
----------------------

Number of atoms                             ...     15
Number of basis functions                   ...    164
Number of shells                            ...     76
Maximum angular momentum                    ...      2
Integral batch strategy                     ... SHARK/LIBINT Hybrid
RI-J (if used) integral strategy            ... SPLIT-RIJ (Revised 2003 algorithm where possible)
Printlevel                                  ...      1
Contraction scheme used                     ... SEGMENTED contraction
Coulomb Range Separation                    ... NOT USED
Exchange Range Separation                   ... Long Range
   Mu parameter                             ...  0.300000
   Scaling (regular/separated)              ...  0.157706  0.842294
Finite Nucleus Model                        ... NOT USED
Auxiliary Coulomb fitting basis             ... AVAILABLE
   # of basis functions in Aux-J            ...    511
   # of shells in Aux-J                     ...    169
   Maximum angular momentum in Aux-J        ...      4
Auxiliary J/K fitting basis                 ... NOT available
Auxiliary Correlation fitting basis         ... NOT available
Auxiliary 'external' fitting basis          ... NOT available
Integral threshold                          ...     2.500000e-11
Primitive cut-off                           ...     2.500000e-12
Primitive pair pre-selection threshold      ...     2.500000e-12

Calculating pre-screening integrals         ... done (  0.0 sec) Dimension = 76
Organizing shell pair data                  ... done (  0.0 sec)
Shell pair information
Total number of shell pairs                 ...      2926
Shell pairs after pre-screening             ...      2643
Total number of primitive shell pairs       ...     11480
Primitive shell pairs kept                  ...      7321
          la=0 lb=0:    781 shell pairs
          la=1 lb=0:    954 shell pairs
          la=1 lb=1:    317 shell pairs
          la=2 lb=0:    335 shell pairs
          la=2 lb=1:    214 shell pairs
          la=2 lb=2:     42 shell pairs

Calculating one electron integrals          ... done (  0.0 sec)
Calculating RI/J V-Matrix + Cholesky decomp.... done (  0.0 sec)
Calculating Nuclear repulsion               ... done (  0.0 sec) ENN=    607.072206690192 Eh

SHARK setup successfully completed in   0.2 seconds

Maximum memory used throughout the entire GTOINT-calculation: 23.8 MB
-------------------------------------------------------------------------------
                                 ORCA SCF
-------------------------------------------------------------------------------

------------
SCF SETTINGS
------------
Hamiltonian:
 Density Functional     Method          .... DFT(GTOs)
 Exchange Functional    Exchange        .... WB97X
 Correlation Functional Correlation     .... WB97X
 Gradients option       PostSCFGGA      .... off
 Hybrid DFT is turned on
   Fraction HF Exchange ScalHFX         ....  0.157706
   Scaling of DF-GGA-X  ScalDFX         ....  0.000000
   Scaling of DF-GGA-C  ScalDFC         ....  1.000000
   Scaling of DF-LDA-C  ScalLDAC        ....  1.000000
   Perturbative correction              ....  0.000000
   Density functional embedding theory  .... OFF
 Long-range corrected/Screened/Range-Separated Hybrid DFT is turned on
   Amount of maximum screened exact exchange              ....  0.842294
   Range separation parameter mu (erf(mu*r12)/r12)        ....  0.300000
 RI-approximation to the Coulomb term is turned on
   Number of AuxJ basis functions       .... 511
   RIJ-COSX (HFX calculated with COS-X)).... on


General Settings:
 Integral files         IntName         .... 3_deprot_aq_1
 Hartree-Fock type      HFTyp           .... RHF
 Total Charge           Charge          ....    0
 Multiplicity           Mult            ....    1
 Number of Electrons    NEL             ....   84
 Basis Dimension        Dim             ....  164
 Nuclear Repulsion      ENuc            ....    607.0722066902 Eh

Convergence Acceleration:
 DIIS                   CNVDIIS         .... on
   Start iteration      DIISMaxIt       ....     0
   Startup error        DIISStart       ....  0.200000
   # of expansion vecs  DIISMaxEq       ....     5
   Bias factor          DIISBfac        ....   1.050
   Max. coefficient     DIISMaxC        ....  10.000
 Trust-Rad. Augm. Hess. CNVTRAH         .... auto
   Auto Start mean grad. ratio tolernc. ....  1.125000
   Auto Start start iteration           ....    20
   Auto Start num. interpolation iter.  ....    10
   Max. Number of Micro iterations      ....    16
   Max. Number of Macro iterations      .... Maxiter - #DIIS iter
   Number of Davidson start vectors     ....     2
   Converg. threshold I  (grad. norm)   ....   1.000e-05
   Converg. threshold II (energy diff.) ....   1.000e-08
   Grad. Scal. Fac. for Micro threshold ....   0.100
   Minimum threshold for Micro iter.    ....   0.010
   NR start threshold (gradient norm)   ....   0.001
   Initial trust radius                 ....   0.400
   Minimum AH scaling param. (alpha)    ....   1.000
   Maximum AH scaling param. (alpha)    .... 1000.000
   Orbital update algorithm             .... Taylor
   White noise on init. David. guess    .... on
   Maximum white noise                  ....   0.010
   Quad. conv. algorithm                .... NR
 SOSCF                  CNVSOSCF        .... on
   Start iteration      SOSCFMaxIt      ....   150
   Startup grad/error   SOSCFStart      ....  0.001000
 Level Shifting         CNVShift        .... on
   Level shift para.    LevelShift      ....    0.2500
   Turn off err/grad.   ShiftErr        ....    0.0000
 Zerner damping         CNVZerner       .... off
 Static damping         CNVDamp         .... on
   Fraction old density DampFac         ....    0.8500
   Max. Damping (<1)    DampMax         ....    0.9800
   Min. Damping (>=0)   DampMin         ....    0.0000
   Turn off err/grad.   DampErr         ....    0.0300
 Fernandez-Rico         CNVRico         .... off

SCF Procedure:
 Maximum # iterations   MaxIter         ....   125
 SCF integral mode      SCFMode         .... Direct
   Integral package                     .... SHARK and LIBINT hybrid scheme
 Reset frequency        DirectResetFreq ....    20
 Integral Threshold     Thresh          ....  2.500e-11 Eh
 Primitive CutOff       TCut            ....  2.500e-12 Eh

Convergence Tolerance:
 Convergence Check Mode ConvCheckMode   .... Total+1el-Energy
 Convergence forced     ConvForced      .... 0
 Energy Change          TolE            ....  1.000e-08 Eh
 1-El. energy change                    ....  1.000e-05 Eh
 Orbital Gradient       TolG            ....  1.000e-05
 Orbital Rotation angle TolX            ....  1.000e-05
 DIIS Error             TolErr          ....  5.000e-07


Diagonalization of the overlap matrix:
Smallest eigenvalue                        ... 8.753e-04
Time for diagonalization                   ...    0.005 sec
Threshold for overlap eigenvalues          ... 1.000e-08
Number of eigenvalues below threshold      ... 0
Time for construction of square roots      ...    0.003 sec
Total time needed                          ...    0.008 sec

Time for model grid setup =    0.202 sec

------------------------------
INITIAL GUESS: MODEL POTENTIAL
------------------------------
Loading Hartree-Fock densities                     ... done
Calculating cut-offs                               ... done
Initializing the effective Hamiltonian             ... done
Setting up the integral package (SHARK)            ... done
Starting the Coulomb interaction                   ... done (   0.2 sec)
Reading the grid                                   ... done
Mapping shells                                     ... done
Starting the XC term evaluation                    ... done (   0.3 sec)
  promolecular density results
     # of electrons  =     83.995668516
     EX              =    -95.268602572
     EC              =     -3.025769593
     EX+EC           =    -98.294372166
Transforming the Hamiltonian                       ... done (   0.0 sec)
Diagonalizing the Hamiltonian                      ... done (   0.0 sec)
Back transforming the eigenvectors                 ... done (   0.0 sec)
Now organizing SCF variables                       ... done
                      ------------------
                      INITIAL GUESS DONE (   0.7 sec)
                      ------------------
-------------------
DFT GRID GENERATION
-------------------

General Integration Accuracy     IntAcc      ... 4.388
Radial Grid Type                 RadialGrid  ... OptM3 with GC (2021)
Angular Grid (max. ang.)         AngularGrid ... 4 (Lebedev-302)
Angular grid pruning method      GridPruning ... 4 (adaptive)
Weight generation scheme         WeightScheme... Becke
Basis function cutoff            BFCut       ... 1.0000e-11
Integration weight cutoff        WCut        ... 1.0000e-14
Angular grids for H and He will be reduced by one unit
Partially contracted basis set               ... off
Rotationally invariant grid construction     ... off

Total number of grid points                  ...    76115
Total number of batches                      ...     1197
Average number of points per batch           ...       63
Average number of grid points per atom       ...     5074
Time for grid setup =    0.812 sec

--------------------
COSX GRID GENERATION
--------------------

GRIDX 1
-------
General Integration Accuracy     IntAcc      ... 3.816
Radial Grid Type                 RadialGrid  ... OptM3 with GC (2021)
Angular Grid (max. ang.)         AngularGrid ... 1 (Lebedev-50)
Angular grid pruning method      GridPruning ... 4 (adaptive)
Weight generation scheme         WeightScheme... Becke
Basis function cutoff            BFCut       ... 1.0000e-11
Integration weight cutoff        WCut        ... 1.0000e-14
Angular grids for H and He will be reduced by one unit
Partially contracted basis set               ... on
Rotationally invariant grid construction     ... off

Total number of grid points                  ...     9529
Total number of batches                      ...      158
Average number of points per batch           ...       60
Average number of grid points per atom       ...      635
UseSFitting                                  ... on

GRIDX 2
-------
General Integration Accuracy     IntAcc      ... 4.020
Radial Grid Type                 RadialGrid  ... OptM3 with GC (2021)
Angular Grid (max. ang.)         AngularGrid ... 2 (Lebedev-110)
Angular grid pruning method      GridPruning ... 4 (adaptive)
Weight generation scheme         WeightScheme... Becke
Basis function cutoff            BFCut       ... 1.0000e-11
Integration weight cutoff        WCut        ... 1.0000e-14
Angular grids for H and He will be reduced by one unit
Partially contracted basis set               ... on
Rotationally invariant grid construction     ... off

Total number of grid points                  ...    21090
Total number of batches                      ...      337
Average number of points per batch           ...       62
Average number of grid points per atom       ...     1406
UseSFitting                                  ... on

GRIDX 3
-------
General Integration Accuracy     IntAcc      ... 4.338
Radial Grid Type                 RadialGrid  ... OptM3 with GC (2021)
Angular Grid (max. ang.)         AngularGrid ... 3 (Lebedev-194)
Angular grid pruning method      GridPruning ... 4 (adaptive)
Weight generation scheme         WeightScheme... Becke
Basis function cutoff            BFCut       ... 1.0000e-11
Integration weight cutoff        WCut        ... 1.0000e-14
Angular grids for H and He will be reduced by one unit
Partially contracted basis set               ... on
Rotationally invariant grid construction     ... off

Total number of grid points                  ...    47574
Total number of batches                      ...      750
Average number of points per batch           ...       63
Average number of grid points per atom       ...     3172
UseSFitting                                  ... on

Time for X-Grid setup             =    0.996 sec


--------------------
CPCM SOLVATION MODEL
--------------------
CPCM parameters:
  Epsilon                                         ...      80.4000
  Refrac                                          ...       1.3300
  Rsolv                                           ...       1.3000
  Surface type                                    ... GAUSSIAN VDW
  Epsilon function type                           ...         CPCM
Radii:
 Radius for N  used is    3.5149 Bohr (=   1.8600 Ang.)
 Radius for C  used is    3.8550 Bohr (=   2.0400 Ang.)
 Radius for H  used is    2.4944 Bohr (=   1.3200 Ang.)
 Radius for Cl used is    3.9684 Bohr (=   2.1000 Ang.)
Calculating surface                               ...        done! (  0.0s)
GEPOL surface points                              ...          863
GEPOL Volume                                      ...    1183.2519
GEPOL Surface-area                                ...     664.1766
Calculating surface distance matrix               ...        done! (  0.0s)
Performing Cholesky decomposition & store         ...        done! (  0.0s)
Overall time for CPCM initialization              ...                 0.0s
--------------
SCF ITERATIONS
--------------
ITER       Energy         Delta-E        Max-DP      RMS-DP      [F,P]     Damp
               ***  Starting incremental Fock matrix formation  ***
  0  -1223.2984137670   0.000000000000 0.04131511  0.00074698  0.1195248 0.8500
  1  -1223.3211898430  -0.022776076059 0.04316861  0.00072397  0.0971747 0.8500
                               ***Turning on DIIS***
  2  -1223.3386936733  -0.017503830260 0.03686616  0.00059864  0.0754395 0.8500
  3  -1223.3518094824  -0.013115809095 0.02769464  0.00043287  0.0578623 0.8500
  4  -1223.3620100056  -0.010200523212 0.02161419  0.00033563  0.0462572 0.8500
  5  -1223.3700992959  -0.008089290347 0.01777203  0.00027784  0.0382686 0.8500
  6  -1223.3767081545  -0.006608858585 0.01499729  0.00023608  0.0321944 0.8500
  7  -1223.3822000866  -0.005491932080 0.08618880  0.00136311  0.0272803 0.0000
  8  -1223.4119026713  -0.029702584668 0.00138671  0.00006207  0.0011716 0.0000
                      *** Initiating the SOSCF procedure ***
                           *** Shutting down DIIS ***
                      *** Re-Reading the Fockian *** 
                      *** Removing any level shift *** 
ITER      Energy       Delta-E        Grad      Rot      Max-DP    RMS-DP
  9  -1223.41192936  -0.0000266922  0.000871  0.000871  0.000704  0.000037
               *** Restarting incremental Fock matrix formation ***
 10  -1223.41200318  -0.0000738153  0.000572  0.001301  0.000797  0.000028
 11  -1223.41200634  -0.0000031563  0.000173  0.000992  0.000683  0.000024
 12  -1223.41200721  -0.0000008767  0.000069  0.000139  0.000174  0.000006
 13  -1223.41200732  -0.0000001074  0.000009  0.000023  0.000068  0.000001
 14  -1223.41200732  -0.0000000007  0.000005  0.000015  0.000053  0.000001
                  ***Gradient check signals convergence***
              ***Rediagonalizing the Fockian in SOSCF/NRSCF***

               *****************************************************
               *                     SUCCESS                       *
               *           SCF CONVERGED AFTER  15 CYCLES          *
               *****************************************************

Old exchange energy                            =    -26.401167162 Eh
New exchange energy                            =    -26.401170457 Eh
Exchange energy change after final integration =     -0.000003296 Eh
Total energy after final integration           =  -1223.412010626 Eh
Final COS-X integration done in                =    23.032 sec

----------------
TOTAL SCF ENERGY
----------------

Total Energy       :        -1223.41201063 Eh          -33290.73328 eV

Components:
Nuclear Repulsion  :          607.07220669 Eh           16519.27457 eV
Electronic Energy  :        -1830.48421732 Eh          -49810.00785 eV
One Electron Energy:        -2885.78696549 Eh          -78526.25553 eV
Two Electron Energy:         1055.30274817 Eh           28716.24768 eV
Max COSX asymmetry :            0.00000267 Eh               0.00007 eV
CPCM Dielectric    :           -0.01087067 Eh              -0.29581 eV

Virial components:
Potential Energy   :        -2441.77419265 Eh          -66444.05373 eV
Kinetic Energy     :         1218.36218202 Eh           33153.32045 eV
Virial Ratio       :            2.00414477


DFT components:
N(Alpha)           :       41.999977186275 electrons
N(Beta)            :       41.999977186275 electrons
N(Total)           :       83.999954372551 electrons
E(XC)              :      -73.228368383552 Eh       
DFET-embed. en.    :        0.000000000000 Eh       
CPCM Solvation Model Properties:
Surface-charge          :           -0.01462891
Charge-correction       :           -0.00017872 Eh              -0.00486 eV
Free-energy (cav+disp)  :  This term is not implemented in the current solvation scheme

---------------
SCF CONVERGENCE
---------------

  Last Energy change         ...   -1.0607e-08  Tolerance :   1.0000e-08
  Last MAX-Density change    ...    3.5527e-15  Tolerance :   1.0000e-07
  Last RMS-Density change    ...    6.9595e-17  Tolerance :   5.0000e-09
  Last Orbital Gradient      ...    1.5392e-06  Tolerance :   1.0000e-05
  Last Orbital Rotation      ...    4.8480e-06  Tolerance :   1.0000e-05

             **** THE GBW FILE WAS UPDATED (3_deprot_aq_1.gbw) ****
             **** DENSITY 3_deprot_aq_1.scfp WAS UPDATED ****
             **** ENERGY FILE WAS UPDATED (3_deprot_aq_1.en.tmp) ****
             **** THE GBW FILE WAS UPDATED (3_deprot_aq_1.gbw) ****
             **** DENSITY 3_deprot_aq_1.scfp WAS UPDATED ****
----------------
ORBITAL ENERGIES
----------------

  NO   OCC          E(Eh)            E(eV) 
   0   2.0000    -101.502327     -2762.0187 
   1   2.0000    -101.502314     -2762.0184 
   2   2.0000     -14.471669      -393.7941 
   3   2.0000     -14.471661      -393.7939 
   4   2.0000     -10.361951      -281.9630 
   5   2.0000     -10.361408      -281.9482 
   6   2.0000     -10.304993      -280.4131 
   7   2.0000     -10.304964      -280.4123 
   8   2.0000     -10.292458      -280.0720 
   9   2.0000      -9.574756      -260.5424 
  10   2.0000      -9.574737      -260.5418 
  11   2.0000      -7.343850      -199.8363 
  12   2.0000      -7.343846      -199.8362 
  13   2.0000      -7.332504      -199.5276 
  14   2.0000      -7.332502      -199.5275 
  15   2.0000      -7.332499      -199.5275 
  16   2.0000      -7.332492      -199.5272 
  17   2.0000      -1.182889       -32.1880 
  18   2.0000      -1.073997       -29.2250 
  19   2.0000      -1.024077       -27.8665 
  20   2.0000      -0.991245       -26.9731 
  21   2.0000      -0.908804       -24.7298 
  22   2.0000      -0.837005       -22.7761 
  23   2.0000      -0.812470       -22.1084 
  24   2.0000      -0.716133       -19.4870 
  25   2.0000      -0.714081       -19.4311 
  26   2.0000      -0.640231       -17.4216 
  27   2.0000      -0.619738       -16.8639 
  28   2.0000      -0.581705       -15.8290 
  29   2.0000      -0.567591       -15.4449 
  30   2.0000      -0.565097       -15.3771 
  31   2.0000      -0.562580       -15.3086 
  32   2.0000      -0.515379       -14.0242 
  33   2.0000      -0.512911       -13.9570 
  34   2.0000      -0.497516       -13.5381 
  35   2.0000      -0.468765       -12.7557 
  36   2.0000      -0.459459       -12.5025 
  37   2.0000      -0.447518       -12.1776 
  38   2.0000      -0.444109       -12.0848 
  39   2.0000      -0.382978       -10.4214 
  40   2.0000      -0.334416        -9.0999 
  41   2.0000      -0.320313        -8.7162 
  42   0.0000       0.103535         2.8173 
  43   0.0000       0.119496         3.2517 
  44   0.0000       0.126058         3.4302 
  45   0.0000       0.168083         4.5738 
  46   0.0000       0.178515         4.8576 
  47   0.0000       0.180664         4.9161 
  48   0.0000       0.216924         5.9028 
  49   0.0000       0.220851         6.0097 
  50   0.0000       0.238170         6.4809 
  51   0.0000       0.246486         6.7072 
  52   0.0000       0.250619         6.8197 
  53   0.0000       0.277111         7.5406 
  54   0.0000       0.317947         8.6518 
  55   0.0000       0.337201         9.1757 
  56   0.0000       0.349543         9.5115 
  57   0.0000       0.422143        11.4871 
  58   0.0000       0.427703        11.6384 
  59   0.0000       0.455569        12.3967 
  60   0.0000       0.472879        12.8677 
  61   0.0000       0.489185        13.3114 
  62   0.0000       0.539827        14.6894 
  63   0.0000       0.551115        14.9966 
  64   0.0000       0.552185        15.0257 
  65   0.0000       0.576103        15.6766 
  66   0.0000       0.589022        16.0281 
  67   0.0000       0.614358        16.7175 
  68   0.0000       0.626696        17.0533 
  69   0.0000       0.674756        18.3611 
  70   0.0000       0.677234        18.4285 
  71   0.0000       0.684623        18.6295 
  72   0.0000       0.689864        18.7722 
  73   0.0000       0.698877        19.0174 
  74   0.0000       0.736561        20.0428 
  75   0.0000       0.760957        20.7067 
  76   0.0000       0.761222        20.7139 
  77   0.0000       0.762377        20.7453 
  78   0.0000       0.765863        20.8402 
  79   0.0000       0.770783        20.9741 
  80   0.0000       0.779070        21.1996 
  81   0.0000       0.788960        21.4687 
  82   0.0000       0.817572        22.2473 
  83   0.0000       0.819247        22.2929 
  84   0.0000       0.827777        22.5250 
  85   0.0000       0.859014        23.3750 
  86   0.0000       0.862883        23.4802 
  87   0.0000       0.867666        23.6104 
  88   0.0000       0.867756        23.6128 
  89   0.0000       0.877076        23.8664 
  90   0.0000       0.881415        23.9845 
  91   0.0000       0.937621        25.5140 
  92   0.0000       0.950743        25.8710 
  93   0.0000       0.953027        25.9332 
  94   0.0000       0.955221        25.9929 
  95   0.0000       1.000957        27.2374 
  96   0.0000       1.041356        28.3367 
  97   0.0000       1.041659        28.3450 
  98   0.0000       1.042166        28.3588 
  99   0.0000       1.069801        29.1108 
 100   0.0000       1.128637        30.7118 
 101   0.0000       1.151347        31.3297 
 102   0.0000       1.162460        31.6321 
 103   0.0000       1.210920        32.9508 
 104   0.0000       1.261015        34.3140 
 105   0.0000       1.287571        35.0366 
 106   0.0000       1.325960        36.0812 
 107   0.0000       1.329304        36.1722 
 108   0.0000       1.344927        36.5973 
 109   0.0000       1.398850        38.0646 
 110   0.0000       1.502674        40.8898 
 111   0.0000       1.506233        40.9867 
 112   0.0000       1.558305        42.4036 
 113   0.0000       1.614534        43.9337 
 114   0.0000       1.629976        44.3539 
 115   0.0000       1.632896        44.4334 
 116   0.0000       1.634552        44.4784 
 117   0.0000       1.644899        44.7600 
 118   0.0000       1.667341        45.3707 
 119   0.0000       1.740710        47.3671 
 120   0.0000       1.741108        47.3780 
 121   0.0000       1.757117        47.8136 
 122   0.0000       1.889357        51.4120 
 123   0.0000       1.893594        51.5273 
 124   0.0000       1.894210        51.5441 
 125   0.0000       1.926656        52.4270 
 126   0.0000       1.943859        52.8951 
 127   0.0000       1.957503        53.2664 
 128   0.0000       1.963041        53.4171 
 129   0.0000       2.000509        54.4366 
 130   0.0000       2.067418        56.2573 
 131   0.0000       2.095059        57.0094 
 132   0.0000       2.125403        57.8352 
 133   0.0000       2.150594        58.5206 
 134   0.0000       2.155458        58.6530 
 135   0.0000       2.185901        59.4814 
 136   0.0000       2.207676        60.0739 
 137   0.0000       2.250708        61.2449 
 138   0.0000       2.273408        61.8626 
 139   0.0000       2.341478        63.7149 
 140   0.0000       2.364264        64.3349 
 141   0.0000       2.385846        64.9222 
 142   0.0000       2.432671        66.1964 
 143   0.0000       2.439334        66.3777 
 144   0.0000       2.492734        67.8307 
 145   0.0000       2.512583        68.3709 
 146   0.0000       2.574823        70.0645 
 147   0.0000       2.609736        71.0145 
 148   0.0000       2.758500        75.0626 
 149   0.0000       2.771712        75.4221 
 150   0.0000       2.782546        75.7169 
 151   0.0000       2.843619        77.3788 
 152   0.0000       2.846784        77.4649 
 153   0.0000       2.870037        78.0977 
 154   0.0000       2.923697        79.5578 
 155   0.0000       2.948128        80.2226 
 156   0.0000       3.049100        82.9702 
 157   0.0000       3.055405        83.1418 
 158   0.0000       3.062471        83.3341 
 159   0.0000       3.093087        84.1672 
 160   0.0000       3.245188        88.3061 
 161   0.0000       3.290384        89.5359 
 162   0.0000       3.394256        92.3624 
 163   0.0000       3.434172        93.4486 

                    ********************************
                    * MULLIKEN POPULATION ANALYSIS *
                    ********************************

-----------------------
MULLIKEN ATOMIC CHARGES
-----------------------
   0 N :   -0.222938
   1 C :   -0.184909
   2 N :   -0.222935
   3 C :    0.086870
   4 C :    0.086865
   5 C :    0.103282
   6 C :    0.103270
   7 H :    0.063931
   8 H :    0.063978
   9 H :    0.060148
  10 H :    0.063956
  11 H :    0.060147
  12 H :    0.063953
  13 Cl:   -0.062809
  14 Cl:   -0.062811
Sum of atomic charges:   -0.0000000

--------------------------------
MULLIKEN REDUCED ORBITAL CHARGES
--------------------------------
  0 N s       :     3.395456  s :     3.395456
      pz      :     1.518229  p :     3.793558
      px      :     1.175007
      py      :     1.100322
      dz2     :     0.002349  d :     0.033923
      dxz     :     0.004889
      dyz     :     0.005831
      dx2y2   :     0.012156
      dxy     :     0.008699
  1 C s       :     3.616605  s :     3.616605
      pz      :     0.703554  p :     2.501572
      px      :     0.653473
      py      :     1.144545
      dz2     :     0.007894  d :     0.066732
      dxz     :     0.012113
      dyz     :     0.009831
      dx2y2   :     0.008074
      dxy     :     0.028819
  2 N s       :     3.395455  s :     3.395455
      pz      :     1.518236  p :     3.793557
      px      :     1.174994
      py      :     1.100327
      dz2     :     0.002349  d :     0.033923
      dxz     :     0.004889
      dyz     :     0.005831
      dx2y2   :     0.012156
      dxy     :     0.008698
  3 C s       :     3.021642  s :     3.021642
      pz      :     1.137291  p :     2.821825
      px      :     0.916953
      py      :     0.767580
      dz2     :     0.005353  d :     0.069663
      dxz     :     0.011458
      dyz     :     0.011924
      dx2y2   :     0.021910
      dxy     :     0.019018
  4 C s       :     3.021645  s :     3.021645
      pz      :     1.137303  p :     2.821829
      px      :     0.916956
      py      :     0.767570
      dz2     :     0.005353  d :     0.069662
      dxz     :     0.011458
      dyz     :     0.011924
      dx2y2   :     0.021910
      dxy     :     0.019017
  5 C s       :     2.986936  s :     2.986936
      pz      :     1.049626  p :     2.870803
      px      :     0.782910
      py      :     1.038267
      dz2     :     0.007140  d :     0.038979
      dxz     :     0.010914
      dyz     :     0.003051
      dx2y2   :     0.011395
      dxy     :     0.006479
  6 C s       :     2.986934  s :     2.986934
      pz      :     1.049619  p :     2.870816
      px      :     0.782913
      py      :     1.038283
      dz2     :     0.007140  d :     0.038980
      dxz     :     0.010914
      dyz     :     0.003051
      dx2y2   :     0.011397
      dxy     :     0.006478
  7 H s       :     0.912387  s :     0.912387
      pz      :     0.012363  p :     0.023682
      px      :     0.005471
      py      :     0.005848
  8 H s       :     0.912343  s :     0.912343
      pz      :     0.012391  p :     0.023678
      px      :     0.005459
      py      :     0.005829
  9 H s       :     0.916102  s :     0.916102
      pz      :     0.004878  p :     0.023751
      px      :     0.002586
      py      :     0.016286
 10 H s       :     0.912364  s :     0.912364
      pz      :     0.012377  p :     0.023680
      px      :     0.005464
      py      :     0.005838
 11 H s       :     0.916102  s :     0.916102
      pz      :     0.004878  p :     0.023751
      px      :     0.002586
      py      :     0.016286
 12 H s       :     0.912366  s :     0.912366
      pz      :     0.012376  p :     0.023680
      px      :     0.005465
      py      :     0.005839
 13 Cls       :     5.940214  s :     5.940214
      pz      :     3.932817  p :    11.081122
      px      :     3.630839
      py      :     3.517466
      dz2     :     0.006219  d :     0.041473
      dxz     :     0.004777
      dyz     :     0.006233
      dx2y2   :     0.005571
      dxy     :     0.018671
 14 Cls       :     5.940216  s :     5.940216
      pz      :     3.932820  p :    11.081122
      px      :     3.630881
      py      :     3.517421
      dz2     :     0.006219  d :     0.041472
      dxz     :     0.004777
      dyz     :     0.006234
      dx2y2   :     0.005572
      dxy     :     0.018671


                     *******************************
                     * LOEWDIN POPULATION ANALYSIS *
                     *******************************

----------------------
LOEWDIN ATOMIC CHARGES
----------------------
   0 N :    0.024549
   1 C :   -0.291863
   2 N :    0.024545
   3 C :   -0.174837
   4 C :   -0.174842
   5 C :    0.030462
   6 C :    0.030449
   7 H :    0.035305
   8 H :    0.035330
   9 H :    0.040054
  10 H :    0.035318
  11 H :    0.040055
  12 H :    0.035317
  13 Cl:    0.155082
  14 Cl:    0.155075

-------------------------------
LOEWDIN REDUCED ORBITAL CHARGES
-------------------------------
  0 N s       :     3.057892  s :     3.057892
      pz      :     1.445703  p :     3.838544
      px      :     1.203450
      py      :     1.189392
      dz2     :     0.004494  d :     0.079014
      dxz     :     0.007905
      dyz     :     0.011614
      dx2y2   :     0.030697
      dxy     :     0.024304
  1 C s       :     3.204569  s :     3.204569
      pz      :     0.755977  p :     2.943898
      px      :     0.814719
      py      :     1.373201
      dz2     :     0.018008  d :     0.143397
      dxz     :     0.026591
      dyz     :     0.013589
      dx2y2   :     0.018727
      dxy     :     0.066482
  2 N s       :     3.057891  s :     3.057891
      pz      :     1.445709  p :     3.838550
      px      :     1.203445
      py      :     1.189396
      dz2     :     0.004494  d :     0.079014
      dxz     :     0.007905
      dyz     :     0.011614
      dx2y2   :     0.030697
      dxy     :     0.024303
  3 C s       :     2.886185  s :     2.886185
      pz      :     1.144032  p :     3.128180
      px      :     1.046399
      py      :     0.937748
      dz2     :     0.011293  d :     0.160472
      dxz     :     0.022967
      dyz     :     0.023226
      dx2y2   :     0.059591
      dxy     :     0.043394
  4 C s       :     2.886184  s :     2.886184
      pz      :     1.144044  p :     3.128189
      px      :     1.046398
      py      :     0.937746
      dz2     :     0.011293  d :     0.160469
      dxz     :     0.022966
      dyz     :     0.023225
      dx2y2   :     0.059592
      dxy     :     0.043392
  5 C s       :     2.823645  s :     2.823645
      pz      :     1.088970  p :     3.048111
      px      :     0.883808
      py      :     1.075334
      dz2     :     0.017840  d :     0.097782
      dxz     :     0.028706
      dyz     :     0.006823
      dx2y2   :     0.029174
      dxy     :     0.015239
  6 C s       :     2.823642  s :     2.823642
      pz      :     1.088964  p :     3.048123
      px      :     0.883811
      py      :     1.075348
      dz2     :     0.017841  d :     0.097786
      dxz     :     0.028707
      dyz     :     0.006823
      dx2y2   :     0.029177
      dxy     :     0.015238
  7 H s       :     0.898327  s :     0.898327
      pz      :     0.033467  p :     0.066368
      px      :     0.016882
      py      :     0.016019
  8 H s       :     0.898309  s :     0.898309
      pz      :     0.033544  p :     0.066361
      px      :     0.016852
      py      :     0.015965
  9 H s       :     0.892705  s :     0.892705
      pz      :     0.013148  p :     0.067242
      px      :     0.008788
      py      :     0.045305
 10 H s       :     0.898318  s :     0.898318
      pz      :     0.033507  p :     0.066364
      px      :     0.016866
      py      :     0.015991
 11 H s       :     0.892705  s :     0.892705
      pz      :     0.013148  p :     0.067241
      px      :     0.008788
      py      :     0.045304
 12 H s       :     0.898319  s :     0.898319
      pz      :     0.033504  p :     0.066364
      px      :     0.016866
      py      :     0.015994
 13 Cls       :     5.735388  s :     5.735388
      pz      :     3.911522  p :    11.060656
      px      :     3.628775
      py      :     3.520359
      dz2     :     0.007303  d :     0.048874
      dxz     :     0.005612
      dyz     :     0.007237
      dx2y2   :     0.006325
      dxy     :     0.022398
 14 Cls       :     5.735393  s :     5.735393
      pz      :     3.911526  p :    11.060659
      px      :     3.628814
      py      :     3.520319
      dz2     :     0.007303  d :     0.048874
      dxz     :     0.005612
      dyz     :     0.007237
      dx2y2   :     0.006325
      dxy     :     0.022397


                      *****************************
                      * MAYER POPULATION ANALYSIS *
                      *****************************

  NA   - Mulliken gross atomic population
  ZA   - Total nuclear charge
  QA   - Mulliken gross atomic charge
  VA   - Mayer's total valence
  BVA  - Mayer's bonded valence
  FA   - Mayer's free valence

  ATOM       NA         ZA         QA         VA         BVA        FA
  0 N      7.2229     7.0000    -0.2229     3.4101     3.4101     0.0000
  1 C      6.1849     6.0000    -0.1849     2.7079     2.7079    -0.0000
  2 N      7.2229     7.0000    -0.2229     3.4101     3.4101    -0.0000
  3 C      5.9131     6.0000     0.0869     3.9490     3.9490    -0.0000
  4 C      5.9131     6.0000     0.0869     3.9490     3.9490    -0.0000
  5 C      5.8967     6.0000     0.1033     3.8676     3.8676     0.0000
  6 C      5.8967     6.0000     0.1033     3.8676     3.8676    -0.0000
  7 H      0.9361     1.0000     0.0639     0.9974     0.9974     0.0000
  8 H      0.9360     1.0000     0.0640     0.9974     0.9974     0.0000
  9 H      0.9399     1.0000     0.0601     1.0197     1.0197    -0.0000
 10 H      0.9360     1.0000     0.0640     0.9974     0.9974     0.0000
 11 H      0.9399     1.0000     0.0601     1.0197     1.0197    -0.0000
 12 H      0.9360     1.0000     0.0640     0.9974     0.9974     0.0000
 13 Cl    17.0628    17.0000    -0.0628     1.1812     1.1812     0.0000
 14 Cl    17.0628    17.0000    -0.0628     1.1812     1.1812    -0.0000

  Mayer bond orders larger than 0.100000
B(  0-N ,  1-C ) :   1.2358 B(  0-N ,  4-C ) :   1.1506 B(  0-N ,  5-C ) :   0.9343 
B(  1-C ,  2-N ) :   1.2358 B(  2-N ,  3-C ) :   1.1506 B(  2-N ,  6-C ) :   0.9343 
B(  3-C ,  4-C ) :   1.5872 B(  3-C , 13-Cl) :   1.0726 B(  4-C , 14-Cl) :   1.0726 
B(  5-C ,  7-H ) :   0.9769 B(  5-C ,  8-H ) :   0.9769 B(  5-C ,  9-H ) :   0.9692 
B(  6-C , 10-H ) :   0.9769 B(  6-C , 11-H ) :   0.9692 B(  6-C , 12-H ) :   0.9769 


-------
TIMINGS
-------

Total SCF time: 0 days 0 hours 2 min 36 sec 

Total time                  ....     156.811 sec
Sum of individual times     ....     156.471 sec  ( 99.8%)

Fock matrix formation       ....     153.904 sec  ( 98.1%)
  Split-RI-J                ....       5.943 sec  (  3.9% of F)
  Chain of spheres X        ....     123.573 sec  ( 80.3% of F)
  XC integration            ....      16.107 sec  ( 10.5% of F)
    Basis function eval.    ....       5.857 sec  ( 36.4% of XC)
    Density eval.           ....       3.340 sec  ( 20.7% of XC)
    XC-Functional eval.     ....       2.649 sec  ( 16.4% of XC)
    XC-Potential eval.      ....       3.744 sec  ( 23.2% of XC)
Diagonalization             ....       0.050 sec  (  0.0%)
Density matrix formation    ....       0.009 sec  (  0.0%)
Population analysis         ....       0.007 sec  (  0.0%)
Initial guess               ....       0.453 sec  (  0.3%)
Orbital Transformation      ....       0.000 sec  (  0.0%)
Orbital Orthonormalization  ....       0.000 sec  (  0.0%)
DIIS solution               ....       0.017 sec  (  0.0%)
SOSCF solution              ....       0.022 sec  (  0.0%)
Grid generation             ....       2.010 sec  (  1.3%)

Maximum memory used throughout the entire SCF-calculation: 72.1 MB


-------------------------------------------------------------------------------
                          DFT DISPERSION CORRECTION                            
                                                                               
                                 DFTD4 V2.5                                    
-------------------------------------------------------------------------------
The WB97X functional is recognized
Active option DFTDOPT                   ...         5   

Starting D4
-------------------------   ----------------
Dispersion correction           -0.002559496
-------------------------   ----------------


-------------------------   --------------------
FINAL SINGLE POINT ENERGY     -1223.414570122372
-------------------------   --------------------

------------------------------------------------------------------------------
                         ORCA SCF GRADIENT CALCULATION
------------------------------------------------------------------------------

 ... reading COSX grid (gridx3)
Gradient of the Kohn-Sham DFT energy:
Kohn-Sham wavefunction type      ... RKS
Hartree-Fock exchange scaling    ...    0.158
Number of operators              ...    1
Number of atoms                  ...   15
Basis set dimensions             ...  164
Integral neglect threshold       ... 2.5e-11
Integral primitive cutoff        ... 2.5e-12
SHARK Integral package           ... ON

Nuc. rep. gradient       (SHARK) ... done (  0.0 sec)
HCore & Overlap gradient (SHARK) ... done (  0.2 sec)
RI-J gradient            (SHARK) ... done (  1.4 sec)
COSX-gradient                    ... done ( 25.1 sec)
Exchange-correlation gradient    ... done
Dispersion correction            ... Starting D4


------------------- 
Dispersion Gradient 
------------------- 
   1  :   -0.000011908   -0.000007096   -0.000000001
   2  :   -0.000000001   -0.000013886   -0.000000000
   3  :    0.000011909   -0.000007098   -0.000000000
   4  :    0.000008034    0.000003482   -0.000000000
   5  :   -0.000008035    0.000003484   -0.000000000
   6  :   -0.000044633   -0.000017993    0.000000002
   7  :    0.000044634   -0.000017991    0.000000000
   8  :   -0.000007341   -0.000003050   -0.000000241
   9  :   -0.000007345   -0.000003057    0.000000244
  10  :   -0.000008291   -0.000006040   -0.000000002
  11  :    0.000007342   -0.000003053   -0.000000242
  12  :    0.000008291   -0.000006040    0.000000000
  13  :    0.000007342   -0.000003053    0.000000242
  14  :    0.000037413    0.000040695    0.000000000
  15  :   -0.000037412    0.000040698   -0.000000001

  |G| =    0.000109259

done

------------------
CARTESIAN GRADIENT
------------------

   1   N   :   -0.010671055   -0.000614552    0.000004785
   2   C   :   -0.000013807    0.011323213    0.000002278
   3   N   :    0.010701149   -0.000618213   -0.000001927
   4   C   :    0.003839368   -0.009870506    0.000000056
   5   C   :   -0.003844845   -0.009869143   -0.000002698
   6   C   :    0.005418352    0.000100458   -0.000014374
   7   C   :   -0.005433283    0.000113821    0.000000694
   8   H   :    0.002942691   -0.001298336    0.004696835
   9   H   :    0.002940830   -0.001289335   -0.004698743
  10   H   :    0.000441164    0.005961371    0.000011385
  11   H   :   -0.002941139   -0.001294534    0.004693821
  12   H   :   -0.000438099    0.005959781   -0.000000510
  13   H   :   -0.002941303   -0.001294869   -0.004693564
  14   Cl  :    0.002653092    0.001080875   -0.000000036
  15   Cl  :   -0.002652869    0.001089097    0.000000030

Difference to translation invariance:
           :    0.0000002458   -0.0005208726   -0.0000019699

Difference to rotation invariance:
           :    0.0000057059    0.0000000505   -0.0000009564

Norm of the cartesian gradient     ...    0.0292916139
RMS gradient                       ...    0.0043665360
MAX gradient                       ...    0.0113232126

-------
TIMINGS
-------

Total SCF gradient time            ...       32.675 sec

One electron gradient       ....       0.203 sec  (  0.6%)
RI-J Coulomb gradient       ....       1.417 sec  (  4.3%)
COSX gradient               ....      25.071 sec  ( 76.7%)
XC gradient                 ....       4.623 sec  ( 14.1%)
CPCM gradient               ....       0.457 sec  (  1.4%)
   A-Matrix (El+Nuc)        ....       0.039 sec  (  0.1%)
   Potential                ....       0.418 sec  (  1.3%)

Maximum memory used throughout the entire SCFGRAD-calculation: 58.6 MB
------------------------------------------------------------------------------
                         ORCA GEOMETRY RELAXATION STEP
------------------------------------------------------------------------------

Reading the OPT-File                    .... done
Getting information on internals        .... done
Copying old internal coords+grads       .... done
Making the new internal coordinates     .... (new redundants).... done
Validating the new internal coordinates .... (new redundants).... done
Calculating the B-matrix                .... done
Calculating the G,G- and P matrices     .... done
Transforming gradient to internals      .... done
Projecting the internal gradient        .... done
Number of atoms                         ....  15
Number of internal coordinates          ....  68
Current Energy                          .... -1223.414570122 Eh
Current gradient norm                   ....     0.029291614 Eh/bohr
Maximum allowed component of the step   ....  0.300
Current trust radius                    ....  0.300
Evaluating the initial hessian          ....  (Almloef) done
Projecting the Hessian                  .... done
Forming the augmented Hessian           .... done
Diagonalizing the augmented Hessian     .... done
Last element of RFO vector              ....  0.998025231
Lowest eigenvalues of augmented Hessian:
 -0.001751251  0.019232744  0.019236079  0.023606903  0.024557990
Length of the computed step             ....  0.062938605
The final length of the internal step   ....  0.062938605
Converting the step to cartesian space:
 Initial RMS(Int)=    0.0076324269
Transforming coordinates:
 Iter   0:  RMS(Cart)=    0.0150309347 RMS(Int)=    1.0775809778
 Iter   1:  RMS(Cart)=    0.0000199392 RMS(Int)=    0.0000139321
 Iter   2:  RMS(Cart)=    0.0000001056 RMS(Int)=    0.0000000818
 Iter   3:  RMS(Cart)=    0.0000000015 RMS(Int)=    0.0000000006
done
Storing new coordinates                 .... done

                                .--------------------.
          ----------------------|Geometry convergence|-------------------------
          Item                value                   Tolerance       Converged
          ---------------------------------------------------------------------
          RMS gradient        0.0034498857            0.0001000000      NO
          MAX gradient        0.0122987158            0.0003000000      NO
          RMS step            0.0076324269            0.0020000000      NO
          MAX step            0.0258303928            0.0040000000      NO
          ........................................................
          Max(Bonds)      0.0137      Max(Angles)    0.66
          Max(Dihed)        0.12      Max(Improp)    0.00
          ---------------------------------------------------------------------

The optimization has not yet converged - more geometry cycles are needed


    ---------------------------------------------------------------------------
                         Redundant Internal Coordinates
                            (Angstroem and degrees)

        Definition                    Value    dE/dq     Step     New-Value
    ----------------------------------------------------------------------------
     1. B(C   1,N   0)                1.3561 -0.004290  0.0037    1.3598   
     2. B(N   2,C   1)                1.3561 -0.004279  0.0037    1.3598   
     3. B(C   3,N   2)                1.3727 -0.008373  0.0073    1.3800   
     4. B(C   4,C   3)                1.3628  0.006448 -0.0051    1.3577   
     5. B(C   4,N   0)                1.3727 -0.008368  0.0073    1.3800   
     6. B(C   5,N   0)                1.4350 -0.012285  0.0137    1.4486   
     7. B(C   6,N   2)                1.4350 -0.012299  0.0137    1.4486   
     8. B(H   7,C   5)                1.0916 -0.005642  0.0083    1.0999   
     9. B(H   8,C   5)                1.0916 -0.005641  0.0083    1.0999   
    10. B(H   9,C   5)                1.0873 -0.005995  0.0087    1.0960   
    11. B(H  10,C   6)                1.0916 -0.005638  0.0083    1.0999   
    12. B(H  11,C   6)                1.0873 -0.005993  0.0087    1.0960   
    13. B(H  12,C   6)                1.0916 -0.005638  0.0083    1.0999   
    14. B(Cl 13,C   3)                1.7082  0.002560 -0.0031    1.7051   
    15. B(Cl 14,C   4)                1.7082  0.002566 -0.0031    1.7051   
    16. A(C   1,N   0,C   5)          124.34  0.001527   -0.21    124.12   
    17. A(C   4,N   0,C   5)          124.32  0.001290   -0.18    124.14   
    18. A(C   1,N   0,C   4)          111.34 -0.002818    0.39    111.73   
    19. A(N   0,C   1,N   2)          104.34  0.005543   -0.66    103.67   
    20. A(C   1,N   2,C   3)          111.34 -0.002824    0.39    111.73   
    21. A(C   1,N   2,C   6)          124.34  0.001543   -0.21    124.13   
    22. A(C   3,N   2,C   6)          124.32  0.001282   -0.18    124.14   
    23. A(C   4,C   3,Cl 13)          130.01  0.002095   -0.25    129.76   
    24. A(N   2,C   3,C   4)          106.49  0.000054   -0.06    106.43   
    25. A(N   2,C   3,Cl 13)          123.50 -0.002149    0.31    123.81   
    26. A(N   0,C   4,Cl 14)          123.50 -0.002136    0.31    123.81   
    27. A(N   0,C   4,C   3)          106.49  0.000046   -0.06    106.43   
    28. A(C   3,C   4,Cl 14)          130.01  0.002091   -0.25    129.76   
    29. A(H   8,C   5,H   9)          109.71  0.000651   -0.16    109.55   
    30. A(H   7,C   5,H   9)          109.71  0.000655   -0.16    109.55   
    31. A(N   0,C   5,H   9)          107.67 -0.000282    0.02    107.69   
    32. A(H   7,C   5,H   8)          108.72  0.000145    0.06    108.77   
    33. A(N   0,C   5,H   8)          110.51 -0.000580    0.12    110.64   
    34. A(N   0,C   5,H   7)          110.51 -0.000573    0.12    110.63   
    35. A(H  11,C   6,H  12)          109.71  0.000651   -0.16    109.55   
    36. A(H  10,C   6,H  12)          108.72  0.000147    0.06    108.77   
    37. A(N   2,C   6,H  12)          110.51 -0.000578    0.12    110.64   
    38. A(H  10,C   6,H  11)          109.71  0.000650   -0.16    109.55   
    39. A(N   2,C   6,H  11)          107.67 -0.000277    0.02    107.69   
    40. A(N   2,C   6,H  10)          110.51 -0.000577    0.12    110.64   
    41. D(N   2,C   1,N   0,C   5)   -179.99  0.000000   -0.00   -179.99   
    42. D(N   2,C   1,N   0,C   4)     -0.00  0.000000   -0.00     -0.00   
    43. D(C   3,N   2,C   1,N   0)      0.00 -0.000000    0.00      0.00   
    44. D(C   6,N   2,C   1,N   0)   -180.00 -0.000001    0.00   -180.00   
    45. D(Cl 13,C   3,N   2,C   1)   -180.00 -0.000000    0.00   -180.00   
    46. D(C   4,C   3,N   2,C   6)   -180.00  0.000001   -0.00   -180.00   
    47. D(Cl 13,C   3,N   2,C   6)      0.00  0.000000   -0.00      0.00   
    48. D(C   4,C   3,N   2,C   1)     -0.00  0.000000   -0.00     -0.00   
    49. D(N   0,C   4,C   3,Cl 13)    180.00  0.000000   -0.00    180.00   
    50. D(N   0,C   4,C   3,N   2)     -0.00 -0.000000    0.00     -0.00   
    51. D(Cl 14,C   4,N   0,C   5)     -0.01  0.000000    0.00     -0.01   
    52. D(C   3,C   4,N   0,C   5)    179.99 -0.000000    0.00    179.99   
    53. D(Cl 14,C   4,N   0,C   1)   -180.00 -0.000000   -0.00   -180.00   
    54. D(Cl 14,C   4,C   3,N   2)    180.00 -0.000000    0.00    180.00   
    55. D(Cl 14,C   4,C   3,Cl 13)     -0.00  0.000000   -0.00     -0.00   
    56. D(C   3,C   4,N   0,C   1)      0.00 -0.000000    0.00      0.00   
    57. D(H   9,C   5,N   0,C   4)    179.91  0.000001    0.00    179.91   
    58. D(H   9,C   5,N   0,C   1)     -0.10  0.000001    0.00     -0.09   
    59. D(H   8,C   5,N   0,C   4)    -60.28  0.000282   -0.11    -60.39   
    60. D(H   8,C   5,N   0,C   1)    119.71  0.000282   -0.11    119.60   
    61. D(H   7,C   5,N   0,C   4)     60.10 -0.000289    0.12     60.22   
    62. D(H   7,C   5,N   0,C   1)   -119.91 -0.000289    0.12   -119.79   
    63. D(H  12,C   6,N   2,C   3)     60.19 -0.000285    0.12     60.30   
    64. D(H  12,C   6,N   2,C   1)   -119.81 -0.000285    0.11   -119.70   
    65. D(H  11,C   6,N   2,C   3)    179.99 -0.000001    0.00    179.99   
    66. D(H  11,C   6,N   2,C   1)     -0.01  0.000000   -0.00     -0.01   
    67. D(H  10,C   6,N   2,C   3)    -60.20  0.000285   -0.11    -60.31   
    68. D(H  10,C   6,N   2,C   1)    119.80  0.000285   -0.11    119.69   
    ----------------------------------------------------------------------------

         *************************************************************
         *                GEOMETRY OPTIMIZATION CYCLE   2            *
         *************************************************************
---------------------------------
CARTESIAN COORDINATES (ANGSTROEM)
---------------------------------
  N     -1.069176   -1.174547   -0.000042
  C     -0.000012   -2.014768   -0.000019
  N      1.069162   -1.174545    0.000013
  C      0.678818    0.149091    0.000035
  C     -0.678847    0.149093    0.000005
  C     -2.449148   -1.615296    0.000063
  C      2.449138   -1.615249    0.000001
  H     -2.973970   -1.246162   -0.893258
  H     -2.973060   -1.248861    0.895045
  H     -2.448700   -2.711259   -0.001557
  H      2.973474   -1.247522   -0.894196
  H      2.448750   -2.711215    0.000076
  H      2.973518   -1.247396    0.894118
  Cl     1.769291    1.459862    0.000033
  Cl    -1.769299    1.459881    0.000008

----------------------------
CARTESIAN COORDINATES (A.U.)
----------------------------
  NO LB      ZA    FRAG     MASS         X           Y           Z
   0 N     7.0000    0    14.007   -2.020450   -2.219572   -0.000079
   1 C     6.0000    0    12.011   -0.000023   -3.807360   -0.000036
   2 N     7.0000    0    14.007    2.020423   -2.219568    0.000024
   3 C     6.0000    0    12.011    1.282781    0.281742    0.000066
   4 C     6.0000    0    12.011   -1.282834    0.281745    0.000009
   5 C     6.0000    0    12.011   -4.628218   -3.052467    0.000118
   6 C     6.0000    0    12.011    4.628201   -3.052378    0.000001
   7 H     1.0000    0     1.008   -5.619989   -2.354904   -1.688014
   8 H     1.0000    0     1.008   -5.618269   -2.360006    1.691390
   9 H     1.0000    0     1.008   -4.627373   -5.123537   -0.002942
  10 H     1.0000    0     1.008    5.619052   -2.357475   -1.689785
  11 H     1.0000    0     1.008    4.627467   -5.123454    0.000143
  12 H     1.0000    0     1.008    5.619135   -2.357237    1.689638
  13 Cl   17.0000    0    35.453    3.343476    2.758739    0.000062
  14 Cl   17.0000    0    35.453   -3.343491    2.758776    0.000016

--------------------------------
INTERNAL COORDINATES (ANGSTROEM)
--------------------------------
 N      0   0   0     0.000000000000     0.00000000     0.00000000
 C      1   0   0     1.359809976782     0.00000000     0.00000000
 N      2   1   0     1.359819413077   103.67485703     0.00000000
 C      3   2   1     1.379992909983   111.73155722     0.00000000
 C      4   3   2     1.357665043961   106.43098403     0.00000000
 C      1   2   3     1.448648194623   124.12436968   180.00677871
 C      3   2   1     1.448639014170   124.12632000   180.00214673
 H      6   1   2     1.099873228702   110.63272329   240.21122563
 H      6   1   2     1.099887464090   110.63708262   119.59880240
 H      6   1   2     1.095964565630   107.68953727   359.90585469
 H      7   3   2     1.099880985706   110.63545792   119.68704654
 H      7   3   2     1.095966199425   107.69092948     0.00000000
 H      7   3   2     1.099879720752   110.63487608   240.30065782
 Cl     4   3   2     1.705066070127   123.81091888   180.00175809
 Cl     5   4   3     1.705066631801   129.75734368   180.00013463

---------------------------
INTERNAL COORDINATES (A.U.)
---------------------------
 N      0   0   0     0.000000000000     0.00000000     0.00000000
 C      1   0   0     2.569668450293     0.00000000     0.00000000
 N      2   1   0     2.569686282305   103.67485703     0.00000000
 C      3   2   1     2.607808666621   111.73155722     0.00000000
 C      4   3   2     2.565615114684   106.43098403     0.00000000
 C      1   2   3     2.737548352238   124.12436968   180.00677871
 C      3   2   1     2.737531003694   124.12632000   180.00214673
 H      6   1   2     2.078459184279   110.63272329   240.21122563
 H      6   1   2     2.078486085263   110.63708262   119.59880240
 H      6   1   2     2.071072881522   107.68953727   359.90585469
[...]
      4       0.000001  -0.034003   0.000059   0.000060  -0.107600   0.000006
      5      -0.000003  -0.000004   0.000000   0.000609  -0.000001  -0.000003
      6      -0.048780   0.033723   0.000001  -0.000019   0.451193   0.052119
      7       0.006301   0.041628   0.000030   0.000045  -0.164989  -0.080018
      8       0.000003  -0.000001   0.012742  -0.013064  -0.000018  -0.000005
      9       0.018383   0.013888   0.000012   0.000013   0.075208  -0.018325
     10      -0.003931  -0.028009  -0.000070  -0.000084   0.230583   0.078339
     11       0.000000  -0.000000  -0.000935   0.000656   0.000012   0.000002
     12       0.018383  -0.013887   0.000029   0.000034  -0.075210  -0.018320
     13       0.003933  -0.028008   0.000148   0.000160   0.230589  -0.078334
     14      -0.000000  -0.000002   0.000936   0.000655   0.000002  -0.000000
     15       0.105171   0.099294   0.000242   0.000230   0.158608  -0.044204
     16       0.042862   0.029281   0.000082   0.000078   0.047034   0.006106
     17       0.000022   0.000066  -0.032270  -0.032087   0.000016  -0.000078
     18       0.105169  -0.099297  -0.000057  -0.000024  -0.158610  -0.044212
     19      -0.042859   0.029281   0.000024   0.000015   0.047033  -0.006107
     20      -0.000003  -0.000004   0.032252  -0.032105   0.000006  -0.000002
     21      -0.223157  -0.254437   0.141105   0.141582   0.204775   0.274665
     22      -0.268141  -0.226185   0.325672   0.325687   0.115157  -0.221795
     23       0.059376   0.097456   0.029561   0.029491   0.000352  -0.269633
     24      -0.222599  -0.253711  -0.143582  -0.144018   0.205650   0.273481
     25      -0.267259  -0.224431  -0.325362  -0.325292   0.116577  -0.225205
     26      -0.059803  -0.097869   0.027081   0.027013  -0.000279   0.269061
     27      -0.482047  -0.483953   0.000292   0.000379   0.250921  -0.294256
     28       0.042450   0.030378  -0.000555  -0.000558   0.051713   0.002621
     29      -0.000251  -0.000888   0.494996   0.494207  -0.001033   0.002093
     30      -0.222862   0.254051   0.142423  -0.142865  -0.205243   0.274118
     31       0.267662  -0.225227  -0.325525   0.325499   0.115900   0.223612
     32      -0.059581   0.097662  -0.028271   0.028218   0.000323   0.269395
     33      -0.482037   0.483963   0.000334   0.000335  -0.250894  -0.294299
     34      -0.042454   0.030384   0.000019   0.000022   0.051710  -0.002627
     35      -0.000009   0.000102  -0.494718   0.494492   0.000081   0.000117
     36      -0.222893   0.254112  -0.142110   0.142905  -0.205177   0.274167
     37       0.267714  -0.225394   0.325144  -0.325855   0.115801   0.223465
     38       0.059601  -0.097668  -0.028338   0.028317  -0.000305  -0.269421
     39      -0.000940   0.001159   0.000002   0.000002  -0.012918  -0.001424
     40      -0.000202   0.000831   0.000004   0.000005  -0.018698  -0.003453
     41       0.000001   0.000001   0.000038   0.000046  -0.000001  -0.000000
     42      -0.000940  -0.001159   0.000003   0.000004   0.012919  -0.001424
     43       0.000202   0.000831  -0.000005  -0.000005  -0.018698   0.003453
     44      -0.000001  -0.000001  -0.000038   0.000046   0.000000  -0.000001
                 36         37         38         39         40         41    
      0       0.023816  -0.213619   0.125996  -0.000061  -0.000404  -0.000001
      1      -0.066574  -0.022948  -0.033087   0.000037   0.000316  -0.000000
      2       0.000027   0.000008  -0.000015  -0.000001   0.000001  -0.000344
      3       0.000003   0.214313  -0.000000   0.001506  -0.000000  -0.000000
      4       0.065756   0.000002   0.031735   0.000000   0.000463  -0.000000
      5       0.000004   0.000003   0.000001  -0.000000   0.000000   0.000230
      6      -0.023826  -0.213622  -0.125996  -0.000061   0.000404  -0.000000
      7      -0.066561   0.022946  -0.033089  -0.000037   0.000316  -0.000000
      8      -0.000004   0.000002   0.000002   0.000000  -0.000000  -0.000348
      9      -0.021910   0.055518   0.669290  -0.000130   0.000097  -0.000000
     10       0.019431  -0.091571   0.060112  -0.000700  -0.000798   0.000000
     11       0.000001  -0.000005   0.000006   0.000000  -0.000000  -0.000084
     12       0.021913   0.055517  -0.669291  -0.000130  -0.000097   0.000000
     13       0.019445   0.091570   0.060102   0.000699  -0.000799  -0.000001
     14      -0.000001   0.000004  -0.000004   0.000000  -0.000000  -0.000082
     15       0.028149   0.016517  -0.025419  -0.035117   0.035222   0.000034
     16      -0.006511   0.012365   0.022660  -0.002107   0.002243  -0.000033
     17       0.000051  -0.000024   0.000019   0.000044  -0.000044   0.067286
     18      -0.028142   0.016519   0.025419  -0.035129  -0.035211   0.000004
     19      -0.006510  -0.012364   0.022661   0.002107   0.002242  -0.000003
     20      -0.000001  -0.000001  -0.000001   0.000005   0.000005   0.068042
     21      -0.338691   0.397605  -0.095016   0.205362  -0.205849  -0.232556
     22       0.173362  -0.005423  -0.021179  -0.148249   0.148123   0.171772
     23       0.277835  -0.223694   0.018741   0.365051  -0.364943  -0.401752
     24      -0.337749   0.397416  -0.094945   0.205303  -0.205791   0.232175
     25       0.176176  -0.006642  -0.021113  -0.147527   0.147400  -0.170733
     26      -0.277266   0.223398  -0.018735  -0.365969   0.365862  -0.402238
     27       0.217415   0.053332   0.092109   0.000136  -0.000248   0.000002
     28      -0.002576   0.008814   0.026111   0.321450  -0.321706  -0.000629
     29      -0.001588   0.000467  -0.000041   0.000403  -0.000404   0.006592
     30       0.338166   0.397506   0.094983   0.205392   0.205739   0.234952
     31       0.174775   0.006042  -0.021145   0.147943   0.147716   0.173171
     32       0.277489   0.223517   0.018734  -0.365664  -0.365307  -0.406521
     33      -0.217364   0.053336  -0.092110   0.000140   0.000252   0.000000
     34      -0.002580  -0.008814   0.026110  -0.321560  -0.321595   0.000054
     35       0.000064   0.000010   0.000005   0.000005   0.000005   0.006667
     36       0.338185   0.397499   0.094979   0.205410   0.205758  -0.234998
     37       0.174694   0.006021  -0.021144   0.147938   0.147711  -0.173186
     38      -0.277528  -0.223560  -0.018742   0.365606   0.365250  -0.406502
     39       0.000242  -0.000430  -0.024569   0.000031   0.000078  -0.000000
     40       0.000918   0.004572  -0.019884   0.000006   0.000052   0.000000
     41       0.000000  -0.000000  -0.000000   0.000000  -0.000000   0.000001
     42      -0.000242  -0.000430   0.024569   0.000031  -0.000078  -0.000000
     43       0.000917  -0.004572  -0.019883  -0.000006   0.000052  -0.000000
     44       0.000000   0.000000  -0.000001  -0.000000   0.000000   0.000001
                 42         43         44    
      0       0.000001   0.000180  -0.000159
      1       0.000000   0.000161   0.000230
      2       0.000382   0.000000  -0.000000
      3       0.000000  -0.000000  -0.000107
      4       0.000000  -0.000068   0.000000
      5      -0.000001   0.000000  -0.000000
      6      -0.000000  -0.000182  -0.000158
      7       0.000000   0.000159  -0.000231
      8      -0.000378   0.000000  -0.000000
      9       0.000000  -0.000422  -0.000428
     10      -0.000000   0.000025   0.000056
     11      -0.000208   0.000000  -0.000000
     12      -0.000000   0.000419  -0.000431
     13       0.000000   0.000025  -0.000056
     14       0.000209  -0.000000   0.000000
     15      -0.000034   0.016475  -0.016554
     16       0.000034  -0.064834   0.065254
     17      -0.068018  -0.000037   0.000038
     18       0.000004  -0.016590  -0.016437
     19      -0.000004  -0.065291  -0.064797
     20       0.067262  -0.000003  -0.000003
     21       0.235218  -0.101403   0.102092
     22      -0.173672   0.071248  -0.071689
     23       0.406251  -0.183768   0.184894
     24      -0.234833  -0.100921   0.101610
     25       0.172621   0.070546  -0.070985
     26       0.406743   0.183434  -0.184562
     27      -0.000002  -0.001069   0.001084
     28       0.000638   0.627750  -0.632301
     29      -0.006661   0.000773  -0.000779
     30       0.232391   0.101849   0.101112
     31       0.171218   0.071383   0.070824
     32      -0.401993  -0.184873  -0.183414
     33       0.000000   0.001069   0.001068
     34       0.000058   0.632179   0.627876
     35       0.006588  -0.000008  -0.000008
     36      -0.232436   0.101899   0.101161
     37      -0.171232   0.071411   0.070851
     38      -0.401971   0.184916   0.183453
     39       0.000000   0.000027   0.000013
     40       0.000000   0.000025   0.000009
     41       0.000003  -0.000000   0.000000
     42       0.000000  -0.000027   0.000013
     43       0.000000   0.000025  -0.000009
     44      -0.000003   0.000000  -0.000000


-----------
IR SPECTRUM
-----------

 Mode   freq       eps      Int      T**2         TX        TY        TZ
       cm**-1   L/(mol*cm) km/mol    a.u.
----------------------------------------------------------------------------
  6:    100.50   0.000000    0.00  0.000000  (-0.000011  0.000039 -0.000009)
  7:    108.29   0.000354    1.79  0.001020  ( 0.000019 -0.000060 -0.031935)
  8:    120.00   0.000000    0.00  0.000000  (-0.000019  0.000055  0.000015)
  9:    165.87   0.002004   10.13  0.003771  ( 0.000010  0.000000  0.061407)
 10:    168.45   0.000130    0.66  0.000241  ( 0.000000 -0.015533  0.000067)
 11:    234.58   0.000036    0.18  0.000048  ( 0.006899  0.000001  0.000029)
 12:    271.83   0.001837    9.29  0.002109  ( 0.000010 -0.000060  0.045927)
 13:    282.78   0.001788    9.04  0.001973  ( 0.000000 -0.044421 -0.000049)
 14:    322.18   0.000000    0.00  0.000000  ( 0.000004  0.000003  0.000000)
 15:    439.94   0.001859    9.40  0.001319  ( 0.036315  0.000000 -0.000005)
 16:    542.89   0.001395    7.05  0.000802  (-0.000000  0.028313 -0.000001)
 17:    578.95   0.002811   14.20  0.001515  ( 0.038922  0.000000  0.000000)
 18:    639.99   0.000565    2.86  0.000276  ( 0.000012  0.000020 -0.016598)
 19:    650.78   0.000949    4.80  0.000455  (-0.000000  0.021337  0.000013)
 20:    669.97   0.000000    0.00  0.000000  ( 0.000008 -0.000011 -0.000000)
 21:    890.05   0.000066    0.34  0.000023  ( 0.004827  0.000000 -0.000004)
 22:   1081.80   0.000080    0.40  0.000023  (-0.000000  0.004796 -0.000002)
 23:   1090.12   0.000008    0.04  0.000002  ( 0.001505 -0.000001  0.000004)
 24:   1112.08   0.012646   63.91  0.003549  ( 0.000000 -0.059570  0.000002)
 25:   1142.13   0.000038    0.19  0.000010  (-0.000043 -0.000002  0.003233)
 26:   1143.59   0.000000    0.00  0.000000  (-0.000042 -0.000003  0.000001)
 27:   1176.38   0.018811   95.06  0.004990  (-0.070641 -0.000000 -0.000002)
 28:   1383.64   0.003690   18.65  0.000832  (-0.028848 -0.000000 -0.000011)
 29:   1396.71   0.000388    1.96  0.000087  (-0.000001  0.009306 -0.000020)
 30:   1418.40   0.008846   44.70  0.001946  ( 0.044115  0.000000 -0.000045)
 31:   1430.85   0.001298    6.56  0.000283  (-0.000000 -0.016825 -0.000055)
 32:   1446.89   0.000000    0.00  0.000000  ( 0.000088  0.000063  0.000012)
 33:   1447.34   0.007867   39.76  0.001696  ( 0.000101  0.000058  0.041184)
 34:   1464.65   0.009509   48.05  0.002026  (-0.000000  0.045011 -0.000015)
 35:   1472.19   0.005826   29.44  0.001235  (-0.035142  0.000005  0.000056)
 36:   1478.46   0.012888   65.13  0.002720  ( 0.000003  0.052157 -0.000039)
 37:   1490.44   0.016310   82.43  0.003415  ( 0.058438 -0.000000  0.000003)
 38:   1699.69   0.006454   32.62  0.001185  (-0.000000  0.034423  0.000004)
 39:   3084.21   0.013095   66.17  0.001325  (-0.036400  0.000001  0.000015)
 40:   3084.85   0.000299    1.51  0.000030  ( 0.000006  0.005500 -0.000012)
 41:   3186.89   0.003346   16.91  0.000328  ( 0.000003 -0.000005  0.018102)
 42:   3186.92   0.000000    0.00  0.000000  (-0.000001  0.000005 -0.000101)
 43:   3225.63   0.000304    1.54  0.000029  (-0.000008 -0.005423 -0.000002)
 44:   3225.83   0.000057    0.29  0.000006  (-0.002358  0.000019  0.000002)

* The epsilon (eps) is given for a Dirac delta lineshape.
** The dipole moment derivative (T) already includes vibrational overlap.

The first frequency considered to be a vibration is 6
The total number of vibrations considered is 39


--------------------------
THERMOCHEMISTRY AT 298.15K
--------------------------

Temperature         ... 298.15 K
Pressure            ... 1.00 atm
Total Mass          ... 165.02 AMU

Throughout the following assumptions are being made:
  (1) The electronic state is orbitally nondegenerate
  (2) There are no thermally accessible electronically excited states
  (3) Hindered rotations indicated by low frequency modes are not
      treated as such but are treated as vibrations and this may
      cause some error
  (4) All equations used are the standard statistical mechanics
      equations for an ideal gas
  (5) All vibrations are strictly harmonic

freq.     100.50  E(vib)   ...       0.46 
freq.     108.29  E(vib)   ...       0.45 
freq.     120.00  E(vib)   ...       0.44 
freq.     165.87  E(vib)   ...       0.39 
freq.     168.45  E(vib)   ...       0.38 
freq.     234.58  E(vib)   ...       0.32 
freq.     271.83  E(vib)   ...       0.29 
freq.     282.78  E(vib)   ...       0.28 
freq.     322.18  E(vib)   ...       0.25 
freq.     439.94  E(vib)   ...       0.17 
freq.     542.89  E(vib)   ...       0.12 
freq.     578.95  E(vib)   ...       0.11 
freq.     639.99  E(vib)   ...       0.09 
freq.     650.78  E(vib)   ...       0.08 
freq.     669.97  E(vib)   ...       0.08 
freq.     890.05  E(vib)   ...       0.04 
freq.    1081.80  E(vib)   ...       0.02 
freq.    1090.12  E(vib)   ...       0.02 
freq.    1112.08  E(vib)   ...       0.01 
freq.    1142.13  E(vib)   ...       0.01 
freq.    1143.59  E(vib)   ...       0.01 
freq.    1176.38  E(vib)   ...       0.01 
freq.    1383.64  E(vib)   ...       0.00 
freq.    1396.71  E(vib)   ...       0.00 
freq.    1418.40  E(vib)   ...       0.00 
freq.    1430.85  E(vib)   ...       0.00 
freq.    1446.89  E(vib)   ...       0.00 
freq.    1447.34  E(vib)   ...       0.00 
freq.    1464.65  E(vib)   ...       0.00 
freq.    1472.19  E(vib)   ...       0.00 
freq.    1478.46  E(vib)   ...       0.00 
freq.    1490.44  E(vib)   ...       0.00 
freq.    1699.69  E(vib)   ...       0.00 
freq.    3084.21  E(vib)   ...       0.00 
freq.    3084.85  E(vib)   ...       0.00 
freq.    3186.89  E(vib)   ...       0.00 
freq.    3186.92  E(vib)   ...       0.00 
freq.    3225.63  E(vib)   ...       0.00 
freq.    3225.83  E(vib)   ...       0.00 

------------
INNER ENERGY
------------

The inner energy is: U= E(el) + E(ZPE) + E(vib) + E(rot) + E(trans)
    E(el)   - is the total energy from the electronic structure calculation
              = E(kin-el) + E(nuc-el) + E(el-el) + E(nuc-nuc)
    E(ZPE)  - the the zero temperature vibrational energy from the frequency calculation
    E(vib)  - the the finite temperature correction to E(ZPE) due to population
              of excited vibrational states
    E(rot)  - is the rotational thermal energy
    E(trans)- is the translational thermal energy

Summary of contributions to the inner energy U:
Electronic energy                ...  -1223.41557565 Eh
Zero point energy                ...      0.10948131 Eh      68.70 kcal/mol
Thermal vibrational correction   ...      0.00647369 Eh       4.06 kcal/mol
Thermal rotational correction    ...      0.00141627 Eh       0.89 kcal/mol
Thermal translational correction ...      0.00141627 Eh       0.89 kcal/mol
-----------------------------------------------------------------------
Total thermal energy                  -1223.29678809 Eh


Summary of corrections to the electronic energy:
(perhaps to be used in another calculation)
Total thermal correction                  0.00930624 Eh       5.84 kcal/mol
Non-thermal (ZPE) correction              0.10948131 Eh      68.70 kcal/mol
-----------------------------------------------------------------------
Total correction                          0.11878755 Eh      74.54 kcal/mol


--------
ENTHALPY
--------

The enthalpy is H = U + kB*T
                kB is Boltzmann's constant
Total free energy                 ...  -1223.29678809 Eh 
Thermal Enthalpy correction       ...      0.00094421 Eh       0.59 kcal/mol
-----------------------------------------------------------------------
Total Enthalpy                    ...  -1223.29584388 Eh


Note: Only C1 symmetry has been detected, increase convergence thresholds 
      if your molecule has a higher symmetry. Symmetry factor of 1.0 is   
      used for the rotational entropy correction. 
 

Note: Rotational entropy computed according to Herzberg 
Infrared and Raman Spectra, Chapter V,1, Van Nostrand Reinhold, 1945 
Point Group:  C1, Symmetry Number:   1  
Rotational constants in cm-1:     0.051594     0.036737     0.021636 

Vibrational entropy computed according to the QRRHO of S. Grimme
Chem.Eur.J. 2012 18 9955


-------
ENTROPY
-------

The entropy contributions are T*S = T*(S(el)+S(vib)+S(rot)+S(trans))
     S(el)   - electronic entropy
     S(vib)  - vibrational entropy
     S(rot)  - rotational entropy
     S(trans)- translational entropy
The entropies will be listed as multiplied by the temperature to get
units of energy

Electronic entropy                ...      0.00000000 Eh      0.00 kcal/mol
Vibrational entropy               ...      0.01139410 Eh      7.15 kcal/mol
Rotational entropy                ...      0.01427972 Eh      8.96 kcal/mol
Translational entropy             ...      0.01958067 Eh     12.29 kcal/mol
-----------------------------------------------------------------------
Final entropy term                ...      0.04525450 Eh     28.40 kcal/mol

In case the symmetry of your molecule has not been determined correctly
or in case you have a reason to use a different symmetry number we print 
out the resulting rotational entropy values for sn=1,12 :
 --------------------------------------------------------
|  sn= 1 | S(rot)=       0.01427972 Eh      8.96 kcal/mol|
|  sn= 2 | S(rot)=       0.01362527 Eh      8.55 kcal/mol|
|  sn= 3 | S(rot)=       0.01324243 Eh      8.31 kcal/mol|
|  sn= 4 | S(rot)=       0.01297081 Eh      8.14 kcal/mol|
|  sn= 5 | S(rot)=       0.01276012 Eh      8.01 kcal/mol|
|  sn= 6 | S(rot)=       0.01258798 Eh      7.90 kcal/mol|
|  sn= 7 | S(rot)=       0.01244243 Eh      7.81 kcal/mol|
|  sn= 8 | S(rot)=       0.01231635 Eh      7.73 kcal/mol|
|  sn= 9 | S(rot)=       0.01220515 Eh      7.66 kcal/mol|
|  sn=10 | S(rot)=       0.01210567 Eh      7.60 kcal/mol|
|  sn=11 | S(rot)=       0.01201568 Eh      7.54 kcal/mol|
|  sn=12 | S(rot)=       0.01193352 Eh      7.49 kcal/mol|
 --------------------------------------------------------


-------------------
GIBBS FREE ENERGY
-------------------

The Gibbs free energy is G = H - T*S

Total enthalpy                    ...  -1223.29584388 Eh 
Total entropy correction          ...     -0.04525450 Eh    -28.40 kcal/mol
-----------------------------------------------------------------------
Final Gibbs free energy         ...  -1223.34109838 Eh

For completeness - the Gibbs free energy minus the electronic energy
G-E(el)                           ...      0.07447727 Eh     46.74 kcal/mol


Timings for individual modules:

Sum of individual times         ...     1134.870 sec (=  18.914 min)
GTO integral calculation        ...        1.163 sec (=   0.019 min)   0.1 %
SCF iterations                  ...      529.075 sec (=   8.818 min)  46.6 %
SCF Gradient evaluation         ...      130.404 sec (=   2.173 min)  11.5 %
Geometry relaxation             ...        0.175 sec (=   0.003 min)   0.0 %
Analytical frequency calculation...      474.052 sec (=   7.901 min)  41.8 %
                             ****ORCA TERMINATED NORMALLY****
TOTAL RUN TIME: 0 days 0 hours 18 minutes 55 seconds 467 msec
