
                                 *****************
                                 * O   R   C   A *
                                 *****************

                                            #,                                       
                                            ###                                      
                                            ####                                     
                                            #####                                    
                                            ######                                   
                                           ########,                                 
                                     ,,################,,,,,                         
                               ,,#################################,,                 
                          ,,##########################################,,             
                       ,#########################################, ''#####,          
                    ,#############################################,,   '####,        
                  ,##################################################,,,,####,       
                ,###########''''           ''''###############################       
              ,#####''   ,,,,##########,,,,          '''####'''          '####       
            ,##' ,,,,###########################,,,                        '##       
           ' ,,###''''                  '''############,,,                           
         ,,##''                                '''############,,,,        ,,,,,,###''
      ,#''                                            '''#######################'''  
     '                                                          ''''####''''         
             ,#######,   #######,   ,#######,      ##                                
            ,#'     '#,  ##    ##  ,#'     '#,    #''#        ######   ,####,        
            ##       ##  ##   ,#'  ##            #'  '#       #        #'  '#        
            ##       ##  #######   ##           ,######,      #####,   #    #        
            '#,     ,#'  ##    ##  '#,     ,#' ,#      #,         ##   #,  ,#        
             '#######'   ##     ##  '#######'  #'      '#     #####' # '####'        



                  #######################################################
                  #                        -***-                        #
                  #          Department of theory and spectroscopy      #
                  #    Directorship and core code : Frank Neese         #
                  #        Max Planck Institute fuer Kohlenforschung    #
                  #                Kaiser Wilhelm Platz 1               #
                  #                 D-45470 Muelheim/Ruhr               #
                  #                      Germany                        #
                  #                                                     #
                  #                  All rights reserved                #
                  #                        -***-                        #
                  #######################################################


                         Program Version 5.0.4 -  RELEASE  -


 With contributions from (in alphabetic order):
   Daniel Aravena         : Magnetic Suceptibility
   Michael Atanasov       : Ab Initio Ligand Field Theory (pilot matlab implementation)
   Alexander A. Auer      : GIAO ZORA, VPT2 properties, NMR spectrum
   Ute Becker             : Parallelization
   Giovanni Bistoni       : ED, misc. LED, open-shell LED, HFLD
   Martin Brehm           : Molecular dynamics
   Dmytro Bykov           : SCF Hessian
   Vijay G. Chilkuri      : MRCI spin determinant printing, contributions to CSF-ICE
   Dipayan Datta          : RHF DLPNO-CCSD density
   Achintya Kumar Dutta   : EOM-CC, STEOM-CC
   Dmitry Ganyushin       : Spin-Orbit,Spin-Spin,Magnetic field MRCI
   Miquel Garcia          : C-PCM and meta-GGA Hessian, CC/C-PCM, Gaussian charge scheme
   Yang Guo               : DLPNO-NEVPT2, F12-NEVPT2, CIM, IAO-localization
   Andreas Hansen         : Spin unrestricted coupled pair/coupled cluster methods
   Benjamin Helmich-Paris : MC-RPA, TRAH-SCF, COSX integrals
   Lee Huntington         : MR-EOM, pCC
   Robert Izsak           : Overlap fitted RIJCOSX, COSX-SCS-MP3, EOM
   Marcus Kettner         : VPT2
   Christian Kollmar      : KDIIS, OOCD, Brueckner-CCSD(T), CCSD density, CASPT2, CASPT2-K
   Simone Kossmann        : Meta GGA functionals, TD-DFT gradient, OOMP2, MP2 Hessian
   Martin Krupicka        : Initial AUTO-CI
   Lucas Lang             : DCDCAS
   Marvin Lechner         : AUTO-CI (C++ implementation), FIC-MRCC
   Dagmar Lenk            : GEPOL surface, SMD
   Dimitrios Liakos       : Extrapolation schemes; Compound Job, initial MDCI parallelization
   Dimitrios Manganas     : Further ROCIS development; embedding schemes
   Dimitrios Pantazis     : SARC Basis sets
   Anastasios Papadopoulos: AUTO-CI, single reference methods and gradients
   Taras Petrenko         : DFT Hessian,TD-DFT gradient, ASA, ECA, R-Raman, ABS, FL, XAS/XES, NRVS
   Peter Pinski           : DLPNO-MP2, DLPNO-MP2 Gradient
   Christoph Reimann      : Effective Core Potentials
   Marius Retegan         : Local ZFS, SOC
   Christoph Riplinger    : Optimizer, TS searches, QM/MM, DLPNO-CCSD(T), (RO)-DLPNO pert. Triples
   Tobias Risthaus        : Range-separated hybrids, TD-DFT gradient, RPA, STAB
   Michael Roemelt        : Original ROCIS implementation
   Masaaki Saitow         : Open-shell DLPNO-CCSD energy and density
   Barbara Sandhoefer     : DKH picture change effects
   Avijit Sen             : IP-ROCIS
   Kantharuban Sivalingam : CASSCF convergence, NEVPT2, FIC-MRCI
   Bernardo de Souza      : ESD, SOC TD-DFT
   Georgi Stoychev        : AutoAux, RI-MP2 NMR, DLPNO-MP2 response
   Willem Van den Heuvel  : Paramagnetic NMR
   Boris Wezisla          : Elementary symmetry handling
   Frank Wennmohs         : Technical directorship


 We gratefully acknowledge several colleagues who have allowed us to
 interface, adapt or use parts of their codes:
   Stefan Grimme, W. Hujo, H. Kruse, P. Pracht,  : VdW corrections, initial TS optimization,
                  C. Bannwarth, S. Ehlert          DFT functionals, gCP, sTDA/sTD-DF
   Ed Valeev, F. Pavosevic, A. Kumar             : LibInt (2-el integral package), F12 methods
   Garnet Chan, S. Sharma, J. Yang, R. Olivares  : DMRG
   Ulf Ekstrom                                   : XCFun DFT Library
   Mihaly Kallay                                 : mrcc  (arbitrary order and MRCC methods)
   Jiri Pittner, Ondrej Demel                    : Mk-CCSD
   Frank Weinhold                                : gennbo (NPA and NBO analysis)
   Christopher J. Cramer and Donald G. Truhlar   : smd solvation model
   Lars Goerigk                                  : TD-DFT with DH, B97 family of functionals
   V. Asgeirsson, H. Jonsson                     : NEB implementation
   FAccTs GmbH                                   : IRC, NEB, NEB-TS, DLPNO-Multilevel, CI-OPT
                                                   MM, QMMM, 2- and 3-layer-ONIOM, Crystal-QMMM,
                                                   LR-CPCM, SF, NACMEs, symmetry and pop. for TD-DFT,
                                                   nearIR, NL-DFT gradient (VV10), updates on ESD,
                                                   ML-optimized integration grids
   S Lehtola, MJT Oliveira, MAL Marques          : LibXC Library
   Liviu Ungur et al                             : ANISO software


 Your calculation uses the libint2 library for the computation of 2-el integrals
 For citations please refer to: http://libint.valeyev.net

 Your ORCA version has been built with support for libXC version: 5.1.0
 For citations please refer to: https://tddft.org/programs/libxc/

 This ORCA versions uses:
   CBLAS   interface :  Fast vector & matrix operations
   LAPACKE interface :  Fast linear algebra routines
   SCALAPACK package :  Parallel linear algebra routines
   Shared memory     :  Shared parallel matrices
   BLAS/LAPACK       :  OpenBLAS 0.3.15  USE64BITINT DYNAMIC_ARCH NO_AFFINITY SkylakeX SINGLE_THREADED
        Core in use  :  SkylakeX
   Copyright (c) 2011-2014, The OpenBLAS Project




***************************************
The coordinates will be read from file: 3_deprot_aq_2.xyz
***************************************


Your calculation utilizes the atom-pairwise dispersion correction
based on tight binding partial charges (D4)
Cite in your paper:
E.Caldeweyher, C.Bannwarth, S.Grimme, J.Chem.Phys., (2017), 147, 034112.
E.Caldeweyher, S.Ehlert, A.Hansen, H.Neugebauer, S.Grimme, J.Chem.Phys., (2018), in progress.
   

XCFun DFT library Copyright 2009-2010 Ulf Ekstrom and contributors.
See http://admol.org/xcfun for more information.
This is free software; see the source code for copying conditions.
There is ABSOLUTELY NO WARRANTY; not even for MERCHANTABILITY or FITNESS FOR A PARTICULAR PURPOSE.
For details see the documentation.
Scientific users of this library should cite U. Ekstrom, L. Visscher, R. Bast, A. J. Thorvaldsen and K. Ruud;
J.Chem.Theor.Comp. 2010, DOI: 10.1021/ct100117s
XCFun Version 0.99 

================================================================================

----- Orbital basis set information -----
Your calculation utilizes the basis: def2-SVP
   F. Weigend and R. Ahlrichs, Phys. Chem. Chem. Phys. 7, 3297 (2005).

----- AuxJ basis set information -----
Your calculation utilizes the auxiliary basis: def2/J
   F. Weigend, Phys. Chem. Chem. Phys. 8, 1057 (2006).

================================================================================
                                        WARNINGS
                       Please study these warnings very carefully!
================================================================================


WARNING: Geometry Optimization
  ===> : Switching off AutoStart
         For restart on a previous wavefunction, please use MOREAD

INFO   : the flag for use of the SHARK integral package has been found!

================================================================================
                                       INPUT FILE
================================================================================
NAME = 3_deprot_aq_2.inp
|  1> # ORCA 5.0.4 - /users/bwb16179/postgrad/2024_03/DFT_Crest_Conformers/Opt/deprot/3_deprot_aq_2.inp # write input file
|  2> # Basic Mode
|  3> #
|  4> ! Opt Freq wB97X Def2-SVP D4 SlowConv TightSCF Defgrid2 Def2/J RIJCOSX CPCM(Water)
|  5> 
|  6> 
|  7> 
|  8> %maxcore 4500
|  9> 
| 10> %geom
| 11> Maxiter 150
| 12> END
| 13> 
| 14> * xyzfile 0 1 3_deprot_aq_2.xyz
| 15> 
| 16>                          ****END OF INPUT****
================================================================================

                       *****************************
                       * Geometry Optimization Run *
                       *****************************

Geometry optimization settings:
Update method            Update   .... BFGS
Choice of coordinates    CoordSys .... Z-matrix Internals
Initial Hessian          InHess   .... Almoef's Model

Convergence Tolerances:
Energy Change            TolE     ....  5.0000e-06 Eh
Max. Gradient            TolMAXG  ....  3.0000e-04 Eh/bohr
RMS Gradient             TolRMSG  ....  1.0000e-04 Eh/bohr
Max. Displacement        TolMAXD  ....  4.0000e-03 bohr
RMS Displacement         TolRMSD  ....  2.0000e-03 bohr
Strict Convergence                ....  False
------------------------------------------------------------------------------
                        ORCA OPTIMIZATION COORDINATE SETUP
------------------------------------------------------------------------------

The optimization will be done in new redundant internal coordinates
Making redundant internal coordinates   ...  (new redundants) done
Evaluating the initial hessian          ...  (Almloef) done
Evaluating the coordinates              ...  done
Calculating the B-matrix                .... done
Calculating the G-matrix                .... done
Diagonalizing the G-matrix              .... done
The first mode is                       ....   29
The number of degrees of freedom        ....   39

    -----------------------------------------------------------------
                    Redundant Internal Coordinates


    -----------------------------------------------------------------
         Definition                    Initial Value    Approx d2E/dq
    -----------------------------------------------------------------
      1. B(C   1,N   0)                  1.3578         0.629960   
      2. B(N   2,C   1)                  1.3548         0.636892   
      3. B(C   3,N   2)                  1.3721         0.597673   
      4. B(C   4,C   3)                  1.3632         0.689340   
      5. B(C   4,N   0)                  1.3728         0.596094   
      6. B(C   5,N   0)                  1.4380         0.469091   
      7. B(C   6,N   2)                  1.4349         0.474473   
      8. B(H   7,C   5)                  1.0904         0.359580   
      9. B(H   8,C   5)                  1.0900         0.360034   
     10. B(H   9,C   5)                  1.0881         0.362584   
     11. B(H  10,C   6)                  1.0916         0.358048   
     12. B(H  11,C   6)                  1.0916         0.358038   
     13. B(H  12,C   6)                  1.0873         0.363688   
     14. B(Cl 13,C   3)                  1.7085         0.435174   
     15. B(Cl 14,C   4)                  1.7094         0.433736   
     16. A(C   1,N   0,C   5)          123.6429         0.408797   
     17. A(C   4,N   0,C   5)          125.1842         0.404823   
     18. A(C   1,N   0,C   4)          111.1727         0.426619   
     19. A(N   0,C   1,N   2)          104.4547         0.431716   
     20. A(C   1,N   2,C   3)          111.3163         0.427659   
     21. A(C   1,N   2,C   6)          124.3477         0.410419   
     22. A(C   3,N   2,C   6)          124.3360         0.405829   
     23. A(C   4,C   3,Cl 13)          129.9281         0.434053   
     24. A(N   2,C   3,C   4)          106.5210         0.436640   
     25. A(N   2,C   3,Cl 13)          123.5509         0.420338   
     26. A(N   0,C   4,Cl 14)          124.4169         0.419891   
     27. A(N   0,C   4,C   3)          106.5354         0.436432   
     28. A(C   3,C   4,Cl 14)          129.0477         0.433794   
     29. A(H   8,C   5,H   9)          109.5597         0.291145   
     30. A(H   7,C   5,H   9)          109.4846         0.291088   
     31. A(N   0,C   5,H   9)          109.4777         0.335107   
     32. A(H   7,C   5,H   8)          108.5488         0.290765   
     33. A(N   0,C   5,H   8)          109.8125         0.334714   
     34. A(N   0,C   5,H   7)          109.9408         0.334644   
     35. A(H  11,C   6,H  12)          109.7152         0.291030   
     36. A(H  10,C   6,H  12)          109.7163         0.291031   
     37. A(N   2,C   6,H  12)          107.6817         0.335913   
     38. A(H  10,C   6,H  11)          108.7221         0.290317   
     39. A(N   2,C   6,H  11)          110.5039         0.335040   
     40. A(N   2,C   6,H  10)          110.4922         0.335041   
     41. D(N   2,C   1,N   0,C   5)   -179.8937         0.029185   
     42. D(N   2,C   1,N   0,C   4)     -0.0165         0.029185   
     43. D(C   3,N   2,C   1,N   0)      0.0104         0.029881   
     44. D(C   6,N   2,C   1,N   0)   -179.9950         0.029881   
     45. D(Cl 13,C   3,N   2,C   1)   -179.9758         0.028768   
     46. D(C   4,C   3,N   2,C   6)   -179.9953         0.028768   
     47. D(Cl 13,C   3,N   2,C   6)      0.0296         0.028768   
     48. D(C   4,C   3,N   2,C   1)     -0.0007         0.028768   
     49. D(N   0,C   4,C   3,Cl 13)    179.9636         0.033383   
     50. D(N   0,C   4,C   3,N   2)     -0.0093         0.033383   
     51. D(Cl 14,C   4,N   0,C   5)     -0.1140         0.028605   
     52. D(C   3,C   4,N   0,C   5)    179.8914         0.028605   
     53. D(Cl 14,C   4,N   0,C   1)   -179.9890         0.028605   
     54. D(Cl 14,C   4,C   3,N   2)    179.9964         0.033383   
     55. D(Cl 14,C   4,C   3,Cl 13)     -0.0306         0.033383   
     56. D(C   3,C   4,N   0,C   1)      0.0165         0.028605   
     57. D(H   9,C   5,N   0,C   4)      1.8653         0.018799   
     58. D(H   9,C   5,N   0,C   1)   -178.2748         0.018799   
     59. D(H   8,C   5,N   0,C   4)    122.1883         0.018799   
     60. D(H   8,C   5,N   0,C   1)    -57.9518         0.018799   
     61. D(H   7,C   5,N   0,C   4)   -118.4450         0.018799   
     62. D(H   7,C   5,N   0,C   1)     61.4149         0.018799   
     63. D(H  12,C   6,N   2,C   3)    179.9382         0.019244   
     64. D(H  12,C   6,N   2,C   1)     -0.0558         0.019244   
     65. D(H  11,C   6,N   2,C   3)    -60.2446         0.019244   
     66. D(H  11,C   6,N   2,C   1)    119.7614         0.019244   
     67. D(H  10,C   6,N   2,C   3)     60.1264         0.019244   
     68. D(H  10,C   6,N   2,C   1)   -119.8675         0.019244   
    -----------------------------------------------------------------

Number of atoms                         .... 15
Number of degrees of freedom            .... 68

         *************************************************************
         *                GEOMETRY OPTIMIZATION CYCLE   1            *
         *************************************************************
---------------------------------
CARTESIAN COORDINATES (ANGSTROEM)
---------------------------------
  N     -1.076543   -1.177420   -0.000822
  C     -0.002129   -2.007567   -0.000506
  N      1.067578   -1.176207   -0.000057
  C      0.677023    0.139116    0.000141
  C     -0.686216    0.138721   -0.000209
  C     -2.438930   -1.637649    0.000876
  C      2.433817   -1.614817    0.000291
  H     -2.633587   -2.220056    0.901914
  H     -2.615478   -2.272655   -0.867344
  H     -3.110867   -0.782354   -0.030672
  H      2.953035   -1.246935    0.887178
  H      2.953260   -1.248331   -0.887052
  H      2.431603   -2.702116    0.001136
  Cl     1.773174    1.449561    0.000102
  Cl    -1.763438    1.465930   -0.000102

----------------------------
CARTESIAN COORDINATES (A.U.)
----------------------------
  NO LB      ZA    FRAG     MASS         X           Y           Z
   0 N     7.0000    0    14.007   -2.034372   -2.225001   -0.001554
   1 C     6.0000    0    12.011   -0.004023   -3.793753   -0.000956
   2 N     7.0000    0    14.007    2.017429   -2.222710   -0.000108
   3 C     6.0000    0    12.011    1.279389    0.262891    0.000266
   4 C     6.0000    0    12.011   -1.296760    0.262145   -0.000395
   5 C     6.0000    0    12.011   -4.608909   -3.094709    0.001656
   6 C     6.0000    0    12.011    4.599248   -3.051563    0.000549
   7 H     1.0000    0     1.008   -4.976758   -4.195297    1.704371
   8 H     1.0000    0     1.008   -4.942537   -4.294695   -1.639044
   9 H     1.0000    0     1.008   -5.878686   -1.478436   -0.057961
  10 H     1.0000    0     1.008    5.580427   -2.356365    1.676523
  11 H     1.0000    0     1.008    5.580853   -2.359003   -1.676286
  12 H     1.0000    0     1.008    4.595063   -5.106259    0.002147
  13 Cl   17.0000    0    35.453    3.350813    2.739273    0.000192
  14 Cl   17.0000    0    35.453   -3.332415    2.770206   -0.000192

--------------------------------
INTERNAL COORDINATES (ANGSTROEM)
--------------------------------
 N      0   0   0     0.000000000000     0.00000000     0.00000000
 C      1   0   0     1.357759769340     0.00000000     0.00000000
 N      2   1   0     1.354780771354   104.45467279     0.00000000
 C      3   2   1     1.372081329826   111.31629117     0.00000000
 C      4   3   2     1.363239191996   106.52095467     0.00000000
 C      1   2   3     1.438023259780   123.64291509   180.10631280
 C      3   2   1     1.434918282470   124.34774916   180.00503491
 H      6   1   2     1.090393505795   109.94081984    61.41489275
 H      6   1   2     1.090049716698   109.81253917   302.04816791
 H      6   1   2     1.088128601699   109.47773580   181.72516333
 H      7   3   2     1.091555499794   110.49215925   240.13247185
 H      7   3   2     1.091563316960   110.50385306   119.76144197
 H      7   3   2     1.087300824566   107.68171223   359.94418927
 Cl     4   3   2     1.708453247692   123.55091994   180.02420596
 Cl     5   4   3     1.709354234299   129.04774626   179.99644498

---------------------------
INTERNAL COORDINATES (A.U.)
---------------------------
 N      0   0   0     0.000000000000     0.00000000     0.00000000
 C      1   0   0     2.565794119709     0.00000000     0.00000000
 N      2   1   0     2.560164629361   104.45467279     0.00000000
 C      3   2   1     2.592857946838   111.31629117     0.00000000
 C      4   3   2     2.576148727901   106.52095467     0.00000000
 C      1   2   3     2.717470135193   123.64291509   180.10631280
 C      3   2   1     2.711602578426   124.34774916   180.00503491
 H      6   1   2     2.060545104159   109.94081984    61.41489275
 H      6   1   2     2.059895436918   109.81253917   302.04816791
 H      6   1   2     2.056265055697   109.47773580   181.72516333
 H      7   3   2     2.062740954586   110.49215925   240.13247185
 H      7   3   2     2.062755726889   110.50385306   119.76144197
 H      7   3   2     2.054700783616   107.68171223   359.94418927
 Cl     4   3   2     3.228508750746   123.55091994   180.02420596
 Cl     5   4   3     3.230211368684   129.04774626   179.99644498

---------------------
BASIS SET INFORMATION
---------------------
There are 4 groups of distinct atoms

 Group   1 Type N   : 7s4p1d contracted to 3s2p1d pattern {511/31/1}
 Group   2 Type C   : 7s4p1d contracted to 3s2p1d pattern {511/31/1}
 Group   3 Type H   : 4s1p contracted to 2s1p pattern {31/1}
 Group   4 Type Cl  : 10s7p1d contracted to 4s3p1d pattern {5311/511/1}

Atom   0N    basis set group =>   1
Atom   1C    basis set group =>   2
Atom   2N    basis set group =>   1
Atom   3C    basis set group =>   2
Atom   4C    basis set group =>   2
Atom   5C    basis set group =>   2
Atom   6C    basis set group =>   2
Atom   7H    basis set group =>   3
Atom   8H    basis set group =>   3
Atom   9H    basis set group =>   3
Atom  10H    basis set group =>   3
Atom  11H    basis set group =>   3
Atom  12H    basis set group =>   3
Atom  13Cl   basis set group =>   4
Atom  14Cl   basis set group =>   4
---------------------------------
AUXILIARY/J BASIS SET INFORMATION
---------------------------------
There are 4 groups of distinct atoms

 Group   1 Type N   : 12s5p4d2f1g contracted to 6s4p3d1f1g pattern {711111/2111/211/2/1}
 Group   2 Type C   : 12s5p4d2f1g contracted to 6s4p3d1f1g pattern {711111/2111/211/2/1}
 Group   3 Type H   : 5s2p1d contracted to 3s1p1d pattern {311/2/1}
 Group   4 Type Cl  : 14s5p5d2f1g contracted to 8s4p3d1f1g pattern {71111111/2111/311/2/1}

Atom   0N    basis set group =>   1
Atom   1C    basis set group =>   2
Atom   2N    basis set group =>   1
Atom   3C    basis set group =>   2
Atom   4C    basis set group =>   2
Atom   5C    basis set group =>   2
Atom   6C    basis set group =>   2
Atom   7H    basis set group =>   3
Atom   8H    basis set group =>   3
Atom   9H    basis set group =>   3
Atom  10H    basis set group =>   3
Atom  11H    basis set group =>   3
Atom  12H    basis set group =>   3
Atom  13Cl   basis set group =>   4
Atom  14Cl   basis set group =>   4
------------------------------------------------------------------------------
                           ORCA GTO INTEGRAL CALCULATION
                           -- RI-GTO INTEGRALS CHOSEN --
------------------------------------------------------------------------------
------------------------------------------------------------------------------
                   ___                                                        
                  /   \      - P O W E R E D   B Y -                         
                 /     \                                                     
                 |  |  |   _    _      __       _____    __    __             
                 |  |  |  | |  | |    /  \     |  _  \  |  |  /  |          
                  \  \/   | |  | |   /    \    | | | |  |  | /  /          
                 / \  \   | |__| |  /  /\  \   | |_| |  |  |/  /          
                |  |  |   |  __  | /  /__\  \  |    /   |      \           
                |  |  |   | |  | | |   __   |  |    \   |  |\   \          
                \     /   | |  | | |  |  |  |  | |\  \  |  | \   \       
                 \___/    |_|  |_| |__|  |__|  |_| \__\ |__|  \__/        
                                                                              
                      - O R C A' S   B I G   F R I E N D -                    
                                      &                                       
                       - I N T E G R A L  F E E D E R -                       
                                                                              
 v1 FN, 2020, v2 2021                                                         
------------------------------------------------------------------------------


Reading SHARK input file 3_deprot_aq_2.SHARKINP.tmp ... ok
----------------------
SHARK INTEGRAL PACKAGE
----------------------

Number of atoms                             ...     15
Number of basis functions                   ...    164
Number of shells                            ...     76
Maximum angular momentum                    ...      2
Integral batch strategy                     ... SHARK/LIBINT Hybrid
RI-J (if used) integral strategy            ... SPLIT-RIJ (Revised 2003 algorithm where possible)
Printlevel                                  ...      1
Contraction scheme used                     ... SEGMENTED contraction
Coulomb Range Separation                    ... NOT USED
Exchange Range Separation                   ... Long Range
   Mu parameter                             ...  0.300000
   Scaling (regular/separated)              ...  0.157706  0.842294
Finite Nucleus Model                        ... NOT USED
Auxiliary Coulomb fitting basis             ... AVAILABLE
   # of basis functions in Aux-J            ...    511
   # of shells in Aux-J                     ...    169
   Maximum angular momentum in Aux-J        ...      4
Auxiliary J/K fitting basis                 ... NOT available
Auxiliary Correlation fitting basis         ... NOT available
Auxiliary 'external' fitting basis          ... NOT available
Integral threshold                          ...     2.500000e-11
Primitive cut-off                           ...     2.500000e-12
Primitive pair pre-selection threshold      ...     2.500000e-12

Calculating pre-screening integrals         ... done (  0.0 sec) Dimension = 76
Organizing shell pair data                  ... done (  0.0 sec)
Shell pair information
Total number of shell pairs                 ...      2926
Shell pairs after pre-screening             ...      2640
Total number of primitive shell pairs       ...     11480
Primitive shell pairs kept                  ...      7315
          la=0 lb=0:    779 shell pairs
          la=1 lb=0:    955 shell pairs
          la=1 lb=1:    315 shell pairs
          la=2 lb=0:    335 shell pairs
          la=2 lb=1:    214 shell pairs
          la=2 lb=2:     42 shell pairs

Calculating one electron integrals          ... done (  0.0 sec)
Calculating RI/J V-Matrix + Cholesky decomp.... done (  0.0 sec)
Calculating Nuclear repulsion               ... done (  0.0 sec) ENN=    606.931936686172 Eh

SHARK setup successfully completed in   0.2 seconds

Maximum memory used throughout the entire GTOINT-calculation: 23.8 MB
-------------------------------------------------------------------------------
                                 ORCA SCF
-------------------------------------------------------------------------------

------------
SCF SETTINGS
------------
Hamiltonian:
 Density Functional     Method          .... DFT(GTOs)
 Exchange Functional    Exchange        .... WB97X
 Correlation Functional Correlation     .... WB97X
 Gradients option       PostSCFGGA      .... off
 Hybrid DFT is turned on
   Fraction HF Exchange ScalHFX         ....  0.157706
   Scaling of DF-GGA-X  ScalDFX         ....  0.000000
   Scaling of DF-GGA-C  ScalDFC         ....  1.000000
   Scaling of DF-LDA-C  ScalLDAC        ....  1.000000
   Perturbative correction              ....  0.000000
   Density functional embedding theory  .... OFF
 Long-range corrected/Screened/Range-Separated Hybrid DFT is turned on
   Amount of maximum screened exact exchange              ....  0.842294
   Range separation parameter mu (erf(mu*r12)/r12)        ....  0.300000
 RI-approximation to the Coulomb term is turned on
   Number of AuxJ basis functions       .... 511
   RIJ-COSX (HFX calculated with COS-X)).... on


General Settings:
 Integral files         IntName         .... 3_deprot_aq_2
 Hartree-Fock type      HFTyp           .... RHF
 Total Charge           Charge          ....    0
 Multiplicity           Mult            ....    1
 Number of Electrons    NEL             ....   84
 Basis Dimension        Dim             ....  164
 Nuclear Repulsion      ENuc            ....    606.9319366862 Eh

Convergence Acceleration:
 DIIS                   CNVDIIS         .... on
   Start iteration      DIISMaxIt       ....     0
   Startup error        DIISStart       ....  0.200000
   # of expansion vecs  DIISMaxEq       ....     5
   Bias factor          DIISBfac        ....   1.050
   Max. coefficient     DIISMaxC        ....  10.000
 Trust-Rad. Augm. Hess. CNVTRAH         .... auto
   Auto Start mean grad. ratio tolernc. ....  1.125000
   Auto Start start iteration           ....    20
   Auto Start num. interpolation iter.  ....    10
   Max. Number of Micro iterations      ....    16
   Max. Number of Macro iterations      .... Maxiter - #DIIS iter
   Number of Davidson start vectors     ....     2
   Converg. threshold I  (grad. norm)   ....   1.000e-05
   Converg. threshold II (energy diff.) ....   1.000e-08
   Grad. Scal. Fac. for Micro threshold ....   0.100
   Minimum threshold for Micro iter.    ....   0.010
   NR start threshold (gradient norm)   ....   0.001
   Initial trust radius                 ....   0.400
   Minimum AH scaling param. (alpha)    ....   1.000
   Maximum AH scaling param. (alpha)    .... 1000.000
   Orbital update algorithm             .... Taylor
   White noise on init. David. guess    .... on
   Maximum white noise                  ....   0.010
   Quad. conv. algorithm                .... NR
 SOSCF                  CNVSOSCF        .... on
   Start iteration      SOSCFMaxIt      ....   150
   Startup grad/error   SOSCFStart      ....  0.001000
 Level Shifting         CNVShift        .... on
   Level shift para.    LevelShift      ....    0.2500
   Turn off err/grad.   ShiftErr        ....    0.0000
 Zerner damping         CNVZerner       .... off
 Static damping         CNVDamp         .... on
   Fraction old density DampFac         ....    0.8500
   Max. Damping (<1)    DampMax         ....    0.9800
   Min. Damping (>=0)   DampMin         ....    0.0000
   Turn off err/grad.   DampErr         ....    0.0300
 Fernandez-Rico         CNVRico         .... off

SCF Procedure:
 Maximum # iterations   MaxIter         ....   125
 SCF integral mode      SCFMode         .... Direct
   Integral package                     .... SHARK and LIBINT hybrid scheme
 Reset frequency        DirectResetFreq ....    20
 Integral Threshold     Thresh          ....  2.500e-11 Eh
 Primitive CutOff       TCut            ....  2.500e-12 Eh

Convergence Tolerance:
 Convergence Check Mode ConvCheckMode   .... Total+1el-Energy
 Convergence forced     ConvForced      .... 0
 Energy Change          TolE            ....  1.000e-08 Eh
 1-El. energy change                    ....  1.000e-05 Eh
 Orbital Gradient       TolG            ....  1.000e-05
 Orbital Rotation angle TolX            ....  1.000e-05
 DIIS Error             TolErr          ....  5.000e-07


Diagonalization of the overlap matrix:
Smallest eigenvalue                        ... 8.927e-04
Time for diagonalization                   ...    0.004 sec
Threshold for overlap eigenvalues          ... 1.000e-08
Number of eigenvalues below threshold      ... 0
Time for construction of square roots      ...    0.002 sec
Total time needed                          ...    0.006 sec

Time for model grid setup =    0.160 sec

------------------------------
INITIAL GUESS: MODEL POTENTIAL
------------------------------
Loading Hartree-Fock densities                     ... done
Calculating cut-offs                               ... done
Initializing the effective Hamiltonian             ... done
Setting up the integral package (SHARK)            ... done
Starting the Coulomb interaction                   ... done (   0.1 sec)
Reading the grid                                   ... done
Mapping shells                                     ... done
Starting the XC term evaluation                    ... done (   0.2 sec)
  promolecular density results
     # of electrons  =     83.994428686
     EX              =    -95.268038616
     EC              =     -3.026034768
     EX+EC           =    -98.294073384
Transforming the Hamiltonian                       ... done (   0.0 sec)
Diagonalizing the Hamiltonian                      ... done (   0.0 sec)
Back transforming the eigenvectors                 ... done (   0.0 sec)
Now organizing SCF variables                       ... done
                      ------------------
                      INITIAL GUESS DONE (   0.5 sec)
                      ------------------
-------------------
DFT GRID GENERATION
-------------------

General Integration Accuracy     IntAcc      ... 4.388
Radial Grid Type                 RadialGrid  ... OptM3 with GC (2021)
Angular Grid (max. ang.)         AngularGrid ... 4 (Lebedev-302)
Angular grid pruning method      GridPruning ... 4 (adaptive)
Weight generation scheme         WeightScheme... Becke
Basis function cutoff            BFCut       ... 1.0000e-11
Integration weight cutoff        WCut        ... 1.0000e-14
Angular grids for H and He will be reduced by one unit
Partially contracted basis set               ... off
Rotationally invariant grid construction     ... off

Total number of grid points                  ...    76109
Total number of batches                      ...     1197
Average number of points per batch           ...       63
Average number of grid points per atom       ...     5074
Time for grid setup =    0.648 sec

--------------------
COSX GRID GENERATION
--------------------

GRIDX 1
-------
General Integration Accuracy     IntAcc      ... 3.816
Radial Grid Type                 RadialGrid  ... OptM3 with GC (2021)
Angular Grid (max. ang.)         AngularGrid ... 1 (Lebedev-50)
Angular grid pruning method      GridPruning ... 4 (adaptive)
Weight generation scheme         WeightScheme... Becke
Basis function cutoff            BFCut       ... 1.0000e-11
Integration weight cutoff        WCut        ... 1.0000e-14
Angular grids for H and He will be reduced by one unit
Partially contracted basis set               ... on
Rotationally invariant grid construction     ... off

Total number of grid points                  ...     9534
Total number of batches                      ...      158
Average number of points per batch           ...       60
Average number of grid points per atom       ...      636
UseSFitting                                  ... on

GRIDX 2
-------
General Integration Accuracy     IntAcc      ... 4.020
Radial Grid Type                 RadialGrid  ... OptM3 with GC (2021)
Angular Grid (max. ang.)         AngularGrid ... 2 (Lebedev-110)
Angular grid pruning method      GridPruning ... 4 (adaptive)
Weight generation scheme         WeightScheme... Becke
Basis function cutoff            BFCut       ... 1.0000e-11
Integration weight cutoff        WCut        ... 1.0000e-14
Angular grids for H and He will be reduced by one unit
Partially contracted basis set               ... on
Rotationally invariant grid construction     ... off

Total number of grid points                  ...    21098
Total number of batches                      ...      335
Average number of points per batch           ...       62
Average number of grid points per atom       ...     1407
UseSFitting                                  ... on

GRIDX 3
-------
General Integration Accuracy     IntAcc      ... 4.338
Radial Grid Type                 RadialGrid  ... OptM3 with GC (2021)
Angular Grid (max. ang.)         AngularGrid ... 3 (Lebedev-194)
Angular grid pruning method      GridPruning ... 4 (adaptive)
Weight generation scheme         WeightScheme... Becke
Basis function cutoff            BFCut       ... 1.0000e-11
Integration weight cutoff        WCut        ... 1.0000e-14
Angular grids for H and He will be reduced by one unit
Partially contracted basis set               ... on
Rotationally invariant grid construction     ... off

Total number of grid points                  ...    47594
Total number of batches                      ...      752
Average number of points per batch           ...       63
Average number of grid points per atom       ...     3173
UseSFitting                                  ... on

Time for X-Grid setup             =    0.764 sec


--------------------
CPCM SOLVATION MODEL
--------------------
CPCM parameters:
  Epsilon                                         ...      80.4000
  Refrac                                          ...       1.3300
  Rsolv                                           ...       1.3000
  Surface type                                    ... GAUSSIAN VDW
  Epsilon function type                           ...         CPCM
Radii:
 Radius for N  used is    3.5149 Bohr (=   1.8600 Ang.)
 Radius for C  used is    3.8550 Bohr (=   2.0400 Ang.)
 Radius for H  used is    2.4944 Bohr (=   1.3200 Ang.)
 Radius for Cl used is    3.9684 Bohr (=   2.1000 Ang.)
Calculating surface                               ...        done! (  0.0s)
GEPOL surface points                              ...          860
GEPOL Volume                                      ...    1185.3436
GEPOL Surface-area                                ...     662.9502
Calculating surface distance matrix               ...        done! (  0.0s)
Performing Cholesky decomposition & store         ...        done! (  0.0s)
Overall time for CPCM initialization              ...                 0.0s
--------------
SCF ITERATIONS
--------------
ITER       Energy         Delta-E        Max-DP      RMS-DP      [F,P]     Damp
               ***  Starting incremental Fock matrix formation  ***
  0  -1223.2960107129   0.000000000000 0.04131151  0.00074963  0.1195962 0.8500
  1  -1223.3189588958  -0.022948182806 0.04314359  0.00072702  0.0971569 0.8500
                               ***Turning on DIIS***
  2  -1223.3365941595  -0.017635263791 0.03678442  0.00060118  0.0753664 0.8500
  3  -1223.3498045851  -0.013210425537 0.02748343  0.00043445  0.0578057 0.8500
  4  -1223.3600764515  -0.010271866421 0.02134107  0.00033666  0.0462108 0.8500
  5  -1223.3682211140  -0.008144662514 0.01748907  0.00027856  0.0382274 0.8500
  6  -1223.3748745903  -0.006653476307 0.01472582  0.00023662  0.0321567 0.8500
  7  -1223.3804033657  -0.005528775345 0.08450217  0.00136591  0.0272461 0.0000
  8  -1223.4103070487  -0.029903683015 0.00140796  0.00006272  0.0012051 0.0000
                      *** Initiating the SOSCF procedure ***
                           *** Shutting down DIIS ***
                      *** Re-Reading the Fockian *** 
                      *** Removing any level shift *** 
ITER      Energy       Delta-E        Grad      Rot      Max-DP    RMS-DP
  9  -1223.41033467  -0.0000276188  0.000895  0.000895  0.000770  0.000037
               *** Restarting incremental Fock matrix formation ***
 10  -1223.41039880  -0.0000641349  0.000583  0.001350  0.000826  0.000028
 11  -1223.41040215  -0.0000033508  0.000183  0.001062  0.000721  0.000025
 12  -1223.41040311  -0.0000009534  0.000072  0.000150  0.000180  0.000006
 13  -1223.41040322  -0.0000001174  0.000009  0.000024  0.000075  0.000001
 14  -1223.41040322   0.0000000004  0.000005  0.000016  0.000057  0.000001
                  ***Gradient check signals convergence***
              ***Rediagonalizing the Fockian in SOSCF/NRSCF***

               *****************************************************
               *                     SUCCESS                       *
               *           SCF CONVERGED AFTER  15 CYCLES          *
               *****************************************************

Old exchange energy                            =    -26.401108095 Eh
New exchange energy                            =    -26.401111102 Eh
Exchange energy change after final integration =     -0.000003007 Eh
Total energy after final integration           =  -1223.410406244 Eh
Final COS-X integration done in                =    16.527 sec

----------------
TOTAL SCF ENERGY
----------------

Total Energy       :        -1223.41040624 Eh          -33290.68962 eV

Components:
Nuclear Repulsion  :          606.93193669 Eh           16515.45763 eV
Electronic Energy  :        -1830.34234293 Eh          -49806.14725 eV
One Electron Energy:        -2885.51694237 Eh          -78518.90783 eV
Two Electron Energy:         1055.17459944 Eh           28712.76058 eV
Max COSX asymmetry :            0.00000301 Eh               0.00008 eV
CPCM Dielectric    :           -0.01095043 Eh              -0.29798 eV

Virial components:
Potential Energy   :        -2441.76801963 Eh          -66443.88576 eV
Kinetic Energy     :         1218.35761339 Eh           33153.19614 eV
Virial Ratio       :            2.00414722


DFT components:
N(Alpha)           :       41.999975054865 electrons
N(Beta)            :       41.999975054865 electrons
N(Total)           :       83.999950109730 electrons
E(XC)              :      -73.228507104193 Eh       
DFET-embed. en.    :        0.000000000000 Eh       
CPCM Solvation Model Properties:
Surface-charge          :           -0.01453426
Charge-correction       :           -0.00018483 Eh              -0.00503 eV
Free-energy (cav+disp)  :  This term is not implemented in the current solvation scheme

---------------
SCF CONVERGENCE
---------------

  Last Energy change         ...   -1.3770e-08  Tolerance :   1.0000e-08
  Last MAX-Density change    ...    2.2204e-15  Tolerance :   1.0000e-07
  Last RMS-Density change    ...    5.6173e-17  Tolerance :   5.0000e-09
  Last Orbital Gradient      ...    1.4524e-06  Tolerance :   1.0000e-05
  Last Orbital Rotation      ...    4.7376e-06  Tolerance :   1.0000e-05

             **** THE GBW FILE WAS UPDATED (3_deprot_aq_2.gbw) ****
             **** DENSITY 3_deprot_aq_2.scfp WAS UPDATED ****
             **** ENERGY FILE WAS UPDATED (3_deprot_aq_2.en.tmp) ****
             **** THE GBW FILE WAS UPDATED (3_deprot_aq_2.gbw) ****
             **** DENSITY 3_deprot_aq_2.scfp WAS UPDATED ****
----------------
ORBITAL ENERGIES
----------------

  NO   OCC          E(Eh)            E(eV) 
   0   2.0000    -101.502787     -2762.0313 
   1   2.0000    -101.501963     -2762.0088 
   2   2.0000     -14.472486      -393.8164 
   3   2.0000     -14.471676      -393.7943 
   4   2.0000     -10.362809      -281.9864 
   5   2.0000     -10.360486      -281.9232 
   6   2.0000     -10.305081      -280.4155 
   7   2.0000     -10.304734      -280.4061 
   8   2.0000     -10.291777      -280.0535 
   9   2.0000      -9.575218      -260.5549 
  10   2.0000      -9.574379      -260.5321 
  11   2.0000      -7.344294      -199.8484 
  12   2.0000      -7.343490      -199.8265 
  13   2.0000      -7.333031      -199.5419 
  14   2.0000      -7.332916      -199.5388 
  15   2.0000      -7.332132      -199.5175 
  16   2.0000      -7.332122      -199.5172 
  17   2.0000      -1.182557       -32.1790 
  18   2.0000      -1.073544       -29.2126 
  19   2.0000      -1.024358       -27.8742 
  20   2.0000      -0.991189       -26.9716 
  21   2.0000      -0.908571       -24.7235 
  22   2.0000      -0.836445       -22.7608 
  23   2.0000      -0.812941       -22.1213 
  24   2.0000      -0.716124       -19.4867 
  25   2.0000      -0.714055       -19.4304 
  26   2.0000      -0.640628       -17.4324 
  27   2.0000      -0.619129       -16.8474 
  28   2.0000      -0.581636       -15.8271 
  29   2.0000      -0.567832       -15.4515 
  30   2.0000      -0.563941       -15.3456 
  31   2.0000      -0.563162       -15.3244 
  32   2.0000      -0.517073       -14.0703 
  33   2.0000      -0.513351       -13.9690 
  34   2.0000      -0.499168       -13.5830 
  35   2.0000      -0.469771       -12.7831 
  36   2.0000      -0.457640       -12.4530 
  37   2.0000      -0.447902       -12.1880 
  38   2.0000      -0.442658       -12.0453 
  39   2.0000      -0.382822       -10.4171 
  40   2.0000      -0.334218        -9.0945 
  41   2.0000      -0.319512        -8.6944 
  42   0.0000       0.106527         2.8987 
  43   0.0000       0.112038         3.0487 
  44   0.0000       0.125509         3.4153 
  45   0.0000       0.168088         4.5739 
  46   0.0000       0.178707         4.8629 
  47   0.0000       0.181851         4.9484 
  48   0.0000       0.217065         5.9066 
  49   0.0000       0.229178         6.2363 
  50   0.0000       0.241789         6.5794 
  51   0.0000       0.250519         6.8170 
  52   0.0000       0.251688         6.8488 
  53   0.0000       0.275711         7.5025 
  54   0.0000       0.309413         8.4196 
  55   0.0000       0.332461         9.0467 
  56   0.0000       0.353696         9.6246 
  57   0.0000       0.410235        11.1631 
  58   0.0000       0.435880        11.8609 
  59   0.0000       0.452672        12.3178 
  60   0.0000       0.471455        12.8289 
  61   0.0000       0.495781        13.4909 
  62   0.0000       0.530539        14.4367 
  63   0.0000       0.539598        14.6832 
  64   0.0000       0.551983        15.0202 
  65   0.0000       0.589701        16.0466 
  66   0.0000       0.599327        16.3085 
  67   0.0000       0.622608        16.9420 
  68   0.0000       0.628392        17.0994 
  69   0.0000       0.643681        17.5155 
  70   0.0000       0.673716        18.3327 
  71   0.0000       0.689809        18.7707 
  72   0.0000       0.693730        18.8774 
  73   0.0000       0.713960        19.4278 
  74   0.0000       0.740630        20.1536 
  75   0.0000       0.756335        20.5809 
  76   0.0000       0.764981        20.8162 
  77   0.0000       0.765427        20.8283 
  78   0.0000       0.772569        21.0227 
  79   0.0000       0.776922        21.1411 
  80   0.0000       0.784461        21.3463 
  81   0.0000       0.789490        21.4831 
  82   0.0000       0.811183        22.0734 
  83   0.0000       0.820128        22.3168 
  84   0.0000       0.824767        22.4431 
  85   0.0000       0.863307        23.4918 
  86   0.0000       0.865718        23.5574 
  87   0.0000       0.867027        23.5930 
  88   0.0000       0.873922        23.7806 
  89   0.0000       0.883410        24.0388 
  90   0.0000       0.888882        24.1877 
  91   0.0000       0.937587        25.5130 
  92   0.0000       0.947977        25.7958 
  93   0.0000       0.951221        25.8840 
  94   0.0000       0.959415        26.1070 
  95   0.0000       0.986065        26.8322 
  96   0.0000       1.002437        27.2777 
  97   0.0000       1.043566        28.3969 
  98   0.0000       1.054547        28.6957 
  99   0.0000       1.087070        29.5807 
 100   0.0000       1.111102        30.2346 
 101   0.0000       1.151270        31.3276 
 102   0.0000       1.170240        31.8439 
 103   0.0000       1.217405        33.1273 
 104   0.0000       1.266579        34.4654 
 105   0.0000       1.287617        35.0378 
 106   0.0000       1.297633        35.3104 
 107   0.0000       1.341900        36.5149 
 108   0.0000       1.359238        36.9868 
 109   0.0000       1.431139        38.9433 
 110   0.0000       1.478839        40.2413 
 111   0.0000       1.508723        41.0544 
 112   0.0000       1.555883        42.3377 
 113   0.0000       1.598558        43.4990 
 114   0.0000       1.625633        44.2357 
 115   0.0000       1.633299        44.4443 
 116   0.0000       1.635702        44.5097 
 117   0.0000       1.644260        44.7426 
 118   0.0000       1.670289        45.4509 
 119   0.0000       1.731814        47.1251 
 120   0.0000       1.760681        47.9106 
 121   0.0000       1.765231        48.0344 
 122   0.0000       1.890076        51.4316 
 123   0.0000       1.892993        51.5109 
 124   0.0000       1.897267        51.6273 
 125   0.0000       1.900190        51.7068 
 126   0.0000       1.930901        52.5425 
 127   0.0000       1.941267        52.8246 
 128   0.0000       1.964411        53.4543 
 129   0.0000       2.028452        55.1970 
 130   0.0000       2.059393        56.0389 
 131   0.0000       2.110429        57.4277 
 132   0.0000       2.123342        57.7791 
 133   0.0000       2.142588        58.3028 
 134   0.0000       2.152289        58.5668 
 135   0.0000       2.183284        59.4102 
 136   0.0000       2.214463        60.2586 
 137   0.0000       2.243096        61.0377 
 138   0.0000       2.270577        61.7856 
 139   0.0000       2.344491        63.7968 
 140   0.0000       2.360859        64.2422 
 141   0.0000       2.378351        64.7182 
 142   0.0000       2.413404        65.6721 
 143   0.0000       2.439202        66.3741 
 144   0.0000       2.495355        67.9021 
 145   0.0000       2.532904        68.9238 
 146   0.0000       2.586434        70.3804 
 147   0.0000       2.601391        70.7875 
 148   0.0000       2.770608        75.3921 
 149   0.0000       2.781947        75.7006 
 150   0.0000       2.784499        75.7701 
 151   0.0000       2.808216        76.4155 
 152   0.0000       2.836152        77.1756 
 153   0.0000       2.882919        78.4482 
 154   0.0000       2.908120        79.1340 
 155   0.0000       2.973067        80.9013 
 156   0.0000       3.049265        82.9747 
 157   0.0000       3.061481        83.3071 
 158   0.0000       3.065613        83.4196 
 159   0.0000       3.091691        84.1292 
 160   0.0000       3.241229        88.1983 
 161   0.0000       3.278367        89.2089 
 162   0.0000       3.396806        92.4318 
 163   0.0000       3.434234        93.4503 

                    ********************************
                    * MULLIKEN POPULATION ANALYSIS *
                    ********************************

-----------------------
MULLIKEN ATOMIC CHARGES
-----------------------
   0 N :   -0.224076
   1 C :   -0.185438
   2 N :   -0.219058
   3 C :    0.082938
   4 C :    0.086679
   5 C :    0.107087
   6 C :    0.102780
   7 H :    0.065931
   8 H :    0.065390
   9 H :    0.054093
  10 H :    0.064352
  11 H :    0.064384
  12 H :    0.060121
  13 Cl:   -0.063629
  14 Cl:   -0.061553
Sum of atomic charges:   -0.0000000

--------------------------------
MULLIKEN REDUCED ORBITAL CHARGES
--------------------------------
  0 N s       :     3.394437  s :     3.394437
      pz      :     1.522042  p :     3.795984
      px      :     1.177860
      py      :     1.096083
      dz2     :     0.002317  d :     0.033654
      dxz     :     0.004580
      dyz     :     0.006044
      dx2y2   :     0.011975
      dxy     :     0.008738
  1 C s       :     3.617836  s :     3.617836
      pz      :     0.700443  p :     2.501217
      px      :     0.652970
      py      :     1.147805
      dz2     :     0.007873  d :     0.066385
      dxz     :     0.011936
      dyz     :     0.009859
      dx2y2   :     0.008092
      dxy     :     0.028626
  2 N s       :     3.393818  s :     3.393818
      pz      :     1.514556  p :     3.791119
      px      :     1.174900
      py      :     1.101664
      dz2     :     0.002344  d :     0.034121
      dxz     :     0.004920
      dyz     :     0.005909
      dx2y2   :     0.012217
      dxy     :     0.008732
  3 C s       :     3.022955  s :     3.022955
      pz      :     1.142911  p :     2.824663
      px      :     0.913312
      py      :     0.768441
      dz2     :     0.005356  d :     0.069443
      dxz     :     0.011329
      dyz     :     0.011885
      dx2y2   :     0.021905
      dxy     :     0.018968
  4 C s       :     3.023250  s :     3.023250
      pz      :     1.136561  p :     2.820306
      px      :     0.921842
      py      :     0.761903
      dz2     :     0.005354  d :     0.069764
      dxz     :     0.011490
      dyz     :     0.012137
      dx2y2   :     0.021853
      dxy     :     0.018930
  5 C s       :     2.982301  s :     2.982301
      pz      :     1.063604  p :     2.871907
      px      :     0.785082
      py      :     1.023221
      dz2     :     0.007276  d :     0.038704
      dxz     :     0.006238
      dyz     :     0.007300
      dx2y2   :     0.008476
      dxy     :     0.009414
  6 C s       :     2.987334  s :     2.987334
      pz      :     1.049834  p :     2.870940
      px      :     0.782667
      py      :     1.038440
      dz2     :     0.007142  d :     0.038946
      dxz     :     0.010852
      dyz     :     0.003060
      dx2y2   :     0.011411
      dxy     :     0.006481
  7 H s       :     0.910492  s :     0.910492
      pz      :     0.012629  p :     0.023578
      px      :     0.003019
      py      :     0.007929
  8 H s       :     0.911015  s :     0.911015
      pz      :     0.012108  p :     0.023596
      px      :     0.002944
      py      :     0.008543
  9 H s       :     0.921020  s :     0.921020
      pz      :     0.005107  p :     0.024886
      px      :     0.007786
      py      :     0.011994
 10 H s       :     0.911961  s :     0.911961
      pz      :     0.012377  p :     0.023688
      px      :     0.005462
      py      :     0.005849
 11 H s       :     0.911930  s :     0.911930
      pz      :     0.012384  p :     0.023686
      px      :     0.005463
      py      :     0.005839
 12 H s       :     0.916130  s :     0.916130
      pz      :     0.004875  p :     0.023750
      px      :     0.002581
      py      :     0.016294
 13 Cls       :     5.940250  s :     5.940250
      pz      :     3.933614  p :    11.081858
      px      :     3.631781
      py      :     3.516463
      dz2     :     0.006219  d :     0.041522
      dxz     :     0.004787
      dyz     :     0.006296
      dx2y2   :     0.005579
      dxy     :     0.018640
 14 Cls       :     5.939340  s :     5.939340
      pz      :     3.934626  p :    11.080573
      px      :     3.643288
      py      :     3.502659
      dz2     :     0.006250  d :     0.041639
      dxz     :     0.004556
      dyz     :     0.006398
      dx2y2   :     0.005785
      dxy     :     0.018651


                     *******************************
                     * LOEWDIN POPULATION ANALYSIS *
                     *******************************

----------------------
LOEWDIN ATOMIC CHARGES
----------------------
   0 N :    0.021657
   1 C :   -0.290636
   2 N :    0.027474
   3 C :   -0.178799
   4 C :   -0.173069
   5 C :    0.033554
   6 C :    0.030531
   7 H :    0.039086
   8 H :    0.039287
   9 H :    0.026747
  10 H :    0.035552
  11 H :    0.035559
  12 H :    0.040068
  13 Cl:    0.153925
  14 Cl:    0.159065

-------------------------------
LOEWDIN REDUCED ORBITAL CHARGES
-------------------------------
  0 N s       :     3.058793  s :     3.058793
      pz      :     1.449065  p :     3.841032
      px      :     1.203918
      py      :     1.188048
      dz2     :     0.004423  d :     0.078518
      dxz     :     0.007576
      dyz     :     0.011782
      dx2y2   :     0.030512
      dxy     :     0.024224
  1 C s       :     3.203627  s :     3.203627
      pz      :     0.753728  p :     2.944226
      px      :     0.814263
      py      :     1.376235
      dz2     :     0.017943  d :     0.142783
      dxz     :     0.026184
      dyz     :     0.013700
      dx2y2   :     0.018785
      dxy     :     0.066171
  2 N s       :     3.057739  s :     3.057739
      pz      :     1.441256  p :     3.835361
      px      :     1.203770
      py      :     1.190335
      dz2     :     0.004485  d :     0.079426
      dxz     :     0.007943
      dyz     :     0.011780
      dx2y2   :     0.030865
      dxy     :     0.024353
  3 C s       :     2.885761  s :     2.885761
      pz      :     1.149516  p :     3.132932
      px      :     1.045919
      py      :     0.937498
      dz2     :     0.011308  d :     0.160106
      dxz     :     0.022750
      dyz     :     0.023170
      dx2y2   :     0.059619
      dxy     :     0.043258
  4 C s       :     2.887150  s :     2.887150
      pz      :     1.142088  p :     3.125061
      px      :     1.046019
      py      :     0.936953
      dz2     :     0.011304  d :     0.160858
      dxz     :     0.023050
      dyz     :     0.023807
      dx2y2   :     0.059510
      dxy     :     0.043186
  5 C s       :     2.822775  s :     2.822775
      pz      :     1.094949  p :     3.046823
      px      :     0.883614
      py      :     1.068260
      dz2     :     0.017927  d :     0.096848
      dxz     :     0.014323
      dyz     :     0.020124
      dx2y2   :     0.020132
      dxy     :     0.024342
  6 C s       :     2.823724  s :     2.823724
      pz      :     1.089035  p :     3.048064
      px      :     0.883602
      py      :     1.075427
      dz2     :     0.017849  d :     0.097681
      dxz     :     0.028552
      dyz     :     0.006842
      dx2y2   :     0.029203
      dxy     :     0.015236
  7 H s       :     0.894510  s :     0.894510
      pz      :     0.034170  p :     0.066404
      px      :     0.010367
      py      :     0.021868
  8 H s       :     0.894239  s :     0.894239
      pz      :     0.032742  p :     0.066474
      px      :     0.010146
      py      :     0.023586
  9 H s       :     0.903832  s :     0.903832
      pz      :     0.013755  p :     0.069421
      px      :     0.022415
      py      :     0.033251
 10 H s       :     0.898065  s :     0.898065
      pz      :     0.033507  p :     0.066383
      px      :     0.016857
      py      :     0.016019
 11 H s       :     0.898061  s :     0.898061
      pz      :     0.033525  p :     0.066380
      px      :     0.016863
      py      :     0.015992
 12 H s       :     0.892686  s :     0.892686
      pz      :     0.013145  p :     0.067245
      px      :     0.008777
      py      :     0.045324
 13 Cls       :     5.735500  s :     5.735500
      pz      :     3.912401  p :    11.061623
      px      :     3.630080
      py      :     3.519141
      dz2     :     0.007292  d :     0.048952
      dxz     :     0.005643
      dyz     :     0.007341
      dx2y2   :     0.006333
      dxy     :     0.022344
 14 Cls       :     5.734828  s :     5.734828
      pz      :     3.914046  p :    11.057140
      px      :     3.637483
      py      :     3.505611
      dz2     :     0.007280  d :     0.048967
      dxz     :     0.005349
      dyz     :     0.007440
      dx2y2   :     0.006589
      dxy     :     0.022309


                      *****************************
                      * MAYER POPULATION ANALYSIS *
                      *****************************

  NA   - Mulliken gross atomic population
  ZA   - Total nuclear charge
  QA   - Mulliken gross atomic charge
  VA   - Mayer's total valence
  BVA  - Mayer's bonded valence
  FA   - Mayer's free valence

  ATOM       NA         ZA         QA         VA         BVA        FA
  0 N      7.2241     7.0000    -0.2241     3.3975     3.3975     0.0000
  1 C      6.1854     6.0000    -0.1854     2.6956     2.6956    -0.0000
  2 N      7.2191     7.0000    -0.2191     3.4165     3.4165    -0.0000
  3 C      5.9171     6.0000     0.0829     3.9418     3.9418     0.0000
  4 C      5.9133     6.0000     0.0867     3.9436     3.9436    -0.0000
  5 C      5.8929     6.0000     0.1071     3.8698     3.8698    -0.0000
  6 C      5.8972     6.0000     0.1028     3.8676     3.8676    -0.0000
  7 H      0.9341     1.0000     0.0659     0.9996     0.9996    -0.0000
  8 H      0.9346     1.0000     0.0654     1.0008     1.0008    -0.0000
  9 H      0.9459     1.0000     0.0541     1.0191     1.0191    -0.0000
 10 H      0.9356     1.0000     0.0644     0.9974     0.9974    -0.0000
 11 H      0.9356     1.0000     0.0644     0.9973     0.9973    -0.0000
 12 H      0.9399     1.0000     0.0601     1.0199     1.0199     0.0000
 13 Cl    17.0636    17.0000    -0.0636     1.1810     1.1810    -0.0000
 14 Cl    17.0616    17.0000    -0.0616     1.1926     1.1926    -0.0000

  Mayer bond orders larger than 0.100000
B(  0-N ,  1-C ) :   1.2206 B(  0-N ,  4-C ) :   1.1526 B(  0-N ,  5-C ) :   0.9290 
B(  1-C ,  2-N ) :   1.2451 B(  2-N ,  3-C ) :   1.1487 B(  2-N ,  6-C ) :   0.9339 
B(  3-C ,  4-C ) :   1.5772 B(  3-C , 13-Cl) :   1.0734 B(  4-C , 14-Cl) :   1.0727 
B(  5-C ,  7-H ) :   0.9775 B(  5-C ,  8-H ) :   0.9771 B(  5-C ,  9-H ) :   0.9695 
B(  6-C , 10-H ) :   0.9767 B(  6-C , 11-H ) :   0.9767 B(  6-C , 12-H ) :   0.9693 


-------
TIMINGS
-------

Total SCF time: 0 days 0 hours 1 min 53 sec 

Total time                  ....     113.830 sec
Sum of individual times     ....     113.564 sec  ( 99.8%)

Fock matrix formation       ....     111.588 sec  ( 98.0%)
  Split-RI-J                ....       4.402 sec  (  3.9% of F)
  Chain of spheres X        ....      89.217 sec  ( 80.0% of F)
  XC integration            ....      11.664 sec  ( 10.5% of F)
    Basis function eval.    ....       4.217 sec  ( 36.2% of XC)
    Density eval.           ....       2.415 sec  ( 20.7% of XC)
    XC-Functional eval.     ....       1.986 sec  ( 17.0% of XC)
    XC-Potential eval.      ....       2.654 sec  ( 22.7% of XC)
Diagonalization             ....       0.038 sec  (  0.0%)
Density matrix formation    ....       0.006 sec  (  0.0%)
Population analysis         ....       0.006 sec  (  0.0%)
Initial guess               ....       0.324 sec  (  0.3%)
Orbital Transformation      ....       0.000 sec  (  0.0%)
Orbital Orthonormalization  ....       0.000 sec  (  0.0%)
DIIS solution               ....       0.013 sec  (  0.0%)
SOSCF solution              ....       0.016 sec  (  0.0%)
Grid generation             ....       1.572 sec  (  1.4%)

Maximum memory used throughout the entire SCF-calculation: 72.1 MB


-------------------------------------------------------------------------------
                          DFT DISPERSION CORRECTION                            
                                                                               
                                 DFTD4 V2.5                                    
-------------------------------------------------------------------------------
The WB97X functional is recognized
Active option DFTDOPT                   ...         5   

Starting D4
-------------------------   ----------------
Dispersion correction           -0.002557563
-------------------------   ----------------


-------------------------   --------------------
FINAL SINGLE POINT ENERGY     -1223.412963807151
-------------------------   --------------------

------------------------------------------------------------------------------
                         ORCA SCF GRADIENT CALCULATION
------------------------------------------------------------------------------

 ... reading COSX grid (gridx3)
Gradient of the Kohn-Sham DFT energy:
Kohn-Sham wavefunction type      ... RKS
Hartree-Fock exchange scaling    ...    0.158
Number of operators              ...    1
Number of atoms                  ...   15
Basis set dimensions             ...  164
Integral neglect threshold       ... 2.5e-11
Integral primitive cutoff        ... 2.5e-12
SHARK Integral package           ... ON

Nuc. rep. gradient       (SHARK) ... done (  0.0 sec)
HCore & Overlap gradient (SHARK) ... done (  0.2 sec)
RI-J gradient            (SHARK) ... done (  1.0 sec)
COSX-gradient                    ... done ( 18.2 sec)
Exchange-correlation gradient    ... done
Dispersion correction            ... Starting D4


------------------- 
Dispersion Gradient 
------------------- 
   1  :   -0.000011999   -0.000006941   -0.000000012
   2  :   -0.000000089   -0.000013668   -0.000000004
   3  :    0.000011922   -0.000007039   -0.000000007
   4  :    0.000007993    0.000003377   -0.000000006
   5  :   -0.000007820    0.000003615   -0.000000002
   6  :   -0.000044632   -0.000018527    0.000000026
   7  :    0.000044614   -0.000017987    0.000000007
   8  :   -0.000008186   -0.000005416    0.000000876
   9  :   -0.000008206   -0.000005516   -0.000000863
  10  :   -0.000006567   -0.000002040    0.000000006
  11  :    0.000007350   -0.000003063    0.000000248
  12  :    0.000007350   -0.000003066   -0.000000249
  13  :    0.000008304   -0.000006059    0.000000001
  14  :    0.000037058    0.000040621    0.000000003
  15  :   -0.000037091    0.000041709   -0.000000026

  |G| =    0.000109463

done

------------------
CARTESIAN GRADIENT
------------------

   1   N   :   -0.010804709   -0.001123094    0.000126542
   2   C   :    0.001065352    0.010931249    0.000062567
   3   N   :    0.011217998   -0.000063556   -0.000033795
   4   C   :    0.004156114   -0.010223181   -0.000006670
   5   C   :   -0.004580632   -0.011056126   -0.000055642
   6   C   :    0.003503734    0.004865669   -0.000239921
   7   C   :   -0.005541374    0.000199145    0.000004504
   8   H   :    0.001816519    0.002096821   -0.004983500
   9   H   :    0.001702356    0.002438515    0.004903154
  10   H   :    0.004172870   -0.003568298    0.000199010
  11   H   :   -0.002928419   -0.001325050   -0.004691736
  12   H   :   -0.002922703   -0.001323573    0.004693957
  13   H   :   -0.000437693    0.005925932   -0.000003600
  14   Cl  :    0.002584414    0.001154308    0.000001712
  15   Cl  :   -0.002963930    0.000643995   -0.000004918

Difference to translation invariance:
           :    0.0000398978   -0.0004272467   -0.0000283362

Difference to rotation invariance:
           :    0.0000210341   -0.0002079619   -0.0002998912

Norm of the cartesian gradient     ...    0.0301505633
RMS gradient                       ...    0.0044945806
MAX gradient                       ...    0.0112179977

-------
TIMINGS
-------

Total SCF gradient time            ...       23.874 sec

One electron gradient       ....       0.150 sec  (  0.6%)
RI-J Coulomb gradient       ....       1.028 sec  (  4.3%)
COSX gradient               ....      18.231 sec  ( 76.4%)
XC gradient                 ....       3.447 sec  ( 14.4%)
CPCM gradient               ....       0.341 sec  (  1.4%)
   A-Matrix (El+Nuc)        ....       0.029 sec  (  0.1%)
   Potential                ....       0.312 sec  (  1.3%)

Maximum memory used throughout the entire SCFGRAD-calculation: 58.6 MB
------------------------------------------------------------------------------
                         ORCA GEOMETRY RELAXATION STEP
------------------------------------------------------------------------------

Reading the OPT-File                    .... done
Getting information on internals        .... done
Copying old internal coords+grads       .... done
Making the new internal coordinates     .... (new redundants).... done
Validating the new internal coordinates .... (new redundants).... done
Calculating the B-matrix                .... done
Calculating the G,G- and P matrices     .... done
Transforming gradient to internals      .... done
Projecting the internal gradient        .... done
Number of atoms                         ....  15
Number of internal coordinates          ....  68
Current Energy                          .... -1223.412963807 Eh
Current gradient norm                   ....     0.030150563 Eh/bohr
Maximum allowed component of the step   ....  0.300
Current trust radius                    ....  0.300
Evaluating the initial hessian          ....  (Almloef) done
Projecting the Hessian                  .... done
Forming the augmented Hessian           .... done
Diagonalizing the augmented Hessian     .... done
Last element of RFO vector              ....  0.997883830
Lowest eigenvalues of augmented Hessian:
 -0.001860996  0.018799373  0.019243601  0.023471442  0.024491294
Length of the computed step             ....  0.065159896
The final length of the internal step   ....  0.065159896
Converting the step to cartesian space:
 Initial RMS(Int)=    0.0079017981
Transforming coordinates:
 Iter   0:  RMS(Cart)=    0.0157048624 RMS(Int)=    0.7619564514
 Iter   1:  RMS(Cart)=    0.0000362038 RMS(Int)=    0.0000209886
 Iter   2:  RMS(Cart)=    0.0000002233 RMS(Int)=    0.0000001367
 Iter   3:  RMS(Cart)=    0.0000000017 RMS(Int)=    0.0000000010
done
Storing new coordinates                 .... done

                                .--------------------.
          ----------------------|Geometry convergence|-------------------------
          Item                value                   Tolerance       Converged
          ---------------------------------------------------------------------
          RMS gradient        0.0035577880            0.0001000000      NO
          MAX gradient        0.0124983819            0.0003000000      NO
          RMS step            0.0079017981            0.0020000000      NO
          MAX step            0.0265385282            0.0040000000      NO
          ........................................................
          Max(Bonds)      0.0140      Max(Angles)    0.64
          Max(Dihed)        0.30      Max(Improp)    0.00
          ---------------------------------------------------------------------

The optimization has not yet converged - more geometry cycles are needed


    ---------------------------------------------------------------------------
                         Redundant Internal Coordinates
                            (Angstroem and degrees)

        Definition                    Value    dE/dq     Step     New-Value
    ----------------------------------------------------------------------------
     1. B(C   1,N   0)                1.3578 -0.003049  0.0027    1.3605   
     2. B(N   2,C   1)                1.3548 -0.003741  0.0032    1.3580   
     3. B(C   3,N   2)                1.3721 -0.008570  0.0075    1.3796   
     4. B(C   4,C   3)                1.3632  0.006690 -0.0053    1.3579   
     5. B(C   4,N   0)                1.3728 -0.010254  0.0090    1.3818   
     6. B(C   5,N   0)                1.4380 -0.012498  0.0140    1.4521   
     7. B(C   6,N   2)                1.4349 -0.012373  0.0137    1.4487   
     8. B(H   7,C   5)                1.0904 -0.005570  0.0082    1.0985   
     9. B(H   8,C   5)                1.0900 -0.005619  0.0082    1.0983   
    10. B(H   9,C   5)                1.0881 -0.005369  0.0078    1.0959   
    11. B(H  10,C   6)                1.0916 -0.005643  0.0083    1.0999   
    12. B(H  11,C   6)                1.0916 -0.005638  0.0083    1.0999   
    13. B(H  12,C   6)                1.0873 -0.005959  0.0086    1.0959   
    14. B(Cl 13,C   3)                1.7085  0.002563 -0.0031    1.7053   
    15. B(Cl 14,C   4)                1.7094  0.002392 -0.0029    1.7064   
    16. A(C   1,N   0,C   5)          123.64  0.004069   -0.57    123.07   
    17. A(C   4,N   0,C   5)          125.18 -0.001241    0.17    125.36   
    18. A(C   1,N   0,C   4)          111.17 -0.002828    0.40    111.57   
    19. A(N   0,C   1,N   2)          104.45  0.005255   -0.64    103.82   
    20. A(C   1,N   2,C   3)          111.32 -0.003050    0.41    111.73   
    21. A(C   1,N   2,C   6)          124.35  0.001591   -0.22    124.13   
    22. A(C   3,N   2,C   6)          124.34  0.001459   -0.20    124.14   
    23. A(C   4,C   3,Cl 13)          129.93  0.001952   -0.24    129.69   
    24. A(N   2,C   3,C   4)          106.52  0.000018   -0.05    106.47   
    25. A(N   2,C   3,Cl 13)          123.55 -0.001970    0.29    123.84   
    26. A(N   0,C   4,Cl 14)          124.42 -0.003349    0.47    124.89   
    27. A(N   0,C   4,C   3)          106.54  0.000605   -0.12    106.41   
    28. A(C   3,C   4,Cl 14)          129.05  0.002744   -0.35    128.70   
    29. A(H   8,C   5,H   9)          109.56  0.001223   -0.30    109.26   
    30. A(H   7,C   5,H   9)          109.48  0.001198   -0.29    109.20   
    31. A(N   0,C   5,H   9)          109.48 -0.001006    0.12    109.60   
    32. A(H   7,C   5,H   8)          108.55 -0.000215    0.19    108.74   
    33. A(N   0,C   5,H   8)          109.81 -0.000563    0.13    109.95   
    34. A(N   0,C   5,H   7)          109.94 -0.000614    0.14    110.09   
    35. A(H  11,C   6,H  12)          109.72  0.000627   -0.15    109.56   
    36. A(H  10,C   6,H  12)          109.72  0.000632   -0.16    109.56   
    37. A(N   2,C   6,H  12)          107.68 -0.000286    0.02    107.70   
    38. A(H  10,C   6,H  11)          108.72  0.000138    0.05    108.78   
    39. A(N   2,C   6,H  11)          110.50 -0.000545    0.12    110.62   
    40. A(N   2,C   6,H  10)          110.49 -0.000551    0.12    110.61   
    41. D(N   2,C   1,N   0,C   5)   -179.89 -0.000032    0.07   -179.83   
    42. D(N   2,C   1,N   0,C   4)     -0.02 -0.000014    0.02      0.01   
    43. D(C   3,N   2,C   1,N   0)      0.01  0.000013   -0.02     -0.01   
    44. D(C   6,N   2,C   1,N   0)   -179.99  0.000010   -0.02   -180.01   
    45. D(Cl 13,C   3,N   2,C   1)   -179.98 -0.000005    0.01   -179.97   
    46. D(C   4,C   3,N   2,C   6)   -180.00 -0.000005    0.01   -179.99   
    47. D(Cl 13,C   3,N   2,C   6)      0.03 -0.000001    0.00      0.03   
    48. D(C   4,C   3,N   2,C   1)     -0.00 -0.000008    0.02      0.01   
    49. D(N   0,C   4,C   3,Cl 13)    179.96 -0.000005    0.01    179.97   
    50. D(N   0,C   4,C   3,N   2)     -0.01 -0.000001   -0.00     -0.01   
    51. D(Cl 14,C   4,N   0,C   5)     -0.11  0.000024   -0.05     -0.16   
    52. D(C   3,C   4,N   0,C   5)    179.89  0.000034   -0.06    179.83   
    53. D(Cl 14,C   4,N   0,C   1)   -179.99 -0.000002    0.00   -179.99   
    54. D(Cl 14,C   4,C   3,N   2)    180.00  0.000011   -0.02    179.98   
    55. D(Cl 14,C   4,C   3,Cl 13)     -0.03  0.000006   -0.01     -0.04   
    56. D(C   3,C   4,N   0,C   1)      0.02  0.000008   -0.01      0.00   
    57. D(H   9,C   5,N   0,C   4)      1.87 -0.000060    0.11      1.98   
    58. D(H   9,C   5,N   0,C   1)   -178.27 -0.000040    0.06   -178.21   
    59. D(H   8,C   5,N   0,C   4)    122.19  0.000468   -0.10    122.09   
    60. D(H   8,C   5,N   0,C   1)    -57.95  0.000488   -0.15    -58.10   
    61. D(H   7,C   5,N   0,C   4)   -118.45 -0.000524    0.30   -118.14   
    62. D(H   7,C   5,N   0,C   1)     61.41 -0.000504    0.25     61.67   
    63. D(H  12,C   6,N   2,C   3)    179.94 -0.000002    0.01    179.95   
    64. D(H  12,C   6,N   2,C   1)     -0.06  0.000002   -0.00     -0.06   
    65. D(H  11,C   6,N   2,C   3)    -60.24  0.000267   -0.10    -60.35   
    66. D(H  11,C   6,N   2,C   1)    119.76  0.000272   -0.11    119.65   
    67. D(H  10,C   6,N   2,C   3)     60.13 -0.000275    0.12     60.24   
    68. D(H  10,C   6,N   2,C   1)   -119.87 -0.000270    0.11   -119.76   
    ----------------------------------------------------------------------------

         *************************************************************
         *                GEOMETRY OPTIMIZATION CYCLE   2            *
         *************************************************************
---------------------------------
CARTESIAN COORDINATES (ANGSTROEM)
---------------------------------
  N     -1.075296   -1.174873   -0.001502
  C     -0.004097   -2.013583   -0.001530
  N      1.064233   -1.175213   -0.000350
  C      0.674906    0.148275    0.000099
  C     -0.683037    0.150129   -0.000491
  C     -2.449347   -1.644421    0.001121
  C      2.443975   -1.616728    0.000299
  H     -2.646789   -2.228236    0.910508
  H     -2.628621   -2.283236   -0.874073
  H     -3.130922   -0.786847   -0.031621
  H      2.967837   -1.248544    0.894549
  H      2.968663   -1.249229   -0.893751
  H      2.443163   -2.712655    0.000722
  Cl     1.765817    1.459050    0.000739
  Cl    -1.748182    1.483332    0.000156

----------------------------
CARTESIAN COORDINATES (A.U.)
----------------------------
  NO LB      ZA    FRAG     MASS         X           Y           Z
   0 N     7.0000    0    14.007   -2.032015   -2.220188   -0.002839
   1 C     6.0000    0    12.011   -0.007743   -3.805121   -0.002891
   2 N     7.0000    0    14.007    2.011108   -2.220830   -0.000662
   3 C     6.0000    0    12.011    1.275388    0.280199    0.000187
   4 C     6.0000    0    12.011   -1.290752    0.283702   -0.000928
   5 C     6.0000    0    12.011   -4.628595   -3.107505    0.002118
   6 C     6.0000    0    12.011    4.618444   -3.055174    0.000564
   7 H     1.0000    0     1.008   -5.001706   -4.210756    1.720611
   8 H     1.0000    0     1.008   -4.967374   -4.314691   -1.651758
   9 H     1.0000    0     1.008   -5.916585   -1.486925   -0.059756
  10 H     1.0000    0     1.008    5.608398   -2.359406    1.690453
  11 H     1.0000    0     1.008    5.609960   -2.360701   -1.688945
  12 H     1.0000    0     1.008    4.616908   -5.126175    0.001365
  13 Cl   17.0000    0    35.453    3.336910    2.757205    0.001396
  14 Cl   17.0000    0    35.453   -3.303585    2.803092    0.000294

--------------------------------
INTERNAL COORDINATES (ANGSTROEM)
--------------------------------
 N      0   0   0     0.000000000000     0.00000000     0.00000000
 C      1   0   0     1.360478483699     0.00000000     0.00000000
 N      2   1   0     1.358011469409   103.81729814     0.00000000
 C      3   2   1     1.379562970623   111.73088336     0.00000000
 C      4   3   2     1.357944662673   106.47034956     0.00000000
 C      1   2   3     1.452066844045   123.07366162   180.17427402
 C      3   2   1     1.448663770895   124.13240273   179.98927706
 H      6   1   2     1.098548636694   110.08531637    61.66748867
 H      6   1   2     1.098266101478   109.94466736   301.89718366
 H      6   1   2     1.095923773892   109.59765465   181.78820844
 H      7   3   2     1.099851920512   110.60845820   240.24012855
 H      7   3   2     1.099853685123   110.61925554   119.65102142
 H      7   3   2     1.095926992852   107.70211681   359.94225143
 Cl     4   3   2     1.705349564273   123.83849652   180.03276048
 Cl     5   4   3     1.706448279236   128.70084701   179.97905278

---------------------------
INTERNAL COORDINATES (A.U.)
---------------------------
 N      0   0   0     0.000000000000     0.00000000     0.00000000
 C      1   0   0     2.570931745284     0.00000000     0.00000000
 N      2   1   0     2.566269763908   103.81729814     0.00000000
 C      3   2   1     2.606996198977   111.73088336     0.00000000
 C      4   3   2     2.566143517472   106.47034956     0.00000000
 C      1   2   3     2.744008663393   123.07366162   180.17427402
 C      3   2   1     2.737577787126   124.13240273   179.98927706
 H      6   1   2     2.075956068144   110.08531637    61.66748867
 H      6   1   2     2.075422153963   109.94466736   301.89718366
 H      6   1   2     2.070995796310   109.59765465   181.78820844
[...]
      3      -0.023957  -0.012580  -0.000109   0.011559  -0.010917   0.025128
      4      -0.039431  -0.000474   0.000389  -0.014192   0.069556  -0.046736
      5      -0.000059   0.000455   0.000380   0.001838   0.000709  -0.000057
      6       0.063681  -0.010090  -0.000345   0.018958  -0.230660  -0.013502
      7       0.033802  -0.021546  -0.000427  -0.000041   0.088596   0.100863
      8       0.000108   0.000038  -0.018293  -0.000451  -0.000051   0.000147
      9      -0.003845  -0.019179  -0.000237   0.009475  -0.039305   0.030261
     10      -0.018737   0.023357   0.000274   0.004043  -0.121791  -0.068010
     11      -0.000049  -0.000054   0.001143  -0.000276  -0.000369  -0.000089
     12      -0.026224  -0.004130   0.000077  -0.002952   0.041313  -0.001829
     13      -0.029791  -0.026782  -0.000283   0.014882  -0.114920   0.055461
     14      -0.000068  -0.000004  -0.000179   0.000326   0.000002   0.000062
     15      -0.032323  -0.136497  -0.000796   0.021559  -0.028948   0.007432
     16      -0.037452  -0.069443  -0.000367   0.014203  -0.043668  -0.001138
     17       0.000875  -0.007303   0.000848  -0.046172  -0.014846   0.000817
     18      -0.142816   0.038917   0.000454  -0.013933   0.090538   0.047241
     19       0.043071  -0.014511   0.000011   0.003094  -0.021003   0.008935
     20      -0.000143   0.000271  -0.045506  -0.000585  -0.000080  -0.000018
     21       0.082622   0.351822   0.007559  -0.459618  -0.454971   0.118164
     22       0.143717   0.203300  -0.002219   0.133688   0.341108   0.066594
     23       0.133430   0.260963   0.001271  -0.058371   0.136716   0.064740
     24       0.090977   0.528531  -0.003194   0.388855  -0.130278   0.107246
     25       0.131584   0.096222   0.005067  -0.330488   0.156570   0.069671
     26      -0.142456  -0.250114  -0.002741   0.143883  -0.134376  -0.069318
     27       0.079480   0.388416   0.001142   0.038192  -0.435159   0.052758
     28       0.053220   0.352741   0.000659   0.059461  -0.338590   0.034372
     29       0.001091   0.123408  -0.010382   0.688012   0.262075  -0.011176
     30       0.340689  -0.092454   0.201096   0.018989   0.032899  -0.425354
     31      -0.302212   0.115640  -0.459532  -0.015395  -0.097094  -0.275164
     32      -0.133599   0.022757   0.039832  -0.011682   0.062063   0.376540
     33       0.340078  -0.090657  -0.202009   0.012498   0.032476  -0.425407
     34      -0.301051   0.111121   0.460917  -0.001155  -0.095100  -0.272787
     35       0.133531  -0.023061   0.040419   0.013045  -0.061997  -0.377753
     36       0.641584  -0.220196  -0.002810   0.024921   0.158647   0.355122
     37       0.043645  -0.015203  -0.000956   0.003587  -0.024350   0.003888
     38       0.001621  -0.003600   0.699488   0.010670   0.001357   0.001143
     39       0.001517  -0.000264  -0.000001  -0.000629   0.006940   0.000582
     40       0.000647  -0.000709   0.000000  -0.000712   0.009859   0.001600
     41      -0.000020  -0.000055   0.000005   0.000081   0.000066  -0.000011
     42      -0.000250  -0.000217  -0.000009   0.000587  -0.006472   0.001546
     43       0.000543   0.000797   0.000023  -0.001386   0.010208  -0.003873
     44       0.000016   0.000028   0.000057  -0.000070  -0.000028   0.000000
                 36         37         38         39         40         41    
      0      -0.029136   0.156612   0.117351   0.000325   0.000227  -0.000000
      1       0.081110   0.132987  -0.022111  -0.000265   0.000475   0.000000
      2       0.002153  -0.000240  -0.000594   0.000003  -0.000050   0.000029
      3       0.093867  -0.152095   0.007530  -0.001083   0.001055   0.000000
      4      -0.021807  -0.060519   0.029395  -0.000313  -0.000330  -0.000000
      5      -0.000221  -0.000316   0.000074  -0.000002  -0.000013   0.000160
      6      -0.142313   0.160582  -0.131625  -0.000240  -0.000439  -0.000000
      7       0.052372   0.020842  -0.035618  -0.000179  -0.000284   0.000001
      8       0.000038   0.000197  -0.000120  -0.000000   0.000006  -0.000508
      9       0.015864  -0.025997   0.679591   0.000038  -0.000232  -0.000000
     10      -0.073731   0.061235   0.061668   0.001042   0.000194  -0.000000
     11      -0.000095   0.000081   0.000482   0.000001   0.000003  -0.000204
     12       0.023409  -0.060661  -0.674027   0.000148   0.000224   0.000000
     13      -0.025887  -0.126273   0.061348   0.000031   0.001041  -0.000000
     14      -0.000017  -0.000159  -0.000235  -0.000000   0.000012   0.000089
     15      -0.032714  -0.033168  -0.022119   0.001234  -0.043194   0.000001
     16       0.009602  -0.008914   0.011281   0.000679  -0.024335  -0.000002
     17       0.005134   0.001071   0.000701  -0.000059   0.001885  -0.000047
     18       0.024530  -0.009260   0.026559   0.049642   0.001586  -0.000069
     19      -0.012369   0.006577   0.023210  -0.003192  -0.000179  -0.000125
     20       0.000005  -0.000031   0.000044   0.000032   0.000001   0.095694
     21       0.089319  -0.242192  -0.009039  -0.002986   0.105104  -0.000101
     22      -0.467475  -0.356666   0.021039  -0.009718   0.321124  -0.000246
     23      -0.259513  -0.254858   0.005954   0.016050  -0.522967   0.000384
     24      -0.054457  -0.281747   0.003183  -0.002541   0.090018   0.000090
     25      -0.380193  -0.324261   0.022889  -0.010526   0.347490   0.000270
     26       0.283765   0.274755  -0.008758  -0.014788   0.482018   0.000362
     27       0.443740   0.147203  -0.073253  -0.009061   0.306489   0.000001
     28       0.369131   0.125792  -0.023429   0.011937  -0.391745   0.000002
     29      -0.112498  -0.027421   0.002092  -0.000587   0.019028  -0.000023
     30       0.171223  -0.345920   0.099579  -0.289799  -0.009127  -0.329809
     31      -0.033387  -0.040038  -0.021674  -0.208273  -0.006170  -0.242879
     32      -0.075278   0.208049  -0.020121  -0.516746  -0.015555  -0.572384
     33       0.171400  -0.345715   0.099626  -0.290561  -0.009141   0.330640
     34      -0.034050  -0.039088  -0.021701  -0.209639  -0.006204   0.244378
     35       0.075417  -0.208613   0.020248   0.515782   0.015506  -0.571248
     36       0.105973   0.034172  -0.095982  -0.000114  -0.000101  -0.000007
     37      -0.011909   0.003087   0.026615   0.455856   0.013778  -0.000012
     38      -0.000234   0.000246   0.000024   0.000584   0.000017   0.009317
     39       0.001751   0.000258  -0.025070  -0.000076  -0.000031   0.000000
     40       0.004241  -0.004042  -0.020384  -0.000039  -0.000028  -0.000000
     41      -0.000008   0.000014  -0.000035  -0.000000  -0.000002   0.000002
     42      -0.002709  -0.000912   0.024083   0.000029   0.000117   0.000000
     43       0.000958   0.004541  -0.020235  -0.000035   0.000039   0.000000
     44       0.000025   0.000008  -0.000029   0.000000   0.000003  -0.000001
                 42         43         44    
      0       0.000081  -0.000529  -0.000021
      1       0.000020   0.000006  -0.000275
      2       0.000549   0.000023  -0.000001
      3       0.000020  -0.000032   0.000075
      4       0.000007  -0.000135   0.000040
      5       0.000127   0.000016   0.000000
      6      -0.000001  -0.000083   0.000246
      7       0.000016   0.000005   0.000055
      8       0.000065   0.000011   0.000000
      9       0.000004  -0.000036   0.000598
     10      -0.000009   0.000108  -0.000059
     11       0.000019   0.000007  -0.000000
     12      -0.000006   0.000506   0.000004
     13       0.000025  -0.000147   0.000023
     14      -0.000245  -0.000031   0.000000
     15      -0.001935   0.035795  -0.000397
     16       0.001422  -0.087685   0.000964
     17      -0.095896  -0.002279   0.000000
     18      -0.000009   0.000262   0.023439
     19      -0.000025   0.000973   0.091990
     20      -0.000103  -0.000005   0.000136
     21      -0.119932   0.053353  -0.000567
     22      -0.375877   0.149258  -0.001657
     23       0.595391  -0.257270   0.002878
     24       0.102210   0.060492  -0.000586
     25       0.407676   0.221198  -0.002221
     26       0.547655   0.316887  -0.003227
     27       0.038926  -0.531029   0.005589
     28      -0.050048   0.680829  -0.007308
     29      -0.006927  -0.032752   0.000350
     30       0.000151  -0.001589  -0.143708
     31       0.000195  -0.001049  -0.100641
     32       0.000456  -0.002827  -0.261485
     33      -0.000071  -0.001608  -0.144093
     34      -0.000140  -0.001077  -0.101326
     35       0.000300   0.002868   0.261014
     36      -0.000001  -0.000036  -0.001841
     37       0.000214  -0.009432  -0.890257
     38      -0.000016  -0.000012  -0.001153
     39       0.000002  -0.000003  -0.000028
     40       0.000001   0.000004  -0.000024
     41       0.000001  -0.000003  -0.000000
     42       0.000014  -0.000167   0.000012
     43       0.000015  -0.000134  -0.000010
     44      -0.000010   0.000001  -0.000000


-----------
IR SPECTRUM
-----------

 Mode   freq       eps      Int      T**2         TX        TY        TZ
       cm**-1   L/(mol*cm) km/mol    a.u.
----------------------------------------------------------------------------
  7:    102.06   0.000043    0.22  0.000131  (-0.000191 -0.000365  0.011426)
  8:    115.37   0.000178    0.90  0.000481  (-0.000193 -0.000467 -0.021916)
  9:    167.19   0.002253   11.39  0.004206  (-0.000187 -0.000591 -0.064849)
 10:    172.69   0.000107    0.54  0.000194  ( 0.000046  0.013919 -0.000206)
 11:    247.04   0.000135    0.68  0.000171  (-0.006715 -0.011214  0.000074)
 12:    258.65   0.001494    7.55  0.001803  ( 0.000551  0.000729  0.042450)
 13:    297.94   0.001924    9.72  0.002015  ( 0.000864 -0.044866  0.001247)
 14:    331.14   0.000017    0.09  0.000016  ( 0.000491 -0.001193 -0.003825)
 15:    441.27   0.001965    9.93  0.001390  (-0.037217 -0.002123  0.000147)
 16:    541.61   0.001362    6.88  0.000784  ( 0.001119 -0.027986  0.000059)
 17:    578.73   0.002096   10.59  0.001130  (-0.033555  0.002112 -0.000076)
 18:    639.19   0.000557    2.82  0.000272  ( 0.000380  0.000725 -0.016473)
 19:    654.42   0.001250    6.31  0.000596  (-0.000345  0.024405  0.000337)
 20:    670.50   0.000002    0.01  0.000001  ( 0.000332 -0.000399 -0.000835)
 21:    887.55   0.000016    0.08  0.000006  (-0.002369  0.000199  0.000124)
 22:   1084.00   0.000411    2.08  0.000118  (-0.010771 -0.001537  0.000046)
 23:   1103.12   0.003230   16.32  0.000914  (-0.026772 -0.014032 -0.000013)
 24:   1111.03   0.015087   76.24  0.004238  (-0.005845 -0.064834  0.000112)
 25:   1139.02   0.000090    0.46  0.000025  (-0.003454 -0.000657  0.003522)
 26:   1142.99   0.000016    0.08  0.000004  (-0.000627 -0.000146 -0.001999)
 27:   1177.50   0.014405   72.80  0.003818  ( 0.061620 -0.004540  0.000206)
 28:   1374.10   0.005077   25.66  0.001153  (-0.033887  0.002078  0.000604)
 29:   1400.25   0.000230    1.16  0.000051  (-0.003849  0.006001  0.000590)
 30:   1423.94   0.007169   36.23  0.001571  (-0.037624 -0.012474  0.000084)
 31:   1440.31   0.002546   12.86  0.000552  (-0.022549 -0.004437  0.004837)
 32:   1447.15   0.003839   19.40  0.000828  (-0.000211 -0.000045  0.028770)
 33:   1453.09   0.004023   20.33  0.000864  ( 0.010610  0.004277  0.027077)
 34:   1464.44   0.005687   28.74  0.001212  (-0.002524 -0.034309  0.005338)
 35:   1475.15   0.006482   32.76  0.001371  ( 0.023833 -0.028340 -0.000420)
 36:   1481.46   0.016234   82.04  0.003420  ( 0.045335 -0.036864 -0.002348)
 37:   1493.18   0.012636   63.86  0.002641  (-0.038822 -0.033669 -0.000076)
 38:   1695.45   0.005292   26.75  0.000974  (-0.001074  0.031192  0.000176)
 39:   3084.96   0.006837   34.55  0.000692  ( 0.026065 -0.003497 -0.000017)
 40:   3096.87   0.006019   30.42  0.000607  (-0.021962 -0.011128  0.000635)
 41:   3187.84   0.001615    8.16  0.000158  (-0.000020 -0.000019  0.012574)
 42:   3204.73   0.001288    6.51  0.000125  ( 0.000070  0.000034 -0.011199)
 43:   3224.29   0.000166    0.84  0.000016  ( 0.000968 -0.003882 -0.000228)
 44:   3226.12   0.000174    0.88  0.000017  ( 0.001526  0.003810  0.000001)

* The epsilon (eps) is given for a Dirac delta lineshape.
** The dipole moment derivative (T) already includes vibrational overlap.

The first frequency considered to be a vibration is 7
The total number of vibrations considered is 38


--------------------------
THERMOCHEMISTRY AT 298.15K
--------------------------

Temperature         ... 298.15 K
Pressure            ... 1.00 atm
Total Mass          ... 165.02 AMU

Throughout the following assumptions are being made:
  (1) The electronic state is orbitally nondegenerate
  (2) There are no thermally accessible electronically excited states
  (3) Hindered rotations indicated by low frequency modes are not
      treated as such but are treated as vibrations and this may
      cause some error
  (4) All equations used are the standard statistical mechanics
      equations for an ideal gas
  (5) All vibrations are strictly harmonic

freq.     102.06  E(vib)   ...       0.46 
freq.     115.37  E(vib)   ...       0.44 
freq.     167.19  E(vib)   ...       0.39 
freq.     172.69  E(vib)   ...       0.38 
freq.     247.04  E(vib)   ...       0.31 
freq.     258.65  E(vib)   ...       0.30 
freq.     297.94  E(vib)   ...       0.27 
freq.     331.14  E(vib)   ...       0.24 
freq.     441.27  E(vib)   ...       0.17 
freq.     541.61  E(vib)   ...       0.12 
freq.     578.73  E(vib)   ...       0.11 
freq.     639.19  E(vib)   ...       0.09 
freq.     654.42  E(vib)   ...       0.08 
freq.     670.50  E(vib)   ...       0.08 
freq.     887.55  E(vib)   ...       0.04 
freq.    1084.00  E(vib)   ...       0.02 
freq.    1103.12  E(vib)   ...       0.02 
freq.    1111.03  E(vib)   ...       0.01 
freq.    1139.02  E(vib)   ...       0.01 
freq.    1142.99  E(vib)   ...       0.01 
freq.    1177.50  E(vib)   ...       0.01 
freq.    1374.10  E(vib)   ...       0.01 
freq.    1400.25  E(vib)   ...       0.00 
freq.    1423.94  E(vib)   ...       0.00 
freq.    1440.31  E(vib)   ...       0.00 
freq.    1447.15  E(vib)   ...       0.00 
freq.    1453.09  E(vib)   ...       0.00 
freq.    1464.44  E(vib)   ...       0.00 
freq.    1475.15  E(vib)   ...       0.00 
freq.    1481.46  E(vib)   ...       0.00 
freq.    1493.18  E(vib)   ...       0.00 
freq.    1695.45  E(vib)   ...       0.00 
freq.    3084.96  E(vib)   ...       0.00 
freq.    3096.87  E(vib)   ...       0.00 
freq.    3187.84  E(vib)   ...       0.00 
freq.    3204.73  E(vib)   ...       0.00 
freq.    3224.29  E(vib)   ...       0.00 
freq.    3226.12  E(vib)   ...       0.00 

------------
INNER ENERGY
------------

The inner energy is: U= E(el) + E(ZPE) + E(vib) + E(rot) + E(trans)
    E(el)   - is the total energy from the electronic structure calculation
              = E(kin-el) + E(nuc-el) + E(el-el) + E(nuc-nuc)
    E(ZPE)  - the the zero temperature vibrational energy from the frequency calculation
    E(vib)  - the the finite temperature correction to E(ZPE) due to population
              of excited vibrational states
    E(rot)  - is the rotational thermal energy
    E(trans)- is the translational thermal energy

Summary of contributions to the inner energy U:
Electronic energy                ...  -1223.41403359 Eh
Zero point energy                ...      0.10943482 Eh      68.67 kcal/mol
Thermal vibrational correction   ...      0.00571831 Eh       3.59 kcal/mol
Thermal rotational correction    ...      0.00141627 Eh       0.89 kcal/mol
Thermal translational correction ...      0.00141627 Eh       0.89 kcal/mol
-----------------------------------------------------------------------
Total thermal energy                  -1223.29604792 Eh


Summary of corrections to the electronic energy:
(perhaps to be used in another calculation)
Total thermal correction                  0.00855085 Eh       5.37 kcal/mol
Non-thermal (ZPE) correction              0.10943482 Eh      68.67 kcal/mol
-----------------------------------------------------------------------
Total correction                          0.11798567 Eh      74.04 kcal/mol


--------
ENTHALPY
--------

The enthalpy is H = U + kB*T
                kB is Boltzmann's constant
Total free energy                 ...  -1223.29604792 Eh 
Thermal Enthalpy correction       ...      0.00094421 Eh       0.59 kcal/mol
-----------------------------------------------------------------------
Total Enthalpy                    ...  -1223.29510371 Eh


Note: Only C1 symmetry has been detected, increase convergence thresholds 
      if your molecule has a higher symmetry. Symmetry factor of 1.0 is   
      used for the rotational entropy correction. 
 

Note: Rotational entropy computed according to Herzberg 
Infrared and Raman Spectra, Chapter V,1, Van Nostrand Reinhold, 1945 
Point Group:  C1, Symmetry Number:   1  
Rotational constants in cm-1:     0.051000     0.037001     0.021622 

Vibrational entropy computed according to the QRRHO of S. Grimme
Chem.Eur.J. 2012 18 9955


-------
ENTROPY
-------

The entropy contributions are T*S = T*(S(el)+S(vib)+S(rot)+S(trans))
     S(el)   - electronic entropy
     S(vib)  - vibrational entropy
     S(rot)  - rotational entropy
     S(trans)- translational entropy
The entropies will be listed as multiplied by the temperature to get
units of energy

Electronic entropy                ...      0.00000000 Eh      0.00 kcal/mol
Vibrational entropy               ...      0.00985003 Eh      6.18 kcal/mol
Rotational entropy                ...      0.01428212 Eh      8.96 kcal/mol
Translational entropy             ...      0.01958067 Eh     12.29 kcal/mol
-----------------------------------------------------------------------
Final entropy term                ...      0.04371283 Eh     27.43 kcal/mol

In case the symmetry of your molecule has not been determined correctly
or in case you have a reason to use a different symmetry number we print 
out the resulting rotational entropy values for sn=1,12 :
 --------------------------------------------------------
|  sn= 1 | S(rot)=       0.01428212 Eh      8.96 kcal/mol|
|  sn= 2 | S(rot)=       0.01362767 Eh      8.55 kcal/mol|
|  sn= 3 | S(rot)=       0.01324483 Eh      8.31 kcal/mol|
|  sn= 4 | S(rot)=       0.01297321 Eh      8.14 kcal/mol|
|  sn= 5 | S(rot)=       0.01276252 Eh      8.01 kcal/mol|
|  sn= 6 | S(rot)=       0.01259038 Eh      7.90 kcal/mol|
|  sn= 7 | S(rot)=       0.01244483 Eh      7.81 kcal/mol|
|  sn= 8 | S(rot)=       0.01231875 Eh      7.73 kcal/mol|
|  sn= 9 | S(rot)=       0.01220754 Eh      7.66 kcal/mol|
|  sn=10 | S(rot)=       0.01210807 Eh      7.60 kcal/mol|
|  sn=11 | S(rot)=       0.01201808 Eh      7.54 kcal/mol|
|  sn=12 | S(rot)=       0.01193592 Eh      7.49 kcal/mol|
 --------------------------------------------------------


-------------------
GIBBS FREE ENERGY
-------------------

The Gibbs free energy is G = H - T*S

Total enthalpy                    ...  -1223.29510371 Eh 
Total entropy correction          ...     -0.04371283 Eh    -27.43 kcal/mol
-----------------------------------------------------------------------
Final Gibbs free energy         ...  -1223.33881654 Eh

For completeness - the Gibbs free energy minus the electronic energy
G-E(el)                           ...      0.07521705 Eh     47.20 kcal/mol


Timings for individual modules:

Sum of individual times         ...     1051.376 sec (=  17.523 min)
GTO integral calculation        ...        1.250 sec (=   0.021 min)   0.1 %
SCF iterations                  ...      538.619 sec (=   8.977 min)  51.2 %
SCF Gradient evaluation         ...      146.558 sec (=   2.443 min)  13.9 %
Geometry relaxation             ...        0.193 sec (=   0.003 min)   0.0 %
Analytical frequency calculation...      364.756 sec (=   6.079 min)  34.7 %
                             ****ORCA TERMINATED NORMALLY****
TOTAL RUN TIME: 0 days 0 hours 17 minutes 32 seconds 0 msec
