
                                 *****************
                                 * O   R   C   A *
                                 *****************

                                            #,                                       
                                            ###                                      
                                            ####                                     
                                            #####                                    
                                            ######                                   
                                           ########,                                 
                                     ,,################,,,,,                         
                               ,,#################################,,                 
                          ,,##########################################,,             
                       ,#########################################, ''#####,          
                    ,#############################################,,   '####,        
                  ,##################################################,,,,####,       
                ,###########''''           ''''###############################       
              ,#####''   ,,,,##########,,,,          '''####'''          '####       
            ,##' ,,,,###########################,,,                        '##       
           ' ,,###''''                  '''############,,,                           
         ,,##''                                '''############,,,,        ,,,,,,###''
      ,#''                                            '''#######################'''  
     '                                                          ''''####''''         
             ,#######,   #######,   ,#######,      ##                                
            ,#'     '#,  ##    ##  ,#'     '#,    #''#        ######   ,####,        
            ##       ##  ##   ,#'  ##            #'  '#       #        #'  '#        
            ##       ##  #######   ##           ,######,      #####,   #    #        
            '#,     ,#'  ##    ##  '#,     ,#' ,#      #,         ##   #,  ,#        
             '#######'   ##     ##  '#######'  #'      '#     #####' # '####'        



                  #######################################################
                  #                        -***-                        #
                  #          Department of theory and spectroscopy      #
                  #    Directorship and core code : Frank Neese         #
                  #        Max Planck Institute fuer Kohlenforschung    #
                  #                Kaiser Wilhelm Platz 1               #
                  #                 D-45470 Muelheim/Ruhr               #
                  #                      Germany                        #
                  #                                                     #
                  #                  All rights reserved                #
                  #                        -***-                        #
                  #######################################################


                         Program Version 5.0.4 -  RELEASE  -


 With contributions from (in alphabetic order):
   Daniel Aravena         : Magnetic Suceptibility
   Michael Atanasov       : Ab Initio Ligand Field Theory (pilot matlab implementation)
   Alexander A. Auer      : GIAO ZORA, VPT2 properties, NMR spectrum
   Ute Becker             : Parallelization
   Giovanni Bistoni       : ED, misc. LED, open-shell LED, HFLD
   Martin Brehm           : Molecular dynamics
   Dmytro Bykov           : SCF Hessian
   Vijay G. Chilkuri      : MRCI spin determinant printing, contributions to CSF-ICE
   Dipayan Datta          : RHF DLPNO-CCSD density
   Achintya Kumar Dutta   : EOM-CC, STEOM-CC
   Dmitry Ganyushin       : Spin-Orbit,Spin-Spin,Magnetic field MRCI
   Miquel Garcia          : C-PCM and meta-GGA Hessian, CC/C-PCM, Gaussian charge scheme
   Yang Guo               : DLPNO-NEVPT2, F12-NEVPT2, CIM, IAO-localization
   Andreas Hansen         : Spin unrestricted coupled pair/coupled cluster methods
   Benjamin Helmich-Paris : MC-RPA, TRAH-SCF, COSX integrals
   Lee Huntington         : MR-EOM, pCC
   Robert Izsak           : Overlap fitted RIJCOSX, COSX-SCS-MP3, EOM
   Marcus Kettner         : VPT2
   Christian Kollmar      : KDIIS, OOCD, Brueckner-CCSD(T), CCSD density, CASPT2, CASPT2-K
   Simone Kossmann        : Meta GGA functionals, TD-DFT gradient, OOMP2, MP2 Hessian
   Martin Krupicka        : Initial AUTO-CI
   Lucas Lang             : DCDCAS
   Marvin Lechner         : AUTO-CI (C++ implementation), FIC-MRCC
   Dagmar Lenk            : GEPOL surface, SMD
   Dimitrios Liakos       : Extrapolation schemes; Compound Job, initial MDCI parallelization
   Dimitrios Manganas     : Further ROCIS development; embedding schemes
   Dimitrios Pantazis     : SARC Basis sets
   Anastasios Papadopoulos: AUTO-CI, single reference methods and gradients
   Taras Petrenko         : DFT Hessian,TD-DFT gradient, ASA, ECA, R-Raman, ABS, FL, XAS/XES, NRVS
   Peter Pinski           : DLPNO-MP2, DLPNO-MP2 Gradient
   Christoph Reimann      : Effective Core Potentials
   Marius Retegan         : Local ZFS, SOC
   Christoph Riplinger    : Optimizer, TS searches, QM/MM, DLPNO-CCSD(T), (RO)-DLPNO pert. Triples
   Tobias Risthaus        : Range-separated hybrids, TD-DFT gradient, RPA, STAB
   Michael Roemelt        : Original ROCIS implementation
   Masaaki Saitow         : Open-shell DLPNO-CCSD energy and density
   Barbara Sandhoefer     : DKH picture change effects
   Avijit Sen             : IP-ROCIS
   Kantharuban Sivalingam : CASSCF convergence, NEVPT2, FIC-MRCI
   Bernardo de Souza      : ESD, SOC TD-DFT
   Georgi Stoychev        : AutoAux, RI-MP2 NMR, DLPNO-MP2 response
   Willem Van den Heuvel  : Paramagnetic NMR
   Boris Wezisla          : Elementary symmetry handling
   Frank Wennmohs         : Technical directorship


 We gratefully acknowledge several colleagues who have allowed us to
 interface, adapt or use parts of their codes:
   Stefan Grimme, W. Hujo, H. Kruse, P. Pracht,  : VdW corrections, initial TS optimization,
                  C. Bannwarth, S. Ehlert          DFT functionals, gCP, sTDA/sTD-DF
   Ed Valeev, F. Pavosevic, A. Kumar             : LibInt (2-el integral package), F12 methods
   Garnet Chan, S. Sharma, J. Yang, R. Olivares  : DMRG
   Ulf Ekstrom                                   : XCFun DFT Library
   Mihaly Kallay                                 : mrcc  (arbitrary order and MRCC methods)
   Jiri Pittner, Ondrej Demel                    : Mk-CCSD
   Frank Weinhold                                : gennbo (NPA and NBO analysis)
   Christopher J. Cramer and Donald G. Truhlar   : smd solvation model
   Lars Goerigk                                  : TD-DFT with DH, B97 family of functionals
   V. Asgeirsson, H. Jonsson                     : NEB implementation
   FAccTs GmbH                                   : IRC, NEB, NEB-TS, DLPNO-Multilevel, CI-OPT
                                                   MM, QMMM, 2- and 3-layer-ONIOM, Crystal-QMMM,
                                                   LR-CPCM, SF, NACMEs, symmetry and pop. for TD-DFT,
                                                   nearIR, NL-DFT gradient (VV10), updates on ESD,
                                                   ML-optimized integration grids
   S Lehtola, MJT Oliveira, MAL Marques          : LibXC Library
   Liviu Ungur et al                             : ANISO software


 Your calculation uses the libint2 library for the computation of 2-el integrals
 For citations please refer to: http://libint.valeyev.net

 Your ORCA version has been built with support for libXC version: 5.1.0
 For citations please refer to: https://tddft.org/programs/libxc/

 This ORCA versions uses:
   CBLAS   interface :  Fast vector & matrix operations
   LAPACKE interface :  Fast linear algebra routines
   SCALAPACK package :  Parallel linear algebra routines
   Shared memory     :  Shared parallel matrices
   BLAS/LAPACK       :  OpenBLAS 0.3.15  USE64BITINT DYNAMIC_ARCH NO_AFFINITY SkylakeX SINGLE_THREADED
        Core in use  :  SkylakeX
   Copyright (c) 2011-2014, The OpenBLAS Project




***************************************
The coordinates will be read from file: 3_deprot_aq_3.xyz
***************************************


Your calculation utilizes the atom-pairwise dispersion correction
based on tight binding partial charges (D4)
Cite in your paper:
E.Caldeweyher, C.Bannwarth, S.Grimme, J.Chem.Phys., (2017), 147, 034112.
E.Caldeweyher, S.Ehlert, A.Hansen, H.Neugebauer, S.Grimme, J.Chem.Phys., (2018), in progress.
   

XCFun DFT library Copyright 2009-2010 Ulf Ekstrom and contributors.
See http://admol.org/xcfun for more information.
This is free software; see the source code for copying conditions.
There is ABSOLUTELY NO WARRANTY; not even for MERCHANTABILITY or FITNESS FOR A PARTICULAR PURPOSE.
For details see the documentation.
Scientific users of this library should cite U. Ekstrom, L. Visscher, R. Bast, A. J. Thorvaldsen and K. Ruud;
J.Chem.Theor.Comp. 2010, DOI: 10.1021/ct100117s
XCFun Version 0.99 

================================================================================

----- Orbital basis set information -----
Your calculation utilizes the basis: def2-SVP
   F. Weigend and R. Ahlrichs, Phys. Chem. Chem. Phys. 7, 3297 (2005).

----- AuxJ basis set information -----
Your calculation utilizes the auxiliary basis: def2/J
   F. Weigend, Phys. Chem. Chem. Phys. 8, 1057 (2006).

================================================================================
                                        WARNINGS
                       Please study these warnings very carefully!
================================================================================


WARNING: Geometry Optimization
  ===> : Switching off AutoStart
         For restart on a previous wavefunction, please use MOREAD

INFO   : the flag for use of the SHARK integral package has been found!

================================================================================
                                       INPUT FILE
================================================================================
NAME = 3_deprot_aq_3.inp
|  1> # ORCA 5.0.4 - /users/bwb16179/postgrad/2024_03/DFT_Crest_Conformers/Opt/deprot/3_deprot_aq_3.inp # write input file
|  2> # Basic Mode
|  3> #
|  4> ! Opt Freq wB97X Def2-SVP D4 SlowConv TightSCF Defgrid2 Def2/J RIJCOSX CPCM(Water)
|  5> 
|  6> 
|  7> 
|  8> %maxcore 4500
|  9> 
| 10> %geom
| 11> Maxiter 150
| 12> END
| 13> 
| 14> * xyzfile 0 1 3_deprot_aq_3.xyz
| 15> 
| 16>                          ****END OF INPUT****
================================================================================

                       *****************************
                       * Geometry Optimization Run *
                       *****************************

Geometry optimization settings:
Update method            Update   .... BFGS
Choice of coordinates    CoordSys .... Z-matrix Internals
Initial Hessian          InHess   .... Almoef's Model

Convergence Tolerances:
Energy Change            TolE     ....  5.0000e-06 Eh
Max. Gradient            TolMAXG  ....  3.0000e-04 Eh/bohr
RMS Gradient             TolRMSG  ....  1.0000e-04 Eh/bohr
Max. Displacement        TolMAXD  ....  4.0000e-03 bohr
RMS Displacement         TolRMSD  ....  2.0000e-03 bohr
Strict Convergence                ....  False
------------------------------------------------------------------------------
                        ORCA OPTIMIZATION COORDINATE SETUP
------------------------------------------------------------------------------

The optimization will be done in new redundant internal coordinates
Making redundant internal coordinates   ...  (new redundants) done
Evaluating the initial hessian          ...  (Almloef) done
Evaluating the coordinates              ...  done
Calculating the B-matrix                .... done
Calculating the G-matrix                .... done
Diagonalizing the G-matrix              .... done
The first mode is                       ....   29
The number of degrees of freedom        ....   39

    -----------------------------------------------------------------
                    Redundant Internal Coordinates


    -----------------------------------------------------------------
         Definition                    Initial Value    Approx d2E/dq
    -----------------------------------------------------------------
      1. B(C   1,N   0)                  1.3564         0.633141   
      2. B(N   2,C   1)                  1.3564         0.633010   
      3. B(C   3,N   2)                  1.3724         0.597079   
      4. B(C   4,C   3)                  1.3637         0.688238   
      5. B(C   4,N   0)                  1.3724         0.597082   
      6. B(C   5,N   0)                  1.4380         0.469141   
      7. B(C   6,N   2)                  1.4380         0.469201   
      8. B(H   7,C   5)                  1.0882         0.362555   
      9. B(H   8,C   5)                  1.0904         0.359612   
     10. B(H   9,C   5)                  1.0901         0.360033   
     11. B(H  10,C   6)                  1.0903         0.359735   
     12. B(H  11,C   6)                  1.0881         0.362616   
     13. B(H  12,C   6)                  1.0901         0.359911   
     14. B(Cl 13,C   3)                  1.7096         0.433324   
     15. B(Cl 14,C   4)                  1.7095         0.433463   
     16. A(C   1,N   0,C   5)          123.6592         0.409170   
     17. A(C   4,N   0,C   5)          125.1933         0.404948   
     18. A(C   1,N   0,C   4)          111.1473         0.427131   
     19. A(N   0,C   1,N   2)          104.5781         0.431632   
     20. A(C   1,N   2,C   3)          111.1471         0.427115   
     21. A(C   1,N   2,C   6)          123.6605         0.409164   
     22. A(C   3,N   2,C   6)          125.1924         0.404957   
     23. A(C   4,C   3,Cl 13)          128.9758         0.433595   
     24. A(N   2,C   3,C   4)          106.5625         0.436436   
     25. A(N   2,C   3,Cl 13)          124.4617         0.419944   
     26. A(N   0,C   4,Cl 14)          124.4700         0.419968   
     27. A(N   0,C   4,C   3)          106.5650         0.436436   
     28. A(C   3,C   4,Cl 14)          128.9650         0.433620   
     29. A(H   8,C   5,H   9)          108.5459         0.290769   
     30. A(H   7,C   5,H   9)          109.5553         0.291142   
     31. A(N   0,C   5,H   9)          109.8216         0.334720   
     32. A(H   7,C   5,H   8)          109.4954         0.291088   
     33. A(N   0,C   5,H   8)          109.9300         0.334655   
     34. A(N   0,C   5,H   7)          109.4760         0.335109   
     35. A(H  11,C   6,H  12)          109.5455         0.291134   
     36. A(H  10,C   6,H  12)          108.5429         0.290769   
     37. A(N   2,C   6,H  12)          109.8518         0.334708   
     38. A(H  10,C   6,H  11)          109.4960         0.291111   
     39. A(N   2,C   6,H  11)          109.4693         0.335125   
     40. A(N   2,C   6,H  10)          109.9187         0.334681   
     41. D(N   2,C   1,N   0,C   5)   -179.8912         0.029503   
     42. D(N   2,C   1,N   0,C   4)     -0.0218         0.029503   
     43. D(C   3,N   2,C   1,N   0)      0.0135         0.029490   
     44. D(C   6,N   2,C   1,N   0)    179.9457         0.029490   
     45. D(Cl 13,C   3,N   2,C   1)   -179.9811         0.028706   
     46. D(C   4,C   3,N   2,C   6)   -179.9315         0.028706   
     47. D(Cl 13,C   3,N   2,C   6)      0.0879         0.028706   
     48. D(C   4,C   3,N   2,C   1)     -0.0005         0.028706   
     49. D(N   0,C   4,C   3,Cl 13)    179.9668         0.033267   
     50. D(N   0,C   4,C   3,N   2)     -0.0127         0.033267   
     51. D(Cl 14,C   4,N   0,C   5)     -0.1339         0.028707   
     52. D(C   3,C   4,N   0,C   5)    179.8890         0.028707   
     53. D(Cl 14,C   4,N   0,C   1)    179.9991         0.028707   
     54. D(Cl 14,C   4,C   3,N   2)   -179.9884         0.033267   
     55. D(Cl 14,C   4,C   3,Cl 13)     -0.0089         0.033267   
     56. D(C   3,C   4,N   0,C   1)      0.0220         0.028707   
     57. D(H   9,C   5,N   0,C   4)    121.9990         0.018803   
     58. D(H   9,C   5,N   0,C   1)    -58.1500         0.018803   
     59. D(H   8,C   5,N   0,C   4)   -118.6389         0.018803   
     60. D(H   8,C   5,N   0,C   1)     61.2121         0.018803   
     61. D(H   7,C   5,N   0,C   4)      1.6768         0.018803   
     62. D(H   7,C   5,N   0,C   1)   -178.4722         0.018803   
     63. D(H  12,C   6,N   2,C   3)   -121.2220         0.018808   
     64. D(H  12,C   6,N   2,C   1)     58.8554         0.018808   
     65. D(H  11,C   6,N   2,C   3)     -0.8974         0.018808   
     66. D(H  11,C   6,N   2,C   1)    179.1800         0.018808   
     67. D(H  10,C   6,N   2,C   3)    119.4079         0.018808   
     68. D(H  10,C   6,N   2,C   1)    -60.5148         0.018808   
    -----------------------------------------------------------------

Number of atoms                         .... 15
Number of degrees of freedom            .... 68

         *************************************************************
         *                GEOMETRY OPTIMIZATION CYCLE   1            *
         *************************************************************
---------------------------------
CARTESIAN COORDINATES (ANGSTROEM)
---------------------------------
  N     -1.073110   -1.179300   -0.000898
  C     -0.000057   -2.008967   -0.000825
  N      1.073030   -1.179252   -0.000485
  C      0.681786    0.136148   -0.000046
  C     -0.681889    0.136106   -0.000123
  C     -2.435753   -1.638678    0.001039
  C      2.435656   -1.638573    0.000837
  H     -3.107183   -0.782829   -0.026811
  H     -2.629385   -2.223980    0.900390
  H     -2.613986   -2.270707   -0.869009
  H      2.625790   -2.234795    0.893625
  H      3.106996   -0.782384   -0.013831
  H      2.617741   -2.259874   -0.876227
  Cl     1.757078    1.465254    0.000005
  Cl    -1.756958    1.465280    0.000011

----------------------------
CARTESIAN COORDINATES (A.U.)
----------------------------
  NO LB      ZA    FRAG     MASS         X           Y           Z
   0 N     7.0000    0    14.007   -2.027884   -2.228554   -0.001696
   1 C     6.0000    0    12.011   -0.000108   -3.796397   -0.001559
   2 N     7.0000    0    14.007    2.027733   -2.228464   -0.000916
   3 C     6.0000    0    12.011    1.288388    0.257282   -0.000087
   4 C     6.0000    0    12.011   -1.288584    0.257202   -0.000233
   5 C     6.0000    0    12.011   -4.602907   -3.096652    0.001963
   6 C     6.0000    0    12.011    4.602723   -3.096455    0.001581
   7 H     1.0000    0     1.008   -5.871724   -1.479332   -0.050665
   8 H     1.0000    0     1.008   -4.968817   -4.202714    1.701490
   9 H     1.0000    0     1.008   -4.939717   -4.291015   -1.642189
  10 H     1.0000    0     1.008    4.962023   -4.223150    1.688706
  11 H     1.0000    0     1.008    5.871371   -1.478492   -0.026136
  12 H     1.0000    0     1.008    4.946814   -4.270543   -1.655830
  13 Cl   17.0000    0    35.453    3.320396    2.768928    0.000009
  14 Cl   17.0000    0    35.453   -3.320169    2.768978    0.000022

--------------------------------
INTERNAL COORDINATES (ANGSTROEM)
--------------------------------
 N      0   0   0     0.000000000000     0.00000000     0.00000000
 C      1   0   0     1.356388687279     0.00000000     0.00000000
 N      2   1   0     1.356444643190   104.57807023     0.00000000
 C      3   2   1     1.372351959169   111.14708511     0.00000000
 C      4   3   2     1.363674792869   106.56246199     0.00000000
 C      1   2   3     1.437994434561   123.65923449   180.10879532
 C      3   2   1     1.437959443219   123.66047508   179.94574432
 H      6   1   2     1.088150200731   109.47595940   181.52783209
 H      6   1   2     1.090368912949   109.92995921    61.21214243
 H      6   1   2     1.090050862877   109.82157961   301.85001352
 H      7   3   2     1.090275803845   109.91865879   299.48520747
 H      7   3   2     1.088104405802   109.46927853   179.17995187
 H      7   3   2     1.090142663247   109.85177329    58.85535916
 Cl     4   3   2     1.709612452631   124.46170616   180.01885619
 Cl     5   4   3     1.709525635822   128.96499131   180.01162877

---------------------------
INTERNAL COORDINATES (A.U.)
---------------------------
 N      0   0   0     0.000000000000     0.00000000     0.00000000
 C      1   0   0     2.563203150107     0.00000000     0.00000000
 N      2   1   0     2.563308891454   104.57807023     0.00000000
 C      3   2   1     2.593369362180   111.14708511     0.00000000
 C      4   3   2     2.576971894254   106.56246199     0.00000000
 C      1   2   3     2.717415663424   123.65923449   180.10879532
 C      3   2   1     2.717349539370   123.66047508   179.94574432
 H      6   1   2     2.056305871952   109.47595940   181.52783209
 H      6   1   2     2.060498630416   109.92995921    61.21214243
 H      6   1   2     2.059897602883   109.82157961   301.85001352
 H      7   3   2     2.060322679708   109.91865879   299.48520747
 H      7   3   2     2.056219332079   109.46927853   179.17995187
 H      7   3   2     2.060071080441   109.85177329    58.85535916
 Cl     4   3   2     3.230699330614   124.46170616   180.01885619
 Cl     5   4   3     3.230535270621   128.96499131   180.01162877

---------------------
BASIS SET INFORMATION
---------------------
There are 4 groups of distinct atoms

 Group   1 Type N   : 7s4p1d contracted to 3s2p1d pattern {511/31/1}
 Group   2 Type C   : 7s4p1d contracted to 3s2p1d pattern {511/31/1}
 Group   3 Type H   : 4s1p contracted to 2s1p pattern {31/1}
 Group   4 Type Cl  : 10s7p1d contracted to 4s3p1d pattern {5311/511/1}

Atom   0N    basis set group =>   1
Atom   1C    basis set group =>   2
Atom   2N    basis set group =>   1
Atom   3C    basis set group =>   2
Atom   4C    basis set group =>   2
Atom   5C    basis set group =>   2
Atom   6C    basis set group =>   2
Atom   7H    basis set group =>   3
Atom   8H    basis set group =>   3
Atom   9H    basis set group =>   3
Atom  10H    basis set group =>   3
Atom  11H    basis set group =>   3
Atom  12H    basis set group =>   3
Atom  13Cl   basis set group =>   4
Atom  14Cl   basis set group =>   4
---------------------------------
AUXILIARY/J BASIS SET INFORMATION
---------------------------------
There are 4 groups of distinct atoms

 Group   1 Type N   : 12s5p4d2f1g contracted to 6s4p3d1f1g pattern {711111/2111/211/2/1}
 Group   2 Type C   : 12s5p4d2f1g contracted to 6s4p3d1f1g pattern {711111/2111/211/2/1}
 Group   3 Type H   : 5s2p1d contracted to 3s1p1d pattern {311/2/1}
 Group   4 Type Cl  : 14s5p5d2f1g contracted to 8s4p3d1f1g pattern {71111111/2111/311/2/1}

Atom   0N    basis set group =>   1
Atom   1C    basis set group =>   2
Atom   2N    basis set group =>   1
Atom   3C    basis set group =>   2
Atom   4C    basis set group =>   2
Atom   5C    basis set group =>   2
Atom   6C    basis set group =>   2
Atom   7H    basis set group =>   3
Atom   8H    basis set group =>   3
Atom   9H    basis set group =>   3
Atom  10H    basis set group =>   3
Atom  11H    basis set group =>   3
Atom  12H    basis set group =>   3
Atom  13Cl   basis set group =>   4
Atom  14Cl   basis set group =>   4
------------------------------------------------------------------------------
                           ORCA GTO INTEGRAL CALCULATION
                           -- RI-GTO INTEGRALS CHOSEN --
------------------------------------------------------------------------------
------------------------------------------------------------------------------
                   ___                                                        
                  /   \      - P O W E R E D   B Y -                         
                 /     \                                                     
                 |  |  |   _    _      __       _____    __    __             
                 |  |  |  | |  | |    /  \     |  _  \  |  |  /  |          
                  \  \/   | |  | |   /    \    | | | |  |  | /  /          
                 / \  \   | |__| |  /  /\  \   | |_| |  |  |/  /          
                |  |  |   |  __  | /  /__\  \  |    /   |      \           
                |  |  |   | |  | | |   __   |  |    \   |  |\   \          
                \     /   | |  | | |  |  |  |  | |\  \  |  | \   \       
                 \___/    |_|  |_| |__|  |__|  |_| \__\ |__|  \__/        
                                                                              
                      - O R C A' S   B I G   F R I E N D -                    
                                      &                                       
                       - I N T E G R A L  F E E D E R -                       
                                                                              
 v1 FN, 2020, v2 2021                                                         
------------------------------------------------------------------------------


Reading SHARK input file 3_deprot_aq_3.SHARKINP.tmp ... ok
----------------------
SHARK INTEGRAL PACKAGE
----------------------

Number of atoms                             ...     15
Number of basis functions                   ...    164
Number of shells                            ...     76
Maximum angular momentum                    ...      2
Integral batch strategy                     ... SHARK/LIBINT Hybrid
RI-J (if used) integral strategy            ... SPLIT-RIJ (Revised 2003 algorithm where possible)
Printlevel                                  ...      1
Contraction scheme used                     ... SEGMENTED contraction
Coulomb Range Separation                    ... NOT USED
Exchange Range Separation                   ... Long Range
   Mu parameter                             ...  0.300000
   Scaling (regular/separated)              ...  0.157706  0.842294
Finite Nucleus Model                        ... NOT USED
Auxiliary Coulomb fitting basis             ... AVAILABLE
   # of basis functions in Aux-J            ...    511
   # of shells in Aux-J                     ...    169
   Maximum angular momentum in Aux-J        ...      4
Auxiliary J/K fitting basis                 ... NOT available
Auxiliary Correlation fitting basis         ... NOT available
Auxiliary 'external' fitting basis          ... NOT available
Integral threshold                          ...     2.500000e-11
Primitive cut-off                           ...     2.500000e-12
Primitive pair pre-selection threshold      ...     2.500000e-12

Calculating pre-screening integrals         ... done (  0.0 sec) Dimension = 76
Organizing shell pair data                  ... done (  0.0 sec)
Shell pair information
Total number of shell pairs                 ...      2926
Shell pairs after pre-screening             ...      2636
Total number of primitive shell pairs       ...     11480
Primitive shell pairs kept                  ...      7303
          la=0 lb=0:    778 shell pairs
          la=1 lb=0:    954 shell pairs
          la=1 lb=1:    313 shell pairs
          la=2 lb=0:    335 shell pairs
          la=2 lb=1:    214 shell pairs
          la=2 lb=2:     42 shell pairs

Calculating one electron integrals          ... done (  0.0 sec)
Calculating RI/J V-Matrix + Cholesky decomp.... done (  0.0 sec)
Calculating Nuclear repulsion               ... done (  0.0 sec) ENN=    606.793920246071 Eh

SHARK setup successfully completed in   0.2 seconds

Maximum memory used throughout the entire GTOINT-calculation: 23.7 MB
-------------------------------------------------------------------------------
                                 ORCA SCF
-------------------------------------------------------------------------------

------------
SCF SETTINGS
------------
Hamiltonian:
 Density Functional     Method          .... DFT(GTOs)
 Exchange Functional    Exchange        .... WB97X
 Correlation Functional Correlation     .... WB97X
 Gradients option       PostSCFGGA      .... off
 Hybrid DFT is turned on
   Fraction HF Exchange ScalHFX         ....  0.157706
   Scaling of DF-GGA-X  ScalDFX         ....  0.000000
   Scaling of DF-GGA-C  ScalDFC         ....  1.000000
   Scaling of DF-LDA-C  ScalLDAC        ....  1.000000
   Perturbative correction              ....  0.000000
   Density functional embedding theory  .... OFF
 Long-range corrected/Screened/Range-Separated Hybrid DFT is turned on
   Amount of maximum screened exact exchange              ....  0.842294
   Range separation parameter mu (erf(mu*r12)/r12)        ....  0.300000
 RI-approximation to the Coulomb term is turned on
   Number of AuxJ basis functions       .... 511
   RIJ-COSX (HFX calculated with COS-X)).... on


General Settings:
 Integral files         IntName         .... 3_deprot_aq_3
 Hartree-Fock type      HFTyp           .... RHF
 Total Charge           Charge          ....    0
 Multiplicity           Mult            ....    1
 Number of Electrons    NEL             ....   84
 Basis Dimension        Dim             ....  164
 Nuclear Repulsion      ENuc            ....    606.7939202461 Eh

Convergence Acceleration:
 DIIS                   CNVDIIS         .... on
   Start iteration      DIISMaxIt       ....     0
   Startup error        DIISStart       ....  0.200000
   # of expansion vecs  DIISMaxEq       ....     5
   Bias factor          DIISBfac        ....   1.050
   Max. coefficient     DIISMaxC        ....  10.000
 Trust-Rad. Augm. Hess. CNVTRAH         .... auto
   Auto Start mean grad. ratio tolernc. ....  1.125000
   Auto Start start iteration           ....    20
   Auto Start num. interpolation iter.  ....    10
   Max. Number of Micro iterations      ....    16
   Max. Number of Macro iterations      .... Maxiter - #DIIS iter
   Number of Davidson start vectors     ....     2
   Converg. threshold I  (grad. norm)   ....   1.000e-05
   Converg. threshold II (energy diff.) ....   1.000e-08
   Grad. Scal. Fac. for Micro threshold ....   0.100
   Minimum threshold for Micro iter.    ....   0.010
   NR start threshold (gradient norm)   ....   0.001
   Initial trust radius                 ....   0.400
   Minimum AH scaling param. (alpha)    ....   1.000
   Maximum AH scaling param. (alpha)    .... 1000.000
   Orbital update algorithm             .... Taylor
   White noise on init. David. guess    .... on
   Maximum white noise                  ....   0.010
   Quad. conv. algorithm                .... NR
 SOSCF                  CNVSOSCF        .... on
   Start iteration      SOSCFMaxIt      ....   150
   Startup grad/error   SOSCFStart      ....  0.001000
 Level Shifting         CNVShift        .... on
   Level shift para.    LevelShift      ....    0.2500
   Turn off err/grad.   ShiftErr        ....    0.0000
 Zerner damping         CNVZerner       .... off
 Static damping         CNVDamp         .... on
   Fraction old density DampFac         ....    0.8500
   Max. Damping (<1)    DampMax         ....    0.9800
   Min. Damping (>=0)   DampMin         ....    0.0000
   Turn off err/grad.   DampErr         ....    0.0300
 Fernandez-Rico         CNVRico         .... off

SCF Procedure:
 Maximum # iterations   MaxIter         ....   125
 SCF integral mode      SCFMode         .... Direct
   Integral package                     .... SHARK and LIBINT hybrid scheme
 Reset frequency        DirectResetFreq ....    20
 Integral Threshold     Thresh          ....  2.500e-11 Eh
 Primitive CutOff       TCut            ....  2.500e-12 Eh

Convergence Tolerance:
 Convergence Check Mode ConvCheckMode   .... Total+1el-Energy
 Convergence forced     ConvForced      .... 0
 Energy Change          TolE            ....  1.000e-08 Eh
 1-El. energy change                    ....  1.000e-05 Eh
 Orbital Gradient       TolG            ....  1.000e-05
 Orbital Rotation angle TolX            ....  1.000e-05
 DIIS Error             TolErr          ....  5.000e-07


Diagonalization of the overlap matrix:
Smallest eigenvalue                        ... 9.063e-04
Time for diagonalization                   ...    0.005 sec
Threshold for overlap eigenvalues          ... 1.000e-08
Number of eigenvalues below threshold      ... 0
Time for construction of square roots      ...    0.002 sec
Total time needed                          ...    0.007 sec

Time for model grid setup =    0.199 sec

------------------------------
INITIAL GUESS: MODEL POTENTIAL
------------------------------
Loading Hartree-Fock densities                     ... done
Calculating cut-offs                               ... done
Initializing the effective Hamiltonian             ... done
Setting up the integral package (SHARK)            ... done
Starting the Coulomb interaction                   ... done (   0.2 sec)
Reading the grid                                   ... done
Mapping shells                                     ... done
Starting the XC term evaluation                    ... done (   0.3 sec)
  promolecular density results
     # of electrons  =     83.993184015
     EX              =    -95.267442978
     EC              =     -3.026297525
     EX+EC           =    -98.293740504
Transforming the Hamiltonian                       ... done (   0.0 sec)
Diagonalizing the Hamiltonian                      ... done (   0.0 sec)
Back transforming the eigenvectors                 ... done (   0.0 sec)
Now organizing SCF variables                       ... done
                      ------------------
                      INITIAL GUESS DONE (   0.6 sec)
                      ------------------
-------------------
DFT GRID GENERATION
-------------------

General Integration Accuracy     IntAcc      ... 4.388
Radial Grid Type                 RadialGrid  ... OptM3 with GC (2021)
Angular Grid (max. ang.)         AngularGrid ... 4 (Lebedev-302)
Angular grid pruning method      GridPruning ... 4 (adaptive)
Weight generation scheme         WeightScheme... Becke
Basis function cutoff            BFCut       ... 1.0000e-11
Integration weight cutoff        WCut        ... 1.0000e-14
Angular grids for H and He will be reduced by one unit
Partially contracted basis set               ... off
Rotationally invariant grid construction     ... off

Total number of grid points                  ...    76100
Total number of batches                      ...     1196
Average number of points per batch           ...       63
Average number of grid points per atom       ...     5073
Time for grid setup =    0.813 sec

--------------------
COSX GRID GENERATION
--------------------

GRIDX 1
-------
General Integration Accuracy     IntAcc      ... 3.816
Radial Grid Type                 RadialGrid  ... OptM3 with GC (2021)
Angular Grid (max. ang.)         AngularGrid ... 1 (Lebedev-50)
Angular grid pruning method      GridPruning ... 4 (adaptive)
Weight generation scheme         WeightScheme... Becke
Basis function cutoff            BFCut       ... 1.0000e-11
Integration weight cutoff        WCut        ... 1.0000e-14
Angular grids for H and He will be reduced by one unit
Partially contracted basis set               ... on
Rotationally invariant grid construction     ... off

Total number of grid points                  ...     9540
Total number of batches                      ...      158
Average number of points per batch           ...       60
Average number of grid points per atom       ...      636
UseSFitting                                  ... on

GRIDX 2
-------
General Integration Accuracy     IntAcc      ... 4.020
Radial Grid Type                 RadialGrid  ... OptM3 with GC (2021)
Angular Grid (max. ang.)         AngularGrid ... 2 (Lebedev-110)
Angular grid pruning method      GridPruning ... 4 (adaptive)
Weight generation scheme         WeightScheme... Becke
Basis function cutoff            BFCut       ... 1.0000e-11
Integration weight cutoff        WCut        ... 1.0000e-14
Angular grids for H and He will be reduced by one unit
Partially contracted basis set               ... on
Rotationally invariant grid construction     ... off

Total number of grid points                  ...    21114
Total number of batches                      ...      336
Average number of points per batch           ...       62
Average number of grid points per atom       ...     1408
UseSFitting                                  ... on

GRIDX 3
-------
General Integration Accuracy     IntAcc      ... 4.338
Radial Grid Type                 RadialGrid  ... OptM3 with GC (2021)
Angular Grid (max. ang.)         AngularGrid ... 3 (Lebedev-194)
Angular grid pruning method      GridPruning ... 4 (adaptive)
Weight generation scheme         WeightScheme... Becke
Basis function cutoff            BFCut       ... 1.0000e-11
Integration weight cutoff        WCut        ... 1.0000e-14
Angular grids for H and He will be reduced by one unit
Partially contracted basis set               ... on
Rotationally invariant grid construction     ... off

Total number of grid points                  ...    47615
Total number of batches                      ...      750
Average number of points per batch           ...       63
Average number of grid points per atom       ...     3174
UseSFitting                                  ... on

Time for X-Grid setup             =    1.096 sec


--------------------
CPCM SOLVATION MODEL
--------------------
CPCM parameters:
  Epsilon                                         ...      80.4000
  Refrac                                          ...       1.3300
  Rsolv                                           ...       1.3000
  Surface type                                    ... GAUSSIAN VDW
  Epsilon function type                           ...         CPCM
Radii:
 Radius for N  used is    3.5149 Bohr (=   1.8600 Ang.)
 Radius for C  used is    3.8550 Bohr (=   2.0400 Ang.)
 Radius for H  used is    2.4944 Bohr (=   1.3200 Ang.)
 Radius for Cl used is    3.9684 Bohr (=   2.1000 Ang.)
Calculating surface                               ...        done! (  0.0s)
GEPOL surface points                              ...          859
GEPOL Volume                                      ...    1187.2153
GEPOL Surface-area                                ...     661.5613
Calculating surface distance matrix               ...        done! (  0.0s)
Performing Cholesky decomposition & store         ...        done! (  0.0s)
Overall time for CPCM initialization              ...                 0.0s
--------------
SCF ITERATIONS
--------------
ITER       Energy         Delta-E        Max-DP      RMS-DP      [F,P]     Damp
               ***  Starting incremental Fock matrix formation  ***
  0  -1223.2935986520   0.000000000000 0.04136580  0.00075204  0.1194856 0.8500
  1  -1223.3167193128  -0.023120660757 0.04318791  0.00072972  0.0970673 0.8500
                               ***Turning on DIIS***
  2  -1223.3344863267  -0.017767013901 0.03676318  0.00060337  0.0752697 0.8500
  3  -1223.3477916013  -0.013305274595 0.02731607  0.00043571  0.0576516 0.8500
  4  -1223.3581349496  -0.010343348297 0.02110014  0.00033739  0.0460493 0.8500
  5  -1223.3663350512  -0.008200101640 0.01723171  0.00027901  0.0380789 0.8500
  6  -1223.3730331713  -0.006698120093 0.01447584  0.00023692  0.0320249 0.8500
  7  -1223.3785987943  -0.005565622977 0.08294019  0.00136729  0.0271304 0.0000
  8  -1223.4087033336  -0.030104539336 0.00140177  0.00006336  0.0011793 0.0000
                      *** Initiating the SOSCF procedure ***
                           *** Shutting down DIIS ***
                      *** Re-Reading the Fockian *** 
                      *** Removing any level shift *** 
ITER      Energy       Delta-E        Grad      Rot      Max-DP    RMS-DP
  9  -1223.40873192  -0.0000285853  0.000928  0.000928  0.000780  0.000038
               *** Restarting incremental Fock matrix formation ***
 10  -1223.40878661  -0.0000546877  0.000600  0.001414  0.000855  0.000029
 11  -1223.40879017  -0.0000035632  0.000195  0.001144  0.000768  0.000026
 12  -1223.40879120  -0.0000010332  0.000076  0.000164  0.000186  0.000006
 13  -1223.40879133  -0.0000001286  0.000010  0.000025  0.000082  0.000002
 14  -1223.40879133  -0.0000000017  0.000006  0.000017  0.000062  0.000001
                  ***Gradient check signals convergence***
              ***Rediagonalizing the Fockian in SOSCF/NRSCF***

               *****************************************************
               *                     SUCCESS                       *
               *           SCF CONVERGED AFTER  15 CYCLES          *
               *****************************************************

Old exchange energy                            =    -26.401044430 Eh
New exchange energy                            =    -26.401046197 Eh
Exchange energy change after final integration =     -0.000001767 Eh
Total energy after final integration           =  -1223.408793115 Eh
Final COS-X integration done in                =    23.007 sec

----------------
TOTAL SCF ENERGY
----------------

Total Energy       :        -1223.40879312 Eh          -33290.64572 eV

Components:
Nuclear Repulsion  :          606.79392025 Eh           16511.70201 eV
Electronic Energy  :        -1830.20271336 Eh          -49802.34773 eV
One Electron Energy:        -2885.25203035 Eh          -78511.69920 eV
Two Electron Energy:         1055.04931699 Eh           28709.35147 eV
Max COSX asymmetry :            0.00000306 Eh               0.00008 eV
CPCM Dielectric    :           -0.01102698 Eh              -0.30006 eV

Virial components:
Potential Energy   :        -2441.76155437 Eh          -66443.70983 eV
Kinetic Energy     :         1218.35276126 Eh           33153.06410 eV
Virial Ratio       :            2.00414989


DFT components:
N(Alpha)           :       41.999972937312 electrons
N(Beta)            :       41.999972937312 electrons
N(Total)           :       83.999945874625 electrons
E(XC)              :      -73.228613593697 Eh       
DFET-embed. en.    :        0.000000000000 Eh       
CPCM Solvation Model Properties:
Surface-charge          :           -0.01443525
Charge-correction       :           -0.00019074 Eh              -0.00519 eV
Free-energy (cav+disp)  :  This term is not implemented in the current solvation scheme

---------------
SCF CONVERGENCE
---------------

  Last Energy change         ...   -1.4579e-08  Tolerance :   1.0000e-08
  Last MAX-Density change    ...    3.5527e-15  Tolerance :   1.0000e-07
  Last RMS-Density change    ...    7.1611e-17  Tolerance :   5.0000e-09
  Last Orbital Gradient      ...    1.3585e-06  Tolerance :   1.0000e-05
  Last Orbital Rotation      ...    4.2947e-06  Tolerance :   1.0000e-05

             **** THE GBW FILE WAS UPDATED (3_deprot_aq_3.gbw) ****
             **** DENSITY 3_deprot_aq_3.scfp WAS UPDATED ****
             **** ENERGY FILE WAS UPDATED (3_deprot_aq_3.en.tmp) ****
             **** THE GBW FILE WAS UPDATED (3_deprot_aq_3.gbw) ****
             **** DENSITY 3_deprot_aq_3.scfp WAS UPDATED ****
----------------
ORBITAL ENERGIES
----------------

  NO   OCC          E(Eh)            E(eV) 
   0   2.0000    -101.502445     -2762.0219 
   1   2.0000    -101.502429     -2762.0215 
   2   2.0000     -14.472497      -393.8167 
   3   2.0000     -14.472489      -393.8164 
   4   2.0000     -10.361907      -281.9618 
   5   2.0000     -10.361369      -281.9472 
   6   2.0000     -10.304842      -280.4090 
   7   2.0000     -10.304812      -280.4082 
   8   2.0000     -10.291054      -280.0338 
   9   2.0000      -9.574868      -260.5454 
  10   2.0000      -9.574847      -260.5448 
  11   2.0000      -7.343948      -199.8390 
  12   2.0000      -7.343941      -199.8388 
  13   2.0000      -7.332671      -199.5321 
  14   2.0000      -7.332657      -199.5317 
  15   2.0000      -7.332559      -199.5291 
  16   2.0000      -7.332552      -199.5289 
  17   2.0000      -1.182189       -32.1690 
  18   2.0000      -1.073071       -29.1997 
  19   2.0000      -1.024658       -27.8824 
  20   2.0000      -0.991154       -26.9707 
  21   2.0000      -0.908323       -24.7167 
  22   2.0000      -0.835868       -22.7451 
  23   2.0000      -0.813394       -22.1336 
  24   2.0000      -0.716002       -19.4834 
  25   2.0000      -0.714126       -19.4324 
  26   2.0000      -0.641028       -17.4433 
  27   2.0000      -0.618458       -16.8291 
  28   2.0000      -0.581578       -15.8255 
  29   2.0000      -0.568030       -15.4569 
  30   2.0000      -0.563827       -15.3425 
  31   2.0000      -0.562780       -15.3140 
  32   2.0000      -0.518630       -14.1126 
  33   2.0000      -0.513764       -13.9802 
  34   2.0000      -0.500719       -13.6252 
  35   2.0000      -0.470927       -12.8146 
  36   2.0000      -0.455815       -12.4033 
  37   2.0000      -0.448478       -12.2037 
  38   2.0000      -0.441131       -12.0038 
  39   2.0000      -0.382628       -10.4118 
  40   2.0000      -0.333995        -9.0885 
  41   2.0000      -0.318747        -8.6736 
  42   0.0000       0.105431         2.8689 
  43   0.0000       0.109752         2.9865 
  44   0.0000       0.124977         3.4008 
  45   0.0000       0.168227         4.5777 
  46   0.0000       0.179364         4.8807 
  47   0.0000       0.181940         4.9508 
  48   0.0000       0.222053         6.0424 
  49   0.0000       0.236184         6.4269 
  50   0.0000       0.238880         6.5002 
  51   0.0000       0.247928         6.7465 
  52   0.0000       0.261919         7.1272 
  53   0.0000       0.274113         7.4590 
  54   0.0000       0.305444         8.3116 
  55   0.0000       0.322771         8.7830 
  56   0.0000       0.357805         9.7364 
  57   0.0000       0.397286        10.8107 
  58   0.0000       0.449840        12.2408 
  59   0.0000       0.452155        12.3038 
  60   0.0000       0.469774        12.7832 
  61   0.0000       0.500465        13.6183 
  62   0.0000       0.518631        14.1127 
  63   0.0000       0.539533        14.6814 
  64   0.0000       0.549735        14.9590 
  65   0.0000       0.603414        16.4197 
  66   0.0000       0.607643        16.5348 
  67   0.0000       0.614931        16.7331 
  68   0.0000       0.632333        17.2066 
  69   0.0000       0.651854        17.7378 
  70   0.0000       0.655862        17.8469 
  71   0.0000       0.671889        18.2830 
  72   0.0000       0.704339        19.1660 
  73   0.0000       0.722564        19.6620 
  74   0.0000       0.741358        20.1734 
  75   0.0000       0.755931        20.5699 
  76   0.0000       0.763682        20.7809 
  77   0.0000       0.772308        21.0156 
  78   0.0000       0.776240        21.1226 
  79   0.0000       0.778010        21.1707 
  80   0.0000       0.788316        21.4512 
  81   0.0000       0.800012        21.7694 
  82   0.0000       0.806750        21.9528 
  83   0.0000       0.814539        22.1647 
  84   0.0000       0.833679        22.6856 
  85   0.0000       0.863484        23.4966 
  86   0.0000       0.863884        23.5075 
  87   0.0000       0.873836        23.7783 
  88   0.0000       0.877375        23.8746 
  89   0.0000       0.891098        24.2480 
  90   0.0000       0.891823        24.2677 
  91   0.0000       0.940683        25.5973 
  92   0.0000       0.944532        25.7020 
  93   0.0000       0.946580        25.7577 
  94   0.0000       0.962405        26.1884 
  95   0.0000       0.965784        26.2803 
  96   0.0000       1.000243        27.2180 
  97   0.0000       1.049326        28.5536 
  98   0.0000       1.065305        28.9884 
  99   0.0000       1.089965        29.6595 
 100   0.0000       1.097067        29.8527 
 101   0.0000       1.126957        30.6660 
 102   0.0000       1.196213        32.5506 
 103   0.0000       1.211966        32.9793 
 104   0.0000       1.278486        34.7894 
 105   0.0000       1.281953        34.8837 
 106   0.0000       1.284813        34.9615 
 107   0.0000       1.343764        36.5657 
 108   0.0000       1.373098        37.3639 
 109   0.0000       1.441928        39.2369 
 110   0.0000       1.491350        40.5817 
 111   0.0000       1.510817        41.1114 
 112   0.0000       1.532797        41.7095 
 113   0.0000       1.599511        43.5249 
 114   0.0000       1.610142        43.8142 
 115   0.0000       1.634629        44.4805 
 116   0.0000       1.635834        44.5133 
 117   0.0000       1.643700        44.7274 
 118   0.0000       1.672747        45.5178 
 119   0.0000       1.724476        46.9254 
 120   0.0000       1.763051        47.9751 
 121   0.0000       1.790990        48.7353 
 122   0.0000       1.889959        51.4284 
 123   0.0000       1.890801        51.4513 
 124   0.0000       1.894279        51.5459 
 125   0.0000       1.900509        51.7155 
 126   0.0000       1.900816        51.7238 
 127   0.0000       1.933014        52.6000 
 128   0.0000       1.953370        53.1539 
 129   0.0000       2.042785        55.5870 
 130   0.0000       2.062566        56.1253 
 131   0.0000       2.120713        57.7075 
 132   0.0000       2.127706        57.8978 
 133   0.0000       2.129731        57.9529 
 134   0.0000       2.152526        58.5732 
 135   0.0000       2.189239        59.5722 
 136   0.0000       2.218990        60.3818 
 137   0.0000       2.237180        60.8768 
 138   0.0000       2.260843        61.5207 
 139   0.0000       2.347908        63.8898 
 140   0.0000       2.362128        64.2768 
 141   0.0000       2.371434        64.5300 
 142   0.0000       2.402756        65.3823 
 143   0.0000       2.426838        66.0376 
 144   0.0000       2.505585        68.1804 
 145   0.0000       2.546264        69.2874 
 146   0.0000       2.591104        70.5075 
 147   0.0000       2.606801        70.9347 
 148   0.0000       2.765473        75.2523 
 149   0.0000       2.768202        75.3266 
 150   0.0000       2.778676        75.6116 
 151   0.0000       2.831257        77.0424 
 152   0.0000       2.842483        77.3479 
 153   0.0000       2.861901        77.8763 
 154   0.0000       2.887490        78.5726 
 155   0.0000       3.014018        82.0156 
 156   0.0000       3.054502        83.1172 
 157   0.0000       3.059199        83.2450 
 158   0.0000       3.060132        83.2704 
 159   0.0000       3.089670        84.0742 
 160   0.0000       3.235925        88.0540 
 161   0.0000       3.267013        88.8999 
 162   0.0000       3.399174        92.4962 
 163   0.0000       3.435544        93.4859 

                    ********************************
                    * MULLIKEN POPULATION ANALYSIS *
                    ********************************

-----------------------
MULLIKEN ATOMIC CHARGES
-----------------------
   0 N :   -0.220269
   1 C :   -0.185999
   2 N :   -0.220312
   3 C :    0.082878
   4 C :    0.082825
   5 C :    0.106499
   6 C :    0.106520
   7 H :    0.054212
   8 H :    0.066293
   9 H :    0.065776
  10 H :    0.066158
  11 H :    0.054165
  12 H :    0.065890
  13 Cl:   -0.062308
  14 Cl:   -0.062327
Sum of atomic charges:   -0.0000000

--------------------------------
MULLIKEN REDUCED ORBITAL CHARGES
--------------------------------
  0 N s       :     3.392832  s :     3.392832
      pz      :     1.518456  p :     3.793588
      px      :     1.177723
      py      :     1.097409
      dz2     :     0.002313  d :     0.033849
      dxz     :     0.004611
      dyz     :     0.006117
      dx2y2   :     0.012038
      dxy     :     0.008770
  1 C s       :     3.619185  s :     3.619185
      pz      :     0.697211  p :     2.500775
      px      :     0.652522
      py      :     1.151043
      dz2     :     0.007850  d :     0.066040
      dxz     :     0.011766
      dyz     :     0.009886
      dx2y2   :     0.008108
      dxy     :     0.028430
  2 N s       :     3.392855  s :     3.392855
      pz      :     1.518484  p :     3.793610
      px      :     1.177723
      py      :     1.097404
      dz2     :     0.002313  d :     0.033847
      dxz     :     0.004610
      dyz     :     0.006117
      dx2y2   :     0.012037
      dxy     :     0.008770
  3 C s       :     3.024566  s :     3.024566
      pz      :     1.142109  p :     2.823023
      px      :     0.918177
      py      :     0.762737
      dz2     :     0.005357  d :     0.069534
      dxz     :     0.011360
      dyz     :     0.012092
      dx2y2   :     0.021846
      dxy     :     0.018878
  4 C s       :     3.024591  s :     3.024591
      pz      :     1.142125  p :     2.823044
      px      :     0.918190
      py      :     0.762729
      dz2     :     0.005357  d :     0.069540
      dxz     :     0.011360
      dyz     :     0.012094
      dx2y2   :     0.021849
      dxy     :     0.018880
  5 C s       :     2.982676  s :     2.982676
      pz      :     1.063906  p :     2.872155
      px      :     0.784838
      py      :     1.023411
      dz2     :     0.007278  d :     0.038669
      dxz     :     0.006205
      dyz     :     0.007277
      dx2y2   :     0.008495
      dxy     :     0.009414
  6 C s       :     2.982613  s :     2.982613
      pz      :     1.063907  p :     2.872194
      px      :     0.784855
      py      :     1.023432
      dz2     :     0.007277  d :     0.038673
      dxz     :     0.006203
      dyz     :     0.007283
      dx2y2   :     0.008492
      dxy     :     0.009418
  7 H s       :     0.920906  s :     0.920906
      pz      :     0.005100  p :     0.024882
      px      :     0.007780
      py      :     0.012003
  8 H s       :     0.910120  s :     0.910120
      pz      :     0.012607  p :     0.023587
      px      :     0.003014
      py      :     0.007967
  9 H s       :     0.910621  s :     0.910621
      pz      :     0.012141  p :     0.023603
      px      :     0.002950
      py      :     0.008512
 10 H s       :     0.910249  s :     0.910249
      pz      :     0.012502  p :     0.023593
      px      :     0.002999
      py      :     0.008092
 11 H s       :     0.920949  s :     0.920949
      pz      :     0.005096  p :     0.024886
      px      :     0.007779
      py      :     0.012011
 12 H s       :     0.910511  s :     0.910511
      pz      :     0.012251  p :     0.023599
      px      :     0.002965
      py      :     0.008383
 13 Cls       :     5.939373  s :     5.939373
      pz      :     3.935398  p :    11.081244
      px      :     3.644038
      py      :     3.501808
      dz2     :     0.006250  d :     0.041691
      dxz     :     0.004565
      dyz     :     0.006461
      dx2y2   :     0.005795
      dxy     :     0.018620
 14 Cls       :     5.939381  s :     5.939381
      pz      :     3.935385  p :    11.081246
      px      :     3.644171
      py      :     3.501690
      dz2     :     0.006251  d :     0.041700
      dxz     :     0.004566
      dyz     :     0.006465
      dx2y2   :     0.005799
      dxy     :     0.018619


                     *******************************
                     * LOEWDIN POPULATION ANALYSIS *
                     *******************************

----------------------
LOEWDIN ATOMIC CHARGES
----------------------
   0 N :    0.024566
   1 C :   -0.289404
   2 N :    0.024545
   3 C :   -0.176976
   4 C :   -0.177024
   5 C :    0.033560
   6 C :    0.033544
   7 H :    0.026810
   8 H :    0.039329
   9 H :    0.039491
  10 H :    0.039359
  11 H :    0.026778
  12 H :    0.039452
  13 Cl:    0.157971
  14 Cl:    0.157995

-------------------------------
LOEWDIN REDUCED ORBITAL CHARGES
-------------------------------
  0 N s       :     3.058665  s :     3.058665
      pz      :     1.444663  p :     3.837844
      px      :     1.204232
      py      :     1.188949
      dz2     :     0.004413  d :     0.078925
      dxz     :     0.007616
      dyz     :     0.011940
      dx2y2   :     0.030686
      dxy     :     0.024270
  1 C s       :     3.202627  s :     3.202627
      pz      :     0.751438  p :     2.944582
      px      :     0.813830
      py      :     1.379314
      dz2     :     0.017878  d :     0.142195
      dxz     :     0.025793
      dyz     :     0.013816
      dx2y2   :     0.018845
      dxy     :     0.065863
  2 N s       :     3.058670  s :     3.058670
      pz      :     1.444693  p :     3.837863
      px      :     1.204222
      py      :     1.188949
      dz2     :     0.004412  d :     0.078921
      dxz     :     0.007615
      dyz     :     0.011939
      dx2y2   :     0.030685
      dxy     :     0.024270
  3 C s       :     2.886771  s :     2.886771
      pz      :     1.147506  p :     3.129739
      px      :     1.045555
      py      :     0.936678
      dz2     :     0.011317  d :     0.160466
      dxz     :     0.022831
      dyz     :     0.023742
      dx2y2   :     0.059532
      dxy     :     0.043044
  4 C s       :     2.886754  s :     2.886754
      pz      :     1.147522  p :     3.129789
      px      :     1.045559
      py      :     0.936708
      dz2     :     0.011318  d :     0.160481
      dxz     :     0.022830
      dyz     :     0.023745
      dx2y2   :     0.059540
      dxy     :     0.043047
  5 C s       :     2.822864  s :     2.822864
      pz      :     1.095071  p :     3.046834
      px      :     0.883397
      py      :     1.068366
      dz2     :     0.017931  d :     0.096742
      dxz     :     0.014247
      dyz     :     0.020066
      dx2y2   :     0.020166
      dxy     :     0.024333
  6 C s       :     2.822834  s :     2.822834
      pz      :     1.095071  p :     3.046869
      px      :     0.883405
      py      :     1.068392
      dz2     :     0.017927  d :     0.096753
      dxz     :     0.014240
      dyz     :     0.020084
      dx2y2   :     0.020158
      dxy     :     0.024344
  7 H s       :     0.903773  s :     0.903773
      pz      :     0.013749  p :     0.069417
      px      :     0.022392
      py      :     0.033276
  8 H s       :     0.894246  s :     0.894246
      pz      :     0.034105  p :     0.066425
      px      :     0.010349
      py      :     0.021971
  9 H s       :     0.894020  s :     0.894020
      pz      :     0.032829  p :     0.066489
      px      :     0.010160
      py      :     0.023500
 10 H s       :     0.894198  s :     0.894198
      pz      :     0.033817  p :     0.066443
      px      :     0.010305
      py      :     0.022320
 11 H s       :     0.903791  s :     0.903791
      pz      :     0.013738  p :     0.069431
      px      :     0.022391
      py      :     0.033301
 12 H s       :     0.894077  s :     0.894077
      pz      :     0.033128  p :     0.066471
      px      :     0.010205
      py      :     0.023137
 13 Cls       :     5.734927  s :     5.734927
      pz      :     3.914895  p :    11.058053
      px      :     3.638611
      py      :     3.504547
      dz2     :     0.007270  d :     0.049049
      dxz     :     0.005379
      dyz     :     0.007544
      dx2y2   :     0.006600
      dxy     :     0.022256
 14 Cls       :     5.734887  s :     5.734887
      pz      :     3.914877  p :    11.058057
      px      :     3.638732
      py      :     3.504448
      dz2     :     0.007271  d :     0.049061
      dxz     :     0.005380
      dyz     :     0.007549
      dx2y2   :     0.006605
      dxy     :     0.022257


                      *****************************
                      * MAYER POPULATION ANALYSIS *
                      *****************************

  NA   - Mulliken gross atomic population
  ZA   - Total nuclear charge
  QA   - Mulliken gross atomic charge
  VA   - Mayer's total valence
  BVA  - Mayer's bonded valence
  FA   - Mayer's free valence

  ATOM       NA         ZA         QA         VA         BVA        FA
  0 N      7.2203     7.0000    -0.2203     3.4037     3.4037    -0.0000
  1 C      6.1860     6.0000    -0.1860     2.6830     2.6830    -0.0000
  2 N      7.2203     7.0000    -0.2203     3.4036     3.4036     0.0000
  3 C      5.9171     6.0000     0.0829     3.9367     3.9367    -0.0000
  4 C      5.9172     6.0000     0.0828     3.9367     3.9367    -0.0000
  5 C      5.8935     6.0000     0.1065     3.8697     3.8697    -0.0000
  6 C      5.8935     6.0000     0.1065     3.8697     3.8697    -0.0000
  7 H      0.9458     1.0000     0.0542     1.0191     1.0191    -0.0000
  8 H      0.9337     1.0000     0.0663     0.9997     0.9997    -0.0000
  9 H      0.9342     1.0000     0.0658     1.0008     1.0008    -0.0000
 10 H      0.9338     1.0000     0.0662     0.9999     0.9999    -0.0000
 11 H      0.9458     1.0000     0.0542     1.0191     1.0191    -0.0000
 12 H      0.9341     1.0000     0.0659     1.0005     1.0005    -0.0000
 13 Cl    17.0623    17.0000    -0.0623     1.1924     1.1924    -0.0000
 14 Cl    17.0623    17.0000    -0.0623     1.1924     1.1924     0.0000

  Mayer bond orders larger than 0.100000
B(  0-N ,  1-C ) :   1.2299 B(  0-N ,  4-C ) :   1.1506 B(  0-N ,  5-C ) :   0.9285 
B(  1-C ,  2-N ) :   1.2298 B(  2-N ,  3-C ) :   1.1506 B(  2-N ,  6-C ) :   0.9286 
B(  3-C ,  4-C ) :   1.5676 B(  3-C , 13-Cl) :   1.0735 B(  4-C , 14-Cl) :   1.0735 
B(  5-C ,  7-H ) :   0.9695 B(  5-C ,  8-H ) :   0.9774 B(  5-C ,  9-H ) :   0.9770 
B(  6-C , 10-H ) :   0.9773 B(  6-C , 11-H ) :   0.9695 B(  6-C , 12-H ) :   0.9771 


-------
TIMINGS
-------

Total SCF time: 0 days 0 hours 2 min 37 sec 

Total time                  ....     157.421 sec
Sum of individual times     ....     157.069 sec  ( 99.8%)

Fock matrix formation       ....     154.412 sec  ( 98.1%)
  Split-RI-J                ....       5.946 sec  (  3.9% of F)
  Chain of spheres X        ....     123.885 sec  ( 80.2% of F)
  XC integration            ....      16.147 sec  ( 10.5% of F)
    Basis function eval.    ....       5.786 sec  ( 35.8% of XC)
    Density eval.           ....       3.419 sec  ( 21.2% of XC)
    XC-Functional eval.     ....       2.687 sec  ( 16.6% of XC)
    XC-Potential eval.      ....       3.739 sec  ( 23.2% of XC)
Diagonalization             ....       0.050 sec  (  0.0%)
Density matrix formation    ....       0.009 sec  (  0.0%)
Population analysis         ....       0.008 sec  (  0.0%)
Initial guess               ....       0.444 sec  (  0.3%)
Orbital Transformation      ....       0.000 sec  (  0.0%)
Orbital Orthonormalization  ....       0.000 sec  (  0.0%)
DIIS solution               ....       0.016 sec  (  0.0%)
SOSCF solution              ....       0.022 sec  (  0.0%)
Grid generation             ....       2.108 sec  (  1.3%)

Maximum memory used throughout the entire SCF-calculation: 72.1 MB


-------------------------------------------------------------------------------
                          DFT DISPERSION CORRECTION                            
                                                                               
                                 DFTD4 V2.5                                    
-------------------------------------------------------------------------------
The WB97X functional is recognized
Active option DFTDOPT                   ...         5   

Starting D4
-------------------------   ----------------
Dispersion correction           -0.002555610
-------------------------   ----------------


-------------------------   --------------------
FINAL SINGLE POINT ENERGY     -1223.411348724816
-------------------------   --------------------

------------------------------------------------------------------------------
                         ORCA SCF GRADIENT CALCULATION
------------------------------------------------------------------------------

 ... reading COSX grid (gridx3)
Gradient of the Kohn-Sham DFT energy:
Kohn-Sham wavefunction type      ... RKS
Hartree-Fock exchange scaling    ...    0.158
Number of operators              ...    1
Number of atoms                  ...   15
Basis set dimensions             ...  164
Integral neglect threshold       ... 2.5e-11
Integral primitive cutoff        ... 2.5e-12
SHARK Integral package           ... ON

Nuc. rep. gradient       (SHARK) ... done (  0.0 sec)
HCore & Overlap gradient (SHARK) ... done (  0.2 sec)
RI-J gradient            (SHARK) ... done (  1.4 sec)
COSX-gradient                    ... done ( 24.9 sec)
Exchange-correlation gradient    ... done
Dispersion correction            ... Starting D4


------------------- 
Dispersion Gradient 
------------------- 
   1  :   -0.000012016   -0.000006887   -0.000000015
   2  :   -0.000000002   -0.000013452   -0.000000007
   3  :    0.000012013   -0.000006885   -0.000000013
   4  :    0.000007781    0.000003515   -0.000000007
   5  :   -0.000007778    0.000003513   -0.000000005
   6  :   -0.000044616   -0.000018524    0.000000030
   7  :    0.000044618   -0.000018521    0.000000021
   8  :   -0.000006577   -0.000002054    0.000000005
   9  :   -0.000008196   -0.000005434    0.000000876
  10  :   -0.000008213   -0.000005524   -0.000000864
  11  :    0.000008201   -0.000005457    0.000000876
  12  :    0.000006576   -0.000002052    0.000000002
  13  :    0.000008209   -0.000005503   -0.000000866
  14  :    0.000036741    0.000041631   -0.000000011
  15  :   -0.000036740    0.000041633   -0.000000021

  |G| =    0.000109673

done

------------------
CARTESIAN GRADIENT
------------------

   1   N   :   -0.011344487   -0.000628481    0.000079786
   2   C   :   -0.000035952    0.010586020    0.000084539
   3   N   :    0.011386301   -0.000590237    0.000030913
   4   C   :    0.004876586   -0.011302514   -0.000052938
   5   C   :   -0.004915542   -0.011317102   -0.000039510
   6   C   :    0.003686896    0.004816913   -0.000202741
   7   C   :   -0.003707608    0.004853316   -0.000084406
   8   H   :    0.004151370   -0.003567225    0.000167627
   9   H   :    0.001771522    0.002099251   -0.004968729
  10   H   :    0.001665825    0.002413321    0.004903388
  11   H   :   -0.001725290    0.002183499   -0.004972491
  12   H   :   -0.004174194   -0.003593235    0.000103882
  13   H   :   -0.001691886    0.002326623    0.004914180
  14   Cl  :    0.002879588    0.000714157   -0.000000553
  15   Cl  :   -0.002827489    0.000692697   -0.000002041

Difference to translation invariance:
           :   -0.0000043594   -0.0003129977   -0.0000390937

Difference to rotation invariance:
           :    0.0000199649   -0.0000858827   -0.0000144690

Norm of the cartesian gradient     ...    0.0309267700
RMS gradient                       ...    0.0046102907
MAX gradient                       ...    0.0113863014

-------
TIMINGS
-------

Total SCF gradient time            ...       32.599 sec

One electron gradient       ....       0.202 sec  (  0.6%)
RI-J Coulomb gradient       ....       1.437 sec  (  4.4%)
COSX gradient               ....      24.944 sec  ( 76.5%)
XC gradient                 ....       4.650 sec  ( 14.3%)
CPCM gradient               ....       0.458 sec  (  1.4%)
   A-Matrix (El+Nuc)        ....       0.037 sec  (  0.1%)
   Potential                ....       0.421 sec  (  1.3%)

Maximum memory used throughout the entire SCFGRAD-calculation: 58.5 MB
------------------------------------------------------------------------------
                         ORCA GEOMETRY RELAXATION STEP
------------------------------------------------------------------------------

Reading the OPT-File                    .... done
Getting information on internals        .... done
Copying old internal coords+grads       .... done
Making the new internal coordinates     .... (new redundants).... done
Validating the new internal coordinates .... (new redundants).... done
Calculating the B-matrix                .... done
Calculating the G,G- and P matrices     .... done
Transforming gradient to internals      .... done
Projecting the internal gradient        .... done
Number of atoms                         ....  15
Number of internal coordinates          ....  68
Current Energy                          .... -1223.411348725 Eh
Current gradient norm                   ....     0.030926770 Eh/bohr
Maximum allowed component of the step   ....  0.300
Current trust radius                    ....  0.300
Evaluating the initial hessian          ....  (Almloef) done
Projecting the Hessian                  .... done
Forming the augmented Hessian           .... done
Diagonalizing the augmented Hessian     .... done
Last element of RFO vector              ....  0.997763872
Lowest eigenvalues of augmented Hessian:
 -0.001960337  0.018803394  0.018808207  0.023387380  0.024356986
Length of the computed step             ....  0.066987320
The final length of the internal step   ....  0.066987320
Converting the step to cartesian space:
 Initial RMS(Int)=    0.0081234058
Transforming coordinates:
 Iter   0:  RMS(Cart)=    0.0164160250 RMS(Int)=    0.0081223721
 Iter   1:  RMS(Cart)=    0.0000557433 RMS(Int)=    0.0000237696
 Iter   2:  RMS(Cart)=    0.0000004788 RMS(Int)=    0.0000002091
 Iter   3:  RMS(Cart)=    0.0000000032 RMS(Int)=    0.0000000015
done
Storing new coordinates                 .... done

                                .--------------------.
          ----------------------|Geometry convergence|-------------------------
          Item                value                   Tolerance       Converged
          ---------------------------------------------------------------------
          RMS gradient        0.0036547661            0.0001000000      NO
          MAX gradient        0.0125758031            0.0003000000      NO
          RMS step            0.0081234058            0.0020000000      NO
          MAX step            0.0266910575            0.0040000000      NO
          ........................................................
          Max(Bonds)      0.0141      Max(Angles)    0.62
          Max(Dihed)        0.28      Max(Improp)    0.00
          ---------------------------------------------------------------------

The optimization has not yet converged - more geometry cycles are needed


    ---------------------------------------------------------------------------
                         Redundant Internal Coordinates
                            (Angstroem and degrees)

        Definition                    Value    dE/dq     Step     New-Value
    ----------------------------------------------------------------------------
     1. B(C   1,N   0)                1.3564 -0.002546  0.0022    1.3586   
     2. B(N   2,C   1)                1.3564 -0.002502  0.0022    1.3586   
     3. B(C   3,N   2)                1.3724 -0.010375  0.0091    1.3815   
     4. B(C   4,C   3)                1.3637  0.006918 -0.0054    1.3582   
     5. B(C   4,N   0)                1.3724 -0.010352  0.0091    1.3815   
     6. B(C   5,N   0)                1.4380 -0.012553  0.0141    1.4521   
     7. B(C   6,N   2)                1.4380 -0.012576  0.0141    1.4521   
     8. B(H   7,C   5)                1.0882 -0.005355  0.0078    1.0959   
     9. B(H   8,C   5)                1.0904 -0.005548  0.0081    1.0985   
    10. B(H   9,C   5)                1.0901 -0.005600  0.0082    1.0982   
    11. B(H  10,C   6)                1.0903 -0.005578  0.0082    1.0984   
    12. B(H  11,C   6)                1.0881 -0.005388  0.0078    1.0959   
    13. B(H  12,C   6)                1.0901 -0.005574  0.0082    1.0983   
    14. B(Cl 13,C   3)                1.7096  0.002383 -0.0029    1.7067   
    15. B(Cl 14,C   4)                1.7095  0.002333 -0.0028    1.7067   
    16. A(C   1,N   0,C   5)          123.66  0.004100   -0.57    123.09   
    17. A(C   4,N   0,C   5)          125.19 -0.001022    0.15    125.34   
    18. A(C   1,N   0,C   4)          111.15 -0.003078    0.42    111.57   
    19. A(N   0,C   1,N   2)          104.58  0.005002   -0.62    103.96   
    20. A(C   1,N   2,C   3)          111.15 -0.003067    0.42    111.57   
    21. A(C   1,N   2,C   6)          123.66  0.004113   -0.57    123.09   
    22. A(C   3,N   2,C   6)          125.19 -0.001046    0.15    125.34   
    23. A(C   4,C   3,Cl 13)          128.98  0.002589   -0.33    128.65   
    24. A(N   2,C   3,C   4)          106.56  0.000562   -0.11    106.45   
    25. A(N   2,C   3,Cl 13)          124.46 -0.003150    0.44    124.90   
    26. A(N   0,C   4,Cl 14)          124.47 -0.003116    0.44    124.91   
    27. A(N   0,C   4,C   3)          106.57  0.000581   -0.11    106.45   
    28. A(C   3,C   4,Cl 14)          128.96  0.002535   -0.32    128.64   
    29. A(H   8,C   5,H   9)          108.55 -0.000251    0.19    108.74   
    30. A(H   7,C   5,H   9)          109.56  0.001188   -0.29    109.26   
    31. A(N   0,C   5,H   9)          109.82 -0.000514    0.12    109.95   
    32. A(H   7,C   5,H   8)          109.50  0.001178   -0.28    109.21   
    33. A(N   0,C   5,H   8)          109.93 -0.000566    0.14    110.07   
    34. A(N   0,C   5,H   7)          109.48 -0.001013    0.12    109.60   
    35. A(H  11,C   6,H  12)          109.55  0.001193   -0.29    109.25   
    36. A(H  10,C   6,H  12)          108.54 -0.000263    0.19    108.74   
    37. A(N   2,C   6,H  12)          109.85 -0.000530    0.13    109.98   
    38. A(H  10,C   6,H  11)          109.50  0.001162   -0.28    109.21   
    39. A(N   2,C   6,H  11)          109.47 -0.001024    0.12    109.59   
    40. A(N   2,C   6,H  10)          109.92 -0.000515    0.13    110.04   
    41. D(N   2,C   1,N   0,C   5)   -179.89 -0.000028    0.06   -179.83   
    42. D(N   2,C   1,N   0,C   4)     -0.02 -0.000019    0.03      0.01   
    43. D(C   3,N   2,C   1,N   0)      0.01  0.000014   -0.02     -0.01   
    44. D(C   6,N   2,C   1,N   0)    179.95  0.000020   -0.04    179.91   
    45. D(Cl 13,C   3,N   2,C   1)   -179.98 -0.000003    0.01   -179.98   
    46. D(C   4,C   3,N   2,C   6)   -179.93 -0.000015    0.02   -179.91   
    47. D(Cl 13,C   3,N   2,C   6)      0.09 -0.000014    0.02      0.11   
    48. D(C   4,C   3,N   2,C   1)     -0.00 -0.000004    0.01      0.01   
    49. D(N   0,C   4,C   3,Cl 13)    179.97 -0.000010    0.01    179.98   
    50. D(N   0,C   4,C   3,N   2)     -0.01 -0.000008    0.01      0.00   
    51. D(Cl 14,C   4,N   0,C   5)     -0.13  0.000021   -0.04     -0.17   
    52. D(C   3,C   4,N   0,C   5)    179.89  0.000033   -0.06    179.83   
    53. D(Cl 14,C   4,N   0,C   1)    180.00  0.000003   -0.01    179.99   
    54. D(Cl 14,C   4,C   3,N   2)   -179.99  0.000007   -0.01   -180.00   
    55. D(Cl 14,C   4,C   3,Cl 13)     -0.01  0.000004   -0.01     -0.02   
    56. D(C   3,C   4,N   0,C   1)      0.02  0.000015   -0.03     -0.01   
    57. D(H   9,C   5,N   0,C   4)    122.00  0.000465   -0.12    121.88   
    58. D(H   9,C   5,N   0,C   1)    -58.15  0.000474   -0.14    -58.29   
    59. D(H   8,C   5,N   0,C   4)   -118.64 -0.000511    0.28   -118.36   
    60. D(H   8,C   5,N   0,C   1)     61.21 -0.000501    0.25     61.46   
    61. D(H   7,C   5,N   0,C   4)      1.68 -0.000046    0.09      1.77   
    62. D(H   7,C   5,N   0,C   1)   -178.47 -0.000036    0.06   -178.41   
    63. D(H  12,C   6,N   2,C   3)   -121.22 -0.000473    0.15   -121.07   
    64. D(H  12,C   6,N   2,C   1)     58.86 -0.000479    0.17     59.03   
    65. D(H  11,C   6,N   2,C   3)     -0.90  0.000027   -0.05     -0.95   
    66. D(H  11,C   6,N   2,C   1)    179.18  0.000021   -0.03    179.15   
    67. D(H  10,C   6,N   2,C   3)    119.41  0.000497   -0.24    119.16   
    68. D(H  10,C   6,N   2,C   1)    -60.51  0.000490   -0.22    -60.74   
    ----------------------------------------------------------------------------

         *************************************************************
         *                GEOMETRY OPTIMIZATION CYCLE   2            *
         *************************************************************
---------------------------------
CARTESIAN COORDINATES (ANGSTROEM)
---------------------------------
  N     -1.070362   -1.175572   -0.001512
  C     -0.000019   -2.012372   -0.002067
  N      1.070321   -1.175536   -0.001005
  C      0.679059    0.149371   -0.000048
  C     -0.679175    0.149335   -0.000371
  C     -2.444241   -1.645709    0.001248
  C      2.444195   -1.645655    0.000878
  H     -3.126215   -0.788307   -0.027481
  H     -2.639820   -2.232875    0.908806
  H     -2.624393   -2.281502   -0.875928
  H      2.635976   -2.244456    0.901555
  H      3.126159   -0.787893   -0.013925
  H      2.628354   -2.270049   -0.883695
  Cl     1.744907    1.482355    0.000827
  Cl    -1.744991    1.482312    0.000369

----------------------------
CARTESIAN COORDINATES (A.U.)
----------------------------
  NO LB      ZA    FRAG     MASS         X           Y           Z
   0 N     7.0000    0    14.007   -2.022690   -2.221508   -0.002857
   1 C     6.0000    0    12.011   -0.000035   -3.802832   -0.003906
   2 N     7.0000    0    14.007    2.022613   -2.221442   -0.001898
   3 C     6.0000    0    12.011    1.283236    0.282271   -0.000091
   4 C     6.0000    0    12.011   -1.283455    0.282202   -0.000702
   5 C     6.0000    0    12.011   -4.618946   -3.109939    0.002358
   6 C     6.0000    0    12.011    4.618860   -3.109838    0.001659
   7 H     1.0000    0     1.008   -5.907690   -1.489685   -0.051932
   8 H     1.0000    0     1.008   -4.988537   -4.219522    1.717395
   9 H     1.0000    0     1.008   -4.959385   -4.311414   -1.655264
  10 H     1.0000    0     1.008    4.981273   -4.241407    1.703693
  11 H     1.0000    0     1.008    5.907583   -1.488901   -0.026314
  12 H     1.0000    0     1.008    4.966869   -4.289771   -1.669942
  13 Cl   17.0000    0    35.453    3.297396    2.801246    0.001563
  14 Cl   17.0000    0    35.453   -3.297555    2.801164    0.000697

--------------------------------
INTERNAL COORDINATES (ANGSTROEM)
--------------------------------
 N      0   0   0     0.000000000000     0.00000000     0.00000000
 C      1   0   0     1.358627496642     0.00000000     0.00000000
 N      2   1   0     1.358646902850   103.96170024     0.00000000
 C      3   2   1     1.381472388272   111.56727783     0.00000000
 C      4   3   2     1.358234603422   106.45096219     0.00000000
 C      1   2   3     1.452095400992   123.09069159   180.16669198
 C      3   2   1     1.452083742503   123.09009018   179.90527799
 H      6   1   2     1.095924873797   109.59774014   181.59032076
 H      6   1   2     1.098488779684   110.06481964    61.46467854
 H      6   1   2     1.098237572181   109.94502337   301.70539738
 H      7   3   2     1.098436440384   110.04422104   299.26087438
 H      7   3   2     1.095924280255   109.59329704   179.14701906
 H      7   3   2     1.098294335194   109.97804678    59.02613457
 Cl     4   3   2     1.706715703611   124.90184513   180.02433308
 Cl     5   4   3     1.706690603831   128.64341956   180.00267765

---------------------------
INTERNAL COORDINATES (A.U.)
---------------------------
 N      0   0   0     0.000000000000     0.00000000     0.00000000
 C      1   0   0     2.567433886669     0.00000000     0.00000000
 N      2   1   0     2.567470559087   103.96170024     0.00000000
 C      3   2   1     2.610604475408   111.56727783     0.00000000
 C      4   3   2     2.566691426083   106.45096219     0.00000000
 C      1   2   3     2.744062628201   123.09069159   180.16669198
 C      3   2   1     2.744040596850   123.09009018   179.90527799
 H      6   1   2     2.070997874829   109.59774014   181.59032076
 H      6   1   2     2.075842954787   110.06481964    61.46467854
 H      6   1   2     2.075368241405   109.94502337   301.70539738
[...]
      1       0.038980   0.024270  -0.001626  -0.002443  -0.056204   0.028077
      2      -0.001495  -0.002903  -0.017782   0.000697   0.004494   0.002135
      3      -0.028959   0.001163   0.009736  -0.006009  -0.002612   0.072859
      4      -0.000105  -0.011240  -0.011086  -0.005526  -0.080563  -0.000505
      5       0.000094   0.000529   0.001911   0.001762  -0.000723  -0.000080
      6       0.052986  -0.048255   0.017528   0.018858   0.220033  -0.059121
      7      -0.038638   0.025733  -0.004372  -0.000805  -0.055185  -0.028030
      8       0.000753  -0.001567  -0.000834  -0.017907   0.002656  -0.001183
      9      -0.022173  -0.006504   0.007342   0.001154   0.038754   0.011472
     10       0.034753  -0.014493   0.006870   0.006091   0.105089  -0.005978
     11       0.000014  -0.000064  -0.000274   0.000328   0.000211   0.000033
     12      -0.021937   0.007593  -0.002843  -0.003936  -0.039791   0.011086
     13      -0.034771  -0.012707   0.011301   0.003283   0.103985   0.006617
     14      -0.000035  -0.000012   0.000318  -0.000314   0.000104  -0.000022
     15      -0.104346  -0.098744   0.018305   0.005225   0.030556  -0.018383
     16      -0.058210  -0.052124   0.011955   0.001786   0.032648   0.016158
     17      -0.002314  -0.006173  -0.046334   0.002475   0.009948   0.004816
     18      -0.100945   0.102670  -0.011804  -0.009156  -0.030821  -0.017668
     19       0.056706  -0.054648   0.004630   0.006317   0.033882  -0.016151
     20       0.001195  -0.003295  -0.001527  -0.046707   0.005859  -0.002645
     21       0.280977   0.279161   0.030280  -0.008369   0.339328   0.348880
     22       0.249942   0.252517   0.047855  -0.010476   0.260172   0.293623
     23       0.046247   0.101749   0.693447  -0.034359  -0.173027  -0.096953
     24       0.289096   0.250079  -0.459133   0.016966   0.361600   0.140736
     25       0.170140   0.160380   0.151555  -0.007404  -0.213271  -0.344140
     26       0.218602   0.198418  -0.043171  -0.001663  -0.078364  -0.185630
     27       0.361737   0.390229   0.395610  -0.024788   0.147981   0.018845
     28       0.123348   0.077054  -0.316627   0.016460  -0.093517  -0.271959
     29      -0.217677  -0.189320   0.127054  -0.002643   0.073947   0.197731
     30       0.295053  -0.293915   0.028815   0.447366  -0.317811   0.106958
     31      -0.156566   0.151806   0.007390   0.193094  -0.207243   0.325964
     32      -0.213711   0.209384  -0.007674  -0.004781  -0.092952   0.190291
     33       0.271170  -0.286755   0.013912  -0.019106  -0.356272   0.342273
     34      -0.239390   0.256009  -0.015541   0.027577   0.278935  -0.290625
     35      -0.023815   0.055029   0.025488   0.702693  -0.101202   0.052296
     36       0.331916  -0.369530  -0.003169  -0.417026  -0.193049   0.041520
     37      -0.132828   0.106869  -0.009252  -0.283768  -0.137251   0.287328
     38       0.213410  -0.204808   0.010446   0.086014   0.089847  -0.196022
     39      -0.000031   0.000445  -0.000608  -0.000249  -0.006084  -0.000628
     40      -0.000964   0.000469  -0.000719  -0.000585  -0.009495   0.000971
     41      -0.000051  -0.000023   0.000082  -0.000107  -0.000029  -0.000028
     42      -0.000026  -0.000433   0.000493   0.000317   0.006118  -0.000581
     43       0.000963   0.000408  -0.001103  -0.000347  -0.009384  -0.001043
     44       0.000043  -0.000003  -0.000080   0.000101  -0.000002   0.000029
                 36         37         38         39         40         41    
      0       0.198804   0.034164  -0.122048   0.000134  -0.000476  -0.000058
      1       0.113189   0.104830   0.024065  -0.000548  -0.000135  -0.000018
      2      -0.000472   0.000575   0.000515   0.000032   0.000025  -0.000497
      3      -0.180024   0.005542   0.000011  -0.001520   0.000028  -0.000010
      4      -0.004429  -0.062147  -0.026101   0.000008   0.000446  -0.000007
      5      -0.000095  -0.000256  -0.000056   0.000003   0.000012  -0.000167
      6       0.192449  -0.046356   0.122025   0.000151   0.000470   0.000021
      7      -0.097378   0.111982   0.024052   0.000543  -0.000156  -0.000016
      8       0.000307   0.000396   0.000321  -0.000019   0.000012  -0.000338
      9      -0.054532   0.010009  -0.686040   0.000017   0.000310  -0.000005
     10       0.138849  -0.066952  -0.063242   0.000602  -0.000848  -0.000000
     11       0.000183  -0.000092  -0.000221   0.000002  -0.000007   0.000112
     12      -0.055601  -0.006531   0.686049   0.000006  -0.000310   0.000005
     13      -0.148142  -0.057677  -0.063224  -0.000634  -0.000825  -0.000015
     14      -0.000190  -0.000064   0.000016  -0.000006  -0.000009   0.000199
     15      -0.033835  -0.025146   0.022919   0.031049   0.030039   0.001369
     16      -0.007895  -0.003651  -0.011455   0.017540   0.016971  -0.001021
     17       0.000184   0.001805  -0.000600  -0.001127  -0.001083   0.081675
     18      -0.029870   0.027197  -0.022913   0.029898  -0.031173  -0.000498
     19       0.007024  -0.003853  -0.011438  -0.016918   0.017642  -0.000425
     20       0.000034   0.000988  -0.000341   0.000596  -0.000616   0.050311
     21       0.028154   0.279381   0.076915  -0.221076  -0.213304  -0.027431
     22       0.036691   0.227946   0.025428   0.282402   0.271967   0.035217
     23      -0.007428  -0.043359  -0.001876  -0.011216  -0.010796   0.006507
     24      -0.291619  -0.068019   0.008425  -0.074274  -0.071884   0.100411
     25      -0.294251  -0.336293  -0.022443  -0.233425  -0.224925   0.323274
     26      -0.230823  -0.212300  -0.006897   0.374226   0.360286  -0.503655
     27      -0.305316  -0.125405  -0.002108  -0.065322  -0.063242  -0.087996
     28      -0.278024  -0.299510  -0.023963  -0.248834  -0.239745  -0.345386
     29       0.244181   0.228090   0.009328  -0.349910  -0.336867  -0.470312
     30      -0.281881   0.100565  -0.005944  -0.069391   0.072381  -0.059952
     31       0.243850  -0.349790  -0.022833   0.228860  -0.237655   0.202826
     32       0.203438  -0.234248  -0.007520  -0.355102   0.368438  -0.305614
     33      -0.011339  -0.283449  -0.076915  -0.212879   0.221355   0.009382
     34      -0.004510   0.233339   0.025468  -0.272131   0.282441   0.012049
     35       0.000511  -0.023726  -0.001005   0.005454  -0.005655   0.004597
     36      -0.284366   0.131855  -0.000328  -0.065049   0.067867   0.056084
     37       0.238420  -0.329729  -0.023671   0.236089  -0.245151  -0.209482
     38      -0.209260   0.242784   0.008785   0.342723  -0.355594  -0.294719
     39      -0.000881   0.002272   0.024638  -0.000060   0.000103   0.000002
     40      -0.006328   0.002425   0.020814   0.000049  -0.000011  -0.000004
     41       0.000015   0.000010   0.000027   0.000002  -0.000000   0.000003
     42      -0.001221  -0.002200  -0.024639  -0.000064  -0.000101  -0.000009
     43       0.006669   0.002017   0.020814  -0.000049  -0.000009  -0.000011
     44      -0.000007   0.000015   0.000026  -0.000002  -0.000001   0.000007
                 42         43         44    
      0       0.000035   0.000272   0.000458
      1       0.000003  -0.000002  -0.000011
      2       0.000236  -0.000002  -0.000020
      3       0.000016   0.000045   0.000020
      4       0.000001  -0.000077   0.000173
      5      -0.000039   0.000002  -0.000015
      6       0.000031   0.000523  -0.000107
      7      -0.000001   0.000008  -0.000006
      8      -0.000433   0.000007  -0.000012
      9      -0.000001  -0.000457   0.000221
     10      -0.000014  -0.000177  -0.000047
     11       0.000224  -0.000015  -0.000000
     12      -0.000001  -0.000144  -0.000488
     13       0.000014   0.000154   0.000098
     14      -0.000149   0.000012   0.000023
     15      -0.000851  -0.012936  -0.033470
     16       0.000646   0.031578   0.081807
     17      -0.050234   0.000694   0.001793
     18      -0.000815  -0.033501   0.012918
     19      -0.000699  -0.081795   0.031579
     20       0.081651  -0.001149   0.000429
     21       0.016993   0.191635   0.496231
     22      -0.021811  -0.245296  -0.635388
     23      -0.004023   0.009645   0.024979
     24      -0.061875  -0.019384  -0.050305
     25      -0.199059  -0.055936  -0.145034
     26       0.310091   0.094592   0.245265
     27       0.054204  -0.021512  -0.055784
     28       0.212608  -0.077348  -0.200411
     29       0.289464  -0.112440  -0.291371
     30      -0.097468  -0.051532   0.019944
     31       0.329513   0.157023  -0.060723
     32      -0.496437  -0.255625   0.098848
     33       0.015279   0.496912  -0.191758
     34       0.019621   0.636649  -0.245761
     35       0.007502  -0.012621   0.004871
     36       0.091172  -0.054947   0.021221
     37      -0.340310   0.187070  -0.072180
     38      -0.478708   0.281816  -0.108758
     39       0.000006   0.000157  -0.000058
     40      -0.000006  -0.000129   0.000046
     41       0.000010   0.000001   0.000002
     42       0.000007   0.000063   0.000155
     43       0.000006   0.000052   0.000125
     44      -0.000008  -0.000001  -0.000001


-----------
IR SPECTRUM
-----------

 Mode   freq       eps      Int      T**2         TX        TY        TZ
       cm**-1   L/(mol*cm) km/mol    a.u.
----------------------------------------------------------------------------
  8:    105.24   0.000000    0.00  0.000000  (-0.000314 -0.000204 -0.000258)
  9:    167.59   0.002646   13.37  0.004928  (-0.000077 -0.000928 -0.070191)
 10:    177.51   0.000077    0.39  0.000135  (-0.000002  0.011628 -0.000455)
 11:    248.21   0.001139    5.76  0.001432  ( 0.000120  0.000296  0.037845)
 12:    266.40   0.000036    0.18  0.000043  ( 0.006517 -0.000030  0.000443)
 13:    305.93   0.002274   11.49  0.002320  (-0.000021 -0.048154  0.000890)
 14:    338.13   0.000001    0.00  0.000001  ( 0.000697 -0.000461  0.000016)
 15:    442.44   0.002037   10.29  0.001437  (-0.037902  0.000015  0.000055)
 16:    540.37   0.001339    6.77  0.000773  (-0.000029  0.027805 -0.000071)
 17:    579.14   0.001438    7.26  0.000775  (-0.027832 -0.000037 -0.000041)
 18:    638.36   0.000546    2.76  0.000267  ( 0.000133  0.000696 -0.016318)
 19:    657.60   0.001540    7.78  0.000731  ( 0.000020  0.027036  0.000291)
 20:    671.10   0.000001    0.00  0.000000  ( 0.000474 -0.000215  0.000002)
 21:    884.85   0.000000    0.00  0.000000  ( 0.000130 -0.000016  0.000044)
 22:   1090.77   0.001034    5.23  0.000296  (-0.000099 -0.017198  0.000091)
 23:   1109.60   0.017607   88.98  0.004952  ( 0.001095 -0.070360  0.000157)
 24:   1111.25   0.005999   30.32  0.001685  (-0.041006 -0.001776 -0.000018)
 25:   1138.38   0.000064    0.33  0.000018  (-0.004190 -0.000163  0.000279)
 26:   1139.53   0.000079    0.40  0.000022  (-0.000895 -0.000421  0.004532)
 27:   1178.72   0.010327   52.19  0.002734  ( 0.052287 -0.000028  0.000078)
 28:   1367.91   0.005614   28.37  0.001281  ( 0.035786  0.000012 -0.000174)
 29:   1402.12   0.000238    1.20  0.000053  ( 0.000136  0.007190  0.001116)
 30:   1434.69   0.009373   47.37  0.002039  (-0.045143 -0.000141  0.000946)
 31:   1443.56   0.000989    5.00  0.000214  ( 0.001339 -0.013253  0.006035)
 32:   1453.29   0.004092   20.68  0.000879  ( 0.008503  0.004604  0.028020)
 33:   1453.88   0.003362   16.99  0.000722  (-0.005288  0.002341  0.026235)
 34:   1464.20   0.003444   17.40  0.000734  (-0.001197  0.026368 -0.006111)
 35:   1474.99   0.009684   48.94  0.002049  ( 0.045247 -0.000107 -0.001219)
 36:   1490.14   0.008270   41.80  0.001732  (-0.041520 -0.002840  0.000036)
 37:   1491.65   0.015872   80.21  0.003321  ( 0.001684 -0.057590 -0.001067)
 38:   1691.78   0.004228   21.37  0.000780  (-0.000002 -0.027927 -0.000205)
 39:   3096.72   0.009991   50.49  0.001007  ( 0.031728  0.000280 -0.000180)
 40:   3097.52   0.002334   11.80  0.000235  (-0.000597  0.015313 -0.000556)
 41:   3204.82   0.002371   11.98  0.000231  (-0.000032 -0.000042  0.015195)
 42:   3204.90   0.000134    0.68  0.000013  ( 0.000037 -0.000008  0.003612)
 43:   3224.72   0.000067    0.34  0.000007  (-0.001352 -0.002168 -0.000040)
 44:   3224.74   0.000252    1.27  0.000024  (-0.000591  0.004900  0.000215)

* The epsilon (eps) is given for a Dirac delta lineshape.
** The dipole moment derivative (T) already includes vibrational overlap.

The first frequency considered to be a vibration is 8
The total number of vibrations considered is 37


--------------------------
THERMOCHEMISTRY AT 298.15K
--------------------------

Temperature         ... 298.15 K
Pressure            ... 1.00 atm
Total Mass          ... 165.02 AMU

Throughout the following assumptions are being made:
  (1) The electronic state is orbitally nondegenerate
  (2) There are no thermally accessible electronically excited states
  (3) Hindered rotations indicated by low frequency modes are not
      treated as such but are treated as vibrations and this may
      cause some error
  (4) All equations used are the standard statistical mechanics
      equations for an ideal gas
  (5) All vibrations are strictly harmonic

freq.     105.24  E(vib)   ...       0.45 
freq.     167.59  E(vib)   ...       0.38 
freq.     177.51  E(vib)   ...       0.37 
freq.     248.21  E(vib)   ...       0.31 
freq.     266.40  E(vib)   ...       0.29 
freq.     305.93  E(vib)   ...       0.26 
freq.     338.13  E(vib)   ...       0.24 
freq.     442.44  E(vib)   ...       0.17 
freq.     540.37  E(vib)   ...       0.12 
freq.     579.14  E(vib)   ...       0.11 
freq.     638.36  E(vib)   ...       0.09 
freq.     657.60  E(vib)   ...       0.08 
freq.     671.10  E(vib)   ...       0.08 
freq.     884.85  E(vib)   ...       0.04 
freq.    1090.77  E(vib)   ...       0.02 
freq.    1109.60  E(vib)   ...       0.02 
freq.    1111.25  E(vib)   ...       0.01 
freq.    1138.38  E(vib)   ...       0.01 
freq.    1139.53  E(vib)   ...       0.01 
freq.    1178.72  E(vib)   ...       0.01 
freq.    1367.91  E(vib)   ...       0.01 
freq.    1402.12  E(vib)   ...       0.00 
freq.    1434.69  E(vib)   ...       0.00 
freq.    1443.56  E(vib)   ...       0.00 
freq.    1453.29  E(vib)   ...       0.00 
freq.    1453.88  E(vib)   ...       0.00 
freq.    1464.20  E(vib)   ...       0.00 
freq.    1474.99  E(vib)   ...       0.00 
freq.    1490.14  E(vib)   ...       0.00 
freq.    1491.65  E(vib)   ...       0.00 
freq.    1691.78  E(vib)   ...       0.00 
freq.    3096.72  E(vib)   ...       0.00 
freq.    3097.52  E(vib)   ...       0.00 
freq.    3204.82  E(vib)   ...       0.00 
freq.    3204.90  E(vib)   ...       0.00 
freq.    3224.72  E(vib)   ...       0.00 
freq.    3224.74  E(vib)   ...       0.00 

------------
INNER ENERGY
------------

The inner energy is: U= E(el) + E(ZPE) + E(vib) + E(rot) + E(trans)
    E(el)   - is the total energy from the electronic structure calculation
              = E(kin-el) + E(nuc-el) + E(el-el) + E(nuc-nuc)
    E(ZPE)  - the the zero temperature vibrational energy from the frequency calculation
    E(vib)  - the the finite temperature correction to E(ZPE) due to population
              of excited vibrational states
    E(rot)  - is the rotational thermal energy
    E(trans)- is the translational thermal energy

Summary of contributions to the inner energy U:
Electronic energy                ...  -1223.41247098 Eh
Zero point energy                ...      0.10938112 Eh      68.64 kcal/mol
Thermal vibrational correction   ...      0.00496501 Eh       3.12 kcal/mol
Thermal rotational correction    ...      0.00141627 Eh       0.89 kcal/mol
Thermal translational correction ...      0.00141627 Eh       0.89 kcal/mol
-----------------------------------------------------------------------
Total thermal energy                  -1223.29529231 Eh


Summary of corrections to the electronic energy:
(perhaps to be used in another calculation)
Total thermal correction                  0.00779755 Eh       4.89 kcal/mol
Non-thermal (ZPE) correction              0.10938112 Eh      68.64 kcal/mol
-----------------------------------------------------------------------
Total correction                          0.11717867 Eh      73.53 kcal/mol


--------
ENTHALPY
--------

The enthalpy is H = U + kB*T
                kB is Boltzmann's constant
Total free energy                 ...  -1223.29529231 Eh 
Thermal Enthalpy correction       ...      0.00094421 Eh       0.59 kcal/mol
-----------------------------------------------------------------------
Total Enthalpy                    ...  -1223.29434810 Eh


Note: Only C1 symmetry has been detected, increase convergence thresholds 
      if your molecule has a higher symmetry. Symmetry factor of 1.0 is   
      used for the rotational entropy correction. 
 

Note: Rotational entropy computed according to Herzberg 
Infrared and Raman Spectra, Chapter V,1, Van Nostrand Reinhold, 1945 
Point Group:  C1, Symmetry Number:   1  
Rotational constants in cm-1:     0.050418     0.037261     0.021604 

Vibrational entropy computed according to the QRRHO of S. Grimme
Chem.Eur.J. 2012 18 9955


-------
ENTROPY
-------

The entropy contributions are T*S = T*(S(el)+S(vib)+S(rot)+S(trans))
     S(el)   - electronic entropy
     S(vib)  - vibrational entropy
     S(rot)  - rotational entropy
     S(trans)- translational entropy
The entropies will be listed as multiplied by the temperature to get
units of energy

Electronic entropy                ...      0.00000000 Eh      0.00 kcal/mol
Vibrational entropy               ...      0.00831199 Eh      5.22 kcal/mol
Rotational entropy                ...      0.01428463 Eh      8.96 kcal/mol
Translational entropy             ...      0.01958067 Eh     12.29 kcal/mol
-----------------------------------------------------------------------
Final entropy term                ...      0.04217730 Eh     26.47 kcal/mol

In case the symmetry of your molecule has not been determined correctly
or in case you have a reason to use a different symmetry number we print 
out the resulting rotational entropy values for sn=1,12 :
 --------------------------------------------------------
|  sn= 1 | S(rot)=       0.01428463 Eh      8.96 kcal/mol|
|  sn= 2 | S(rot)=       0.01363017 Eh      8.55 kcal/mol|
|  sn= 3 | S(rot)=       0.01324734 Eh      8.31 kcal/mol|
|  sn= 4 | S(rot)=       0.01297572 Eh      8.14 kcal/mol|
|  sn= 5 | S(rot)=       0.01276503 Eh      8.01 kcal/mol|
|  sn= 6 | S(rot)=       0.01259289 Eh      7.90 kcal/mol|
|  sn= 7 | S(rot)=       0.01244734 Eh      7.81 kcal/mol|
|  sn= 8 | S(rot)=       0.01232126 Eh      7.73 kcal/mol|
|  sn= 9 | S(rot)=       0.01221005 Eh      7.66 kcal/mol|
|  sn=10 | S(rot)=       0.01211057 Eh      7.60 kcal/mol|
|  sn=11 | S(rot)=       0.01202058 Eh      7.54 kcal/mol|
|  sn=12 | S(rot)=       0.01193843 Eh      7.49 kcal/mol|
 --------------------------------------------------------


-------------------
GIBBS FREE ENERGY
-------------------

The Gibbs free energy is G = H - T*S

Total enthalpy                    ...  -1223.29434810 Eh 
Total entropy correction          ...     -0.04217730 Eh    -26.47 kcal/mol
-----------------------------------------------------------------------
Final Gibbs free energy         ...  -1223.33652540 Eh

For completeness - the Gibbs free energy minus the electronic energy
G-E(el)                           ...      0.07594559 Eh     47.66 kcal/mol


Timings for individual modules:

Sum of individual times         ...     1159.114 sec (=  19.319 min)
GTO integral calculation        ...        1.166 sec (=   0.019 min)   0.1 %
SCF iterations                  ...      547.822 sec (=   9.130 min)  47.3 %
SCF Gradient evaluation         ...      130.782 sec (=   2.180 min)  11.3 %
Geometry relaxation             ...        0.170 sec (=   0.003 min)   0.0 %
Analytical frequency calculation...      479.174 sec (=   7.986 min)  41.3 %
                             ****ORCA TERMINATED NORMALLY****
TOTAL RUN TIME: 0 days 0 hours 19 minutes 19 seconds 710 msec
