
                                 *****************
                                 * O   R   C   A *
                                 *****************

                                            #,                                       
                                            ###                                      
                                            ####                                     
                                            #####                                    
                                            ######                                   
                                           ########,                                 
                                     ,,################,,,,,                         
                               ,,#################################,,                 
                          ,,##########################################,,             
                       ,#########################################, ''#####,          
                    ,#############################################,,   '####,        
                  ,##################################################,,,,####,       
                ,###########''''           ''''###############################       
              ,#####''   ,,,,##########,,,,          '''####'''          '####       
            ,##' ,,,,###########################,,,                        '##       
           ' ,,###''''                  '''############,,,                           
         ,,##''                                '''############,,,,        ,,,,,,###''
      ,#''                                            '''#######################'''  
     '                                                          ''''####''''         
             ,#######,   #######,   ,#######,      ##                                
            ,#'     '#,  ##    ##  ,#'     '#,    #''#        ######   ,####,        
            ##       ##  ##   ,#'  ##            #'  '#       #        #'  '#        
            ##       ##  #######   ##           ,######,      #####,   #    #        
            '#,     ,#'  ##    ##  '#,     ,#' ,#      #,         ##   #,  ,#        
             '#######'   ##     ##  '#######'  #'      '#     #####' # '####'        



                  #######################################################
                  #                        -***-                        #
                  #          Department of theory and spectroscopy      #
                  #    Directorship and core code : Frank Neese         #
                  #        Max Planck Institute fuer Kohlenforschung    #
                  #                Kaiser Wilhelm Platz 1               #
                  #                 D-45470 Muelheim/Ruhr               #
                  #                      Germany                        #
                  #                                                     #
                  #                  All rights reserved                #
                  #                        -***-                        #
                  #######################################################


                         Program Version 5.0.4 -  RELEASE  -


 With contributions from (in alphabetic order):
   Daniel Aravena         : Magnetic Suceptibility
   Michael Atanasov       : Ab Initio Ligand Field Theory (pilot matlab implementation)
   Alexander A. Auer      : GIAO ZORA, VPT2 properties, NMR spectrum
   Ute Becker             : Parallelization
   Giovanni Bistoni       : ED, misc. LED, open-shell LED, HFLD
   Martin Brehm           : Molecular dynamics
   Dmytro Bykov           : SCF Hessian
   Vijay G. Chilkuri      : MRCI spin determinant printing, contributions to CSF-ICE
   Dipayan Datta          : RHF DLPNO-CCSD density
   Achintya Kumar Dutta   : EOM-CC, STEOM-CC
   Dmitry Ganyushin       : Spin-Orbit,Spin-Spin,Magnetic field MRCI
   Miquel Garcia          : C-PCM and meta-GGA Hessian, CC/C-PCM, Gaussian charge scheme
   Yang Guo               : DLPNO-NEVPT2, F12-NEVPT2, CIM, IAO-localization
   Andreas Hansen         : Spin unrestricted coupled pair/coupled cluster methods
   Benjamin Helmich-Paris : MC-RPA, TRAH-SCF, COSX integrals
   Lee Huntington         : MR-EOM, pCC
   Robert Izsak           : Overlap fitted RIJCOSX, COSX-SCS-MP3, EOM
   Marcus Kettner         : VPT2
   Christian Kollmar      : KDIIS, OOCD, Brueckner-CCSD(T), CCSD density, CASPT2, CASPT2-K
   Simone Kossmann        : Meta GGA functionals, TD-DFT gradient, OOMP2, MP2 Hessian
   Martin Krupicka        : Initial AUTO-CI
   Lucas Lang             : DCDCAS
   Marvin Lechner         : AUTO-CI (C++ implementation), FIC-MRCC
   Dagmar Lenk            : GEPOL surface, SMD
   Dimitrios Liakos       : Extrapolation schemes; Compound Job, initial MDCI parallelization
   Dimitrios Manganas     : Further ROCIS development; embedding schemes
   Dimitrios Pantazis     : SARC Basis sets
   Anastasios Papadopoulos: AUTO-CI, single reference methods and gradients
   Taras Petrenko         : DFT Hessian,TD-DFT gradient, ASA, ECA, R-Raman, ABS, FL, XAS/XES, NRVS
   Peter Pinski           : DLPNO-MP2, DLPNO-MP2 Gradient
   Christoph Reimann      : Effective Core Potentials
   Marius Retegan         : Local ZFS, SOC
   Christoph Riplinger    : Optimizer, TS searches, QM/MM, DLPNO-CCSD(T), (RO)-DLPNO pert. Triples
   Tobias Risthaus        : Range-separated hybrids, TD-DFT gradient, RPA, STAB
   Michael Roemelt        : Original ROCIS implementation
   Masaaki Saitow         : Open-shell DLPNO-CCSD energy and density
   Barbara Sandhoefer     : DKH picture change effects
   Avijit Sen             : IP-ROCIS
   Kantharuban Sivalingam : CASSCF convergence, NEVPT2, FIC-MRCI
   Bernardo de Souza      : ESD, SOC TD-DFT
   Georgi Stoychev        : AutoAux, RI-MP2 NMR, DLPNO-MP2 response
   Willem Van den Heuvel  : Paramagnetic NMR
   Boris Wezisla          : Elementary symmetry handling
   Frank Wennmohs         : Technical directorship


 We gratefully acknowledge several colleagues who have allowed us to
 interface, adapt or use parts of their codes:
   Stefan Grimme, W. Hujo, H. Kruse, P. Pracht,  : VdW corrections, initial TS optimization,
                  C. Bannwarth, S. Ehlert          DFT functionals, gCP, sTDA/sTD-DF
   Ed Valeev, F. Pavosevic, A. Kumar             : LibInt (2-el integral package), F12 methods
   Garnet Chan, S. Sharma, J. Yang, R. Olivares  : DMRG
   Ulf Ekstrom                                   : XCFun DFT Library
   Mihaly Kallay                                 : mrcc  (arbitrary order and MRCC methods)
   Jiri Pittner, Ondrej Demel                    : Mk-CCSD
   Frank Weinhold                                : gennbo (NPA and NBO analysis)
   Christopher J. Cramer and Donald G. Truhlar   : smd solvation model
   Lars Goerigk                                  : TD-DFT with DH, B97 family of functionals
   V. Asgeirsson, H. Jonsson                     : NEB implementation
   FAccTs GmbH                                   : IRC, NEB, NEB-TS, DLPNO-Multilevel, CI-OPT
                                                   MM, QMMM, 2- and 3-layer-ONIOM, Crystal-QMMM,
                                                   LR-CPCM, SF, NACMEs, symmetry and pop. for TD-DFT,
                                                   nearIR, NL-DFT gradient (VV10), updates on ESD,
                                                   ML-optimized integration grids
   S Lehtola, MJT Oliveira, MAL Marques          : LibXC Library
   Liviu Ungur et al                             : ANISO software


 Your calculation uses the libint2 library for the computation of 2-el integrals
 For citations please refer to: http://libint.valeyev.net

 Your ORCA version has been built with support for libXC version: 5.1.0
 For citations please refer to: https://tddft.org/programs/libxc/

 This ORCA versions uses:
   CBLAS   interface :  Fast vector & matrix operations
   LAPACKE interface :  Fast linear algebra routines
   SCALAPACK package :  Parallel linear algebra routines
   Shared memory     :  Shared parallel matrices
   BLAS/LAPACK       :  OpenBLAS 0.3.15  USE64BITINT DYNAMIC_ARCH NO_AFFINITY SkylakeX SINGLE_THREADED
        Core in use  :  SkylakeX
   Copyright (c) 2011-2014, The OpenBLAS Project




***************************************
The coordinates will be read from file: 3_prot_aq_1.xyz
***************************************


Your calculation utilizes the atom-pairwise dispersion correction
based on tight binding partial charges (D4)
Cite in your paper:
E.Caldeweyher, C.Bannwarth, S.Grimme, J.Chem.Phys., (2017), 147, 034112.
E.Caldeweyher, S.Ehlert, A.Hansen, H.Neugebauer, S.Grimme, J.Chem.Phys., (2018), in progress.
   

XCFun DFT library Copyright 2009-2010 Ulf Ekstrom and contributors.
See http://admol.org/xcfun for more information.
This is free software; see the source code for copying conditions.
There is ABSOLUTELY NO WARRANTY; not even for MERCHANTABILITY or FITNESS FOR A PARTICULAR PURPOSE.
For details see the documentation.
Scientific users of this library should cite U. Ekstrom, L. Visscher, R. Bast, A. J. Thorvaldsen and K. Ruud;
J.Chem.Theor.Comp. 2010, DOI: 10.1021/ct100117s
XCFun Version 0.99 

================================================================================

----- Orbital basis set information -----
Your calculation utilizes the basis: def2-SVP
   F. Weigend and R. Ahlrichs, Phys. Chem. Chem. Phys. 7, 3297 (2005).

----- AuxJ basis set information -----
Your calculation utilizes the auxiliary basis: def2/J
   F. Weigend, Phys. Chem. Chem. Phys. 8, 1057 (2006).

================================================================================
                                        WARNINGS
                       Please study these warnings very carefully!
================================================================================


WARNING: Geometry Optimization
  ===> : Switching off AutoStart
         For restart on a previous wavefunction, please use MOREAD

INFO   : the flag for use of the SHARK integral package has been found!

================================================================================
                                       INPUT FILE
================================================================================
NAME = 3_prot_aq_1.inp
|  1> # ORCA 5.0.4 - /users/bwb16179/postgrad/2024_03/DFT_Crest_Conformers/Opt/prot/3_prot_aq_1.inp # write input file
|  2> # Basic Mode
|  3> #
|  4> ! Opt Freq wB97X Def2-SVP D4 SlowConv TightSCF Defgrid2 Def2/J RIJCOSX CPCM(Water)
|  5> 
|  6> 
|  7> 
|  8> %maxcore 4500
|  9> 
| 10> %geom
| 11> Maxiter 150
| 12> END
| 13> 
| 14> * xyzfile 1 1 3_prot_aq_1.xyz
| 15> 
| 16>                          ****END OF INPUT****
================================================================================

                       *****************************
                       * Geometry Optimization Run *
                       *****************************

Geometry optimization settings:
Update method            Update   .... BFGS
Choice of coordinates    CoordSys .... Z-matrix Internals
Initial Hessian          InHess   .... Almoef's Model

Convergence Tolerances:
Energy Change            TolE     ....  5.0000e-06 Eh
Max. Gradient            TolMAXG  ....  3.0000e-04 Eh/bohr
RMS Gradient             TolRMSG  ....  1.0000e-04 Eh/bohr
Max. Displacement        TolMAXD  ....  4.0000e-03 bohr
RMS Displacement         TolRMSD  ....  2.0000e-03 bohr
Strict Convergence                ....  False
------------------------------------------------------------------------------
                        ORCA OPTIMIZATION COORDINATE SETUP
------------------------------------------------------------------------------

The optimization will be done in new redundant internal coordinates
Making redundant internal coordinates   ...  (new redundants) done
Evaluating the initial hessian          ...  (Almloef) done
Evaluating the coordinates              ...  done
Calculating the B-matrix                .... done
Calculating the G-matrix                .... done
Diagonalizing the G-matrix              .... done
The first mode is                       ....   33
The number of degrees of freedom        ....   42

    -----------------------------------------------------------------
                    Redundant Internal Coordinates


    -----------------------------------------------------------------
         Definition                    Initial Value    Approx d2E/dq
    -----------------------------------------------------------------
      1. B(C   1,N   0)                  1.3325         0.691340   
      2. B(N   2,C   1)                  1.3325         0.691303   
      3. B(C   3,N   2)                  1.3727         0.596341   
      4. B(C   4,N   0)                  1.3727         0.596374   
      5. B(C   4,C   3)                  1.3817         0.644054   
      6. B(C   5,N   0)                  1.4381         0.468997   
      7. B(C   6,N   2)                  1.4381         0.469001   
      8. B(H   7,C   5)                  1.0903         0.359647   
      9. B(H   8,C   5)                  1.0870         0.364133   
     10. B(H   9,C   5)                  1.0904         0.359622   
     11. B(H  10,C   6)                  1.0903         0.359637   
     12. B(H  11,C   6)                  1.0904         0.359617   
     13. B(H  12,C   6)                  1.0870         0.364148   
     14. B(H  13,C   1)                  1.0739         0.382111   
     15. B(Cl 14,C   3)                  1.6938         0.459164   
     16. B(Cl 15,C   4)                  1.6938         0.459190   
     17. A(C   1,N   0,C   4)          108.1522         0.433836   
     18. A(C   4,N   0,C   5)          124.6275         0.404842   
     19. A(C   1,N   0,C   5)          127.2203         0.415584   
     20. A(N   2,C   1,H  13)          125.0830         0.360893   
     21. A(N   0,C   1,H  13)          125.0688         0.360896   
     22. A(N   0,C   1,N   2)          109.8482         0.445559   
     23. A(C   1,N   2,C   3)          108.1506         0.433827   
     24. A(C   3,N   2,C   6)          124.6340         0.404838   
     25. A(C   1,N   2,C   6)          127.2154         0.415580   
     26. A(N   2,C   3,Cl 14)          122.6292         0.424217   
     27. A(C   4,C   3,Cl 14)          130.4459         0.432938   
     28. A(N   2,C   3,C   4)          106.9248         0.431161   
     29. A(N   0,C   4,Cl 15)          122.6371         0.424226   
     30. A(N   0,C   4,C   3)          106.9242         0.431166   
     31. A(C   3,C   4,Cl 15)          130.4387         0.432943   
     32. A(H   8,C   5,H   9)          109.4869         0.291288   
     33. A(H   7,C   5,H   9)          108.2872         0.290721   
     34. A(N   0,C   5,H   9)          109.8863         0.334640   
     35. A(H   7,C   5,H   8)          109.4905         0.291291   
     36. A(N   0,C   5,H   8)          109.7859         0.335333   
     37. A(N   0,C   5,H   7)          109.8804         0.334643   
     38. A(H  11,C   6,H  12)          109.4884         0.291289   
     39. A(H  10,C   6,H  12)          109.4915         0.291292   
     40. A(N   2,C   6,H  12)          109.7835         0.335336   
     41. A(H  10,C   6,H  11)          108.2863         0.290719   
     42. A(N   2,C   6,H  11)          109.8861         0.334639   
     43. A(N   2,C   6,H  10)          109.8815         0.334642   
     44. D(H  13,C   1,N   0,C   5)     -0.0116         0.039454   
     45. D(N   2,C   1,N   0,C   5)    179.9918         0.039454   
     46. D(N   2,C   1,N   0,C   4)      0.0032         0.039454   
     47. D(H  13,C   1,N   0,C   4)    179.9998         0.039454   
     48. D(C   6,N   2,C   1,N   0)   -179.9943         0.039449   
     49. D(C   3,N   2,C   1,N   0)     -0.0029         0.039449   
     50. D(C   3,N   2,C   1,H  13)   -179.9996         0.039449   
     51. D(C   6,N   2,C   1,H  13)      0.0090         0.039449   
     52. D(Cl 14,C   3,N   2,C   1)   -179.9988         0.028631   
     53. D(Cl 14,C   3,N   2,C   6)     -0.0071         0.028631   
     54. D(C   4,C   3,N   2,C   6)    179.9932         0.028631   
     55. D(C   4,C   3,N   2,C   1)      0.0015         0.028631   
     56. D(Cl 15,C   4,N   0,C   1)    179.9984         0.028634   
     57. D(C   3,C   4,N   0,C   5)   -179.9911         0.028634   
     58. D(C   3,C   4,N   0,C   1)     -0.0021         0.028634   
     59. D(Cl 15,C   4,C   3,Cl 14)      0.0002         0.028845   
     60. D(Cl 15,C   4,C   3,N   2)    179.9998         0.028845   
     61. D(N   0,C   4,C   3,Cl 14)   -179.9992         0.028845   
     62. D(N   0,C   4,C   3,N   2)      0.0004         0.028845   
     63. D(Cl 15,C   4,N   0,C   5)      0.0094         0.028634   
     64. D(H   9,C   5,N   0,C   4)     59.6715         0.018791   
     65. D(H   9,C   5,N   0,C   1)   -120.3154         0.018791   
     66. D(H   8,C   5,N   0,C   4)   -179.8556         0.018791   
     67. D(H   8,C   5,N   0,C   1)      0.1575         0.018791   
     68. D(H   7,C   5,N   0,C   4)    -59.3820         0.018791   
     69. D(H   7,C   5,N   0,C   1)    120.6311         0.018791   
     70. D(H  11,C   6,N   2,C   3)    -59.6437         0.018792   
     71. D(H  11,C   6,N   2,C   1)    120.3464         0.018792   
     72. D(H  10,C   6,N   2,C   3)     59.4093         0.018792   
     73. D(H  12,C   6,N   2,C   1)     -0.1267         0.018792   
     74. D(H  10,C   6,N   2,C   1)   -120.6006         0.018792   
     75. D(H  12,C   6,N   2,C   3)    179.8832         0.018792   
    -----------------------------------------------------------------

Number of atoms                         .... 16
Number of degrees of freedom            .... 75

         *************************************************************
         *                GEOMETRY OPTIMIZATION CYCLE   1            *
         *************************************************************
---------------------------------
CARTESIAN COORDINATES (ANGSTROEM)
---------------------------------
  N     -1.090465   -1.151736    0.000075
  C      0.000016   -1.917422    0.000052
  N      1.090479   -1.151685    0.000060
  C      0.690829    0.161538    0.000022
  C     -0.690907    0.161499    0.000027
  C     -2.460429   -1.589076   -0.000088
  C      2.460421   -1.589088   -0.000071
  H     -2.972591   -1.204269    0.882216
  H     -2.499901   -2.675324    0.002572
  H     -2.971082   -1.208710   -0.885212
  H      2.972470   -1.204728    0.882502
  H      2.971246   -1.208319   -0.884927
  H      2.499795   -2.675329    0.002078
  H     -0.000096   -2.991272    0.000082
  Cl     1.789642    1.450617   -0.000011
  Cl    -1.789619    1.450643   -0.000003

----------------------------
CARTESIAN COORDINATES (A.U.)
----------------------------
  NO LB      ZA    FRAG     MASS         X           Y           Z
   0 N     7.0000    0    14.007   -2.060680   -2.176466    0.000142
   1 C     6.0000    0    12.011    0.000030   -3.623403    0.000098
   2 N     7.0000    0    14.007    2.060707   -2.176368    0.000113
   3 C     6.0000    0    12.011    1.305478    0.305263    0.000042
   4 C     6.0000    0    12.011   -1.305625    0.305189    0.000050
   5 C     6.0000    0    12.011   -4.649537   -3.002918   -0.000167
   6 C     6.0000    0    12.011    4.649521   -3.002941   -0.000135
   7 H     1.0000    0     1.008   -5.617384   -2.275739    1.667146
   8 H     1.0000    0     1.008   -4.724128   -5.055630    0.004860
   9 H     1.0000    0     1.008   -5.614531   -2.284131   -1.672808
  10 H     1.0000    0     1.008    5.617153   -2.276606    1.667688
  11 H     1.0000    0     1.008    5.614842   -2.283392   -1.672269
  12 H     1.0000    0     1.008    4.723927   -5.055640    0.003927
  13 H     1.0000    0     1.008   -0.000181   -5.652686    0.000155
  14 Cl   17.0000    0    35.453    3.381934    2.741269   -0.000020
  15 Cl   17.0000    0    35.453   -3.381891    2.741318   -0.000007

--------------------------------
INTERNAL COORDINATES (ANGSTROEM)
--------------------------------
 N      0   0   0     0.000000000000     0.00000000     0.00000000
 C      1   0   0     1.332450586869     0.00000000     0.00000000
 N      2   1   0     1.332465201013   109.84815697     0.00000000
 C      3   2   1     1.372688404619   108.15061290     0.00000000
 C      1   2   3     1.372673503487   108.15216852     0.00000000
 C      1   2   3     1.438077892111   127.22033932   179.99179304
 C      3   2   1     1.438075852501   127.21538411   180.00565079
 H      6   1   2     1.090342372748   109.88035734   120.63109188
 H      6   1   2     1.086968449882   109.78587988     0.15753417
 H      6   1   2     1.090361429295   109.88633648   239.68464988
 H      7   3   2     1.090349915203   109.88148888   239.39938579
 H      7   3   2     1.090365560279   109.88613929   120.34639642
 H      7   3   2     1.086956774482   109.78345748   359.87332019
 H      2   1   3     1.073850036236   125.06882210   179.99665273
 Cl     4   3   2     1.693846155200   122.62923962   180.00117890
 Cl     5   1   2     1.693830288498   122.63707334   179.99838052

---------------------------
INTERNAL COORDINATES (A.U.)
---------------------------
 N      0   0   0     0.000000000000     0.00000000     0.00000000
 C      1   0   0     2.517966696165     0.00000000     0.00000000
 N      2   1   0     2.517994312894   109.84815697     0.00000000
 C      3   2   1     2.594005151939   108.15061290     0.00000000
 C      1   2   3     2.593976992880   108.15216852     0.00000000
 C      1   2   3     2.717573375336   127.22033932   179.99179304
 C      3   2   1     2.717569521033   127.21538411   180.00565079
 H      6   1   2     2.060448476704   109.88035734   120.63109188
 H      6   1   2     2.054072686489   109.78587988     0.15753417
 H      6   1   2     2.060484488358   109.88633648   239.68464988
 H      7   3   2     2.060462729878   109.88148888   239.39938579
 H      7   3   2     2.060492294787   109.88613929   120.34639642
 H      7   3   2     2.054050623182   109.78345748   359.87332019
 H      2   1   3     2.029282477388   125.06882210   179.99665273
 Cl     4   3   2     3.200905346323   122.62923962   180.00117890
 Cl     5   1   2     3.200875362602   122.63707334   179.99838052

---------------------
BASIS SET INFORMATION
---------------------
There are 4 groups of distinct atoms

 Group   1 Type N   : 7s4p1d contracted to 3s2p1d pattern {511/31/1}
 Group   2 Type C   : 7s4p1d contracted to 3s2p1d pattern {511/31/1}
 Group   3 Type H   : 4s1p contracted to 2s1p pattern {31/1}
 Group   4 Type Cl  : 10s7p1d contracted to 4s3p1d pattern {5311/511/1}

Atom   0N    basis set group =>   1
Atom   1C    basis set group =>   2
Atom   2N    basis set group =>   1
Atom   3C    basis set group =>   2
Atom   4C    basis set group =>   2
Atom   5C    basis set group =>   2
Atom   6C    basis set group =>   2
Atom   7H    basis set group =>   3
Atom   8H    basis set group =>   3
Atom   9H    basis set group =>   3
Atom  10H    basis set group =>   3
Atom  11H    basis set group =>   3
Atom  12H    basis set group =>   3
Atom  13H    basis set group =>   3
Atom  14Cl   basis set group =>   4
Atom  15Cl   basis set group =>   4
---------------------------------
AUXILIARY/J BASIS SET INFORMATION
---------------------------------
There are 4 groups of distinct atoms

 Group   1 Type N   : 12s5p4d2f1g contracted to 6s4p3d1f1g pattern {711111/2111/211/2/1}
 Group   2 Type C   : 12s5p4d2f1g contracted to 6s4p3d1f1g pattern {711111/2111/211/2/1}
 Group   3 Type H   : 5s2p1d contracted to 3s1p1d pattern {311/2/1}
 Group   4 Type Cl  : 14s5p5d2f1g contracted to 8s4p3d1f1g pattern {71111111/2111/311/2/1}

Atom   0N    basis set group =>   1
Atom   1C    basis set group =>   2
Atom   2N    basis set group =>   1
Atom   3C    basis set group =>   2
Atom   4C    basis set group =>   2
Atom   5C    basis set group =>   2
Atom   6C    basis set group =>   2
Atom   7H    basis set group =>   3
Atom   8H    basis set group =>   3
Atom   9H    basis set group =>   3
Atom  10H    basis set group =>   3
Atom  11H    basis set group =>   3
Atom  12H    basis set group =>   3
Atom  13H    basis set group =>   3
Atom  14Cl   basis set group =>   4
Atom  15Cl   basis set group =>   4
------------------------------------------------------------------------------
                           ORCA GTO INTEGRAL CALCULATION
                           -- RI-GTO INTEGRALS CHOSEN --
------------------------------------------------------------------------------
------------------------------------------------------------------------------
                   ___                                                        
                  /   \      - P O W E R E D   B Y -                         
                 /     \                                                     
                 |  |  |   _    _      __       _____    __    __             
                 |  |  |  | |  | |    /  \     |  _  \  |  |  /  |          
                  \  \/   | |  | |   /    \    | | | |  |  | /  /          
                 / \  \   | |__| |  /  /\  \   | |_| |  |  |/  /          
                |  |  |   |  __  | /  /__\  \  |    /   |      \           
                |  |  |   | |  | | |   __   |  |    \   |  |\   \          
                \     /   | |  | | |  |  |  |  | |\  \  |  | \   \       
                 \___/    |_|  |_| |__|  |__|  |_| \__\ |__|  \__/        
                                                                              
                      - O R C A' S   B I G   F R I E N D -                    
                                      &                                       
                       - I N T E G R A L  F E E D E R -                       
                                                                              
 v1 FN, 2020, v2 2021                                                         
------------------------------------------------------------------------------


Reading SHARK input file 3_prot_aq_1.SHARKINP.tmp ... ok
----------------------
SHARK INTEGRAL PACKAGE
----------------------

Number of atoms                             ...     16
Number of basis functions                   ...    169
Number of shells                            ...     79
Maximum angular momentum                    ...      2
Integral batch strategy                     ... SHARK/LIBINT Hybrid
RI-J (if used) integral strategy            ... SPLIT-RIJ (Revised 2003 algorithm where possible)
Printlevel                                  ...      1
Contraction scheme used                     ... SEGMENTED contraction
Coulomb Range Separation                    ... NOT USED
Exchange Range Separation                   ... Long Range
   Mu parameter                             ...  0.300000
   Scaling (regular/separated)              ...  0.157706  0.842294
Finite Nucleus Model                        ... NOT USED
Auxiliary Coulomb fitting basis             ... AVAILABLE
   # of basis functions in Aux-J            ...    522
   # of shells in Aux-J                     ...    174
   Maximum angular momentum in Aux-J        ...      4
Auxiliary J/K fitting basis                 ... NOT available
Auxiliary Correlation fitting basis         ... NOT available
Auxiliary 'external' fitting basis          ... NOT available
Integral threshold                          ...     2.500000e-11
Primitive cut-off                           ...     2.500000e-12
Primitive pair pre-selection threshold      ...     2.500000e-12

Calculating pre-screening integrals         ... done (  0.0 sec) Dimension = 79
Organizing shell pair data                  ... done (  0.0 sec)
Shell pair information
Total number of shell pairs                 ...      3160
Shell pairs after pre-screening             ...      2863
Total number of primitive shell pairs       ...     12248
Primitive shell pairs kept                  ...      7862
          la=0 lb=0:    860 shell pairs
          la=1 lb=0:   1043 shell pairs
          la=1 lb=1:    340 shell pairs
          la=2 lb=0:    355 shell pairs
          la=2 lb=1:    223 shell pairs
          la=2 lb=2:     42 shell pairs

Calculating one electron integrals          ... done (  0.0 sec)
Calculating RI/J V-Matrix + Cholesky decomp.... done (  0.0 sec)
Calculating Nuclear repulsion               ... done (  0.0 sec) ENN=    623.617421853071 Eh

SHARK setup successfully completed in   0.2 seconds

Maximum memory used throughout the entire GTOINT-calculation: 24.6 MB
-------------------------------------------------------------------------------
                                 ORCA SCF
-------------------------------------------------------------------------------

------------
SCF SETTINGS
------------
Hamiltonian:
 Density Functional     Method          .... DFT(GTOs)
 Exchange Functional    Exchange        .... WB97X
 Correlation Functional Correlation     .... WB97X
 Gradients option       PostSCFGGA      .... off
 Hybrid DFT is turned on
   Fraction HF Exchange ScalHFX         ....  0.157706
   Scaling of DF-GGA-X  ScalDFX         ....  0.000000
   Scaling of DF-GGA-C  ScalDFC         ....  1.000000
   Scaling of DF-LDA-C  ScalLDAC        ....  1.000000
   Perturbative correction              ....  0.000000
   Density functional embedding theory  .... OFF
 Long-range corrected/Screened/Range-Separated Hybrid DFT is turned on
   Amount of maximum screened exact exchange              ....  0.842294
   Range separation parameter mu (erf(mu*r12)/r12)        ....  0.300000
 RI-approximation to the Coulomb term is turned on
   Number of AuxJ basis functions       .... 522
   RIJ-COSX (HFX calculated with COS-X)).... on


General Settings:
 Integral files         IntName         .... 3_prot_aq_1
 Hartree-Fock type      HFTyp           .... RHF
 Total Charge           Charge          ....    1
 Multiplicity           Mult            ....    1
 Number of Electrons    NEL             ....   84
 Basis Dimension        Dim             ....  169
 Nuclear Repulsion      ENuc            ....    623.6174218531 Eh

Convergence Acceleration:
 DIIS                   CNVDIIS         .... on
   Start iteration      DIISMaxIt       ....     0
   Startup error        DIISStart       ....  0.200000
   # of expansion vecs  DIISMaxEq       ....     5
   Bias factor          DIISBfac        ....   1.050
   Max. coefficient     DIISMaxC        ....  10.000
 Trust-Rad. Augm. Hess. CNVTRAH         .... auto
   Auto Start mean grad. ratio tolernc. ....  1.125000
   Auto Start start iteration           ....    20
   Auto Start num. interpolation iter.  ....    10
   Max. Number of Micro iterations      ....    16
   Max. Number of Macro iterations      .... Maxiter - #DIIS iter
   Number of Davidson start vectors     ....     2
   Converg. threshold I  (grad. norm)   ....   1.000e-05
   Converg. threshold II (energy diff.) ....   1.000e-08
   Grad. Scal. Fac. for Micro threshold ....   0.100
   Minimum threshold for Micro iter.    ....   0.010
   NR start threshold (gradient norm)   ....   0.001
   Initial trust radius                 ....   0.400
   Minimum AH scaling param. (alpha)    ....   1.000
   Maximum AH scaling param. (alpha)    .... 1000.000
   Orbital update algorithm             .... Taylor
   White noise on init. David. guess    .... on
   Maximum white noise                  ....   0.010
   Quad. conv. algorithm                .... NR
 SOSCF                  CNVSOSCF        .... on
   Start iteration      SOSCFMaxIt      ....   150
   Startup grad/error   SOSCFStart      ....  0.001000
 Level Shifting         CNVShift        .... on
   Level shift para.    LevelShift      ....    0.2500
   Turn off err/grad.   ShiftErr        ....    0.0000
 Zerner damping         CNVZerner       .... off
 Static damping         CNVDamp         .... on
   Fraction old density DampFac         ....    0.8500
   Max. Damping (<1)    DampMax         ....    0.9800
   Min. Damping (>=0)   DampMin         ....    0.0000
   Turn off err/grad.   DampErr         ....    0.0300
 Fernandez-Rico         CNVRico         .... off

SCF Procedure:
 Maximum # iterations   MaxIter         ....   125
 SCF integral mode      SCFMode         .... Direct
   Integral package                     .... SHARK and LIBINT hybrid scheme
 Reset frequency        DirectResetFreq ....    20
 Integral Threshold     Thresh          ....  2.500e-11 Eh
 Primitive CutOff       TCut            ....  2.500e-12 Eh

Convergence Tolerance:
 Convergence Check Mode ConvCheckMode   .... Total+1el-Energy
 Convergence forced     ConvForced      .... 0
 Energy Change          TolE            ....  1.000e-08 Eh
 1-El. energy change                    ....  1.000e-05 Eh
 Orbital Gradient       TolG            ....  1.000e-05
 Orbital Rotation angle TolX            ....  1.000e-05
 DIIS Error             TolErr          ....  5.000e-07


Diagonalization of the overlap matrix:
Smallest eigenvalue                        ... 8.929e-04
Time for diagonalization                   ...    0.005 sec
Threshold for overlap eigenvalues          ... 1.000e-08
Number of eigenvalues below threshold      ... 0
Time for construction of square roots      ...    0.002 sec
Total time needed                          ...    0.008 sec

Time for model grid setup =    0.216 sec

------------------------------
INITIAL GUESS: MODEL POTENTIAL
------------------------------
Loading Hartree-Fock densities                     ... done
Calculating cut-offs                               ... done
Initializing the effective Hamiltonian             ... done
Setting up the integral package (SHARK)            ... done
Starting the Coulomb interaction                   ... done (   0.2 sec)
Reading the grid                                   ... done
Mapping shells                                     ... done
Starting the XC term evaluation                    ... done (   0.3 sec)
  promolecular density results
     # of electrons  =     84.995785458
     EX              =    -95.625938749
     EC              =     -3.064805026
     EX+EC           =    -98.690743775
Transforming the Hamiltonian                       ... done (   0.0 sec)
Diagonalizing the Hamiltonian                      ... done (   0.0 sec)
Back transforming the eigenvectors                 ... done (   0.0 sec)
Now organizing SCF variables                       ... done
                      ------------------
                      INITIAL GUESS DONE (   0.7 sec)
                      ------------------
-------------------
DFT GRID GENERATION
-------------------

General Integration Accuracy     IntAcc      ... 4.388
Radial Grid Type                 RadialGrid  ... OptM3 with GC (2021)
Angular Grid (max. ang.)         AngularGrid ... 4 (Lebedev-302)
Angular grid pruning method      GridPruning ... 4 (adaptive)
Weight generation scheme         WeightScheme... Becke
Basis function cutoff            BFCut       ... 1.0000e-11
Integration weight cutoff        WCut        ... 1.0000e-14
Angular grids for H and He will be reduced by one unit
Partially contracted basis set               ... off
Rotationally invariant grid construction     ... off

Total number of grid points                  ...    79217
Total number of batches                      ...     1248
Average number of points per batch           ...       63
Average number of grid points per atom       ...     4951
Time for grid setup =    0.866 sec

--------------------
COSX GRID GENERATION
--------------------

GRIDX 1
-------
General Integration Accuracy     IntAcc      ... 3.816
Radial Grid Type                 RadialGrid  ... OptM3 with GC (2021)
Angular Grid (max. ang.)         AngularGrid ... 1 (Lebedev-50)
Angular grid pruning method      GridPruning ... 4 (adaptive)
Weight generation scheme         WeightScheme... Becke
Basis function cutoff            BFCut       ... 1.0000e-11
Integration weight cutoff        WCut        ... 1.0000e-14
Angular grids for H and He will be reduced by one unit
Partially contracted basis set               ... on
Rotationally invariant grid construction     ... off

Total number of grid points                  ...     9924
Total number of batches                      ...      163
Average number of points per batch           ...       60
Average number of grid points per atom       ...      620
UseSFitting                                  ... on

GRIDX 2
-------
General Integration Accuracy     IntAcc      ... 4.020
Radial Grid Type                 RadialGrid  ... OptM3 with GC (2021)
Angular Grid (max. ang.)         AngularGrid ... 2 (Lebedev-110)
Angular grid pruning method      GridPruning ... 4 (adaptive)
Weight generation scheme         WeightScheme... Becke
Basis function cutoff            BFCut       ... 1.0000e-11
Integration weight cutoff        WCut        ... 1.0000e-14
Angular grids for H and He will be reduced by one unit
Partially contracted basis set               ... on
Rotationally invariant grid construction     ... off

Total number of grid points                  ...    21804
Total number of batches                      ...      348
Average number of points per batch           ...       62
Average number of grid points per atom       ...     1363
UseSFitting                                  ... on

GRIDX 3
-------
General Integration Accuracy     IntAcc      ... 4.338
Radial Grid Type                 RadialGrid  ... OptM3 with GC (2021)
Angular Grid (max. ang.)         AngularGrid ... 3 (Lebedev-194)
Angular grid pruning method      GridPruning ... 4 (adaptive)
Weight generation scheme         WeightScheme... Becke
Basis function cutoff            BFCut       ... 1.0000e-11
Integration weight cutoff        WCut        ... 1.0000e-14
Angular grids for H and He will be reduced by one unit
Partially contracted basis set               ... on
Rotationally invariant grid construction     ... off

Total number of grid points                  ...    49077
Total number of batches                      ...      776
Average number of points per batch           ...       63
Average number of grid points per atom       ...     3067
UseSFitting                                  ... on

Time for X-Grid setup             =    1.082 sec


--------------------
CPCM SOLVATION MODEL
--------------------
CPCM parameters:
  Epsilon                                         ...      80.4000
  Refrac                                          ...       1.3300
  Rsolv                                           ...       1.3000
  Surface type                                    ... GAUSSIAN VDW
  Epsilon function type                           ...         CPCM
Radii:
 Radius for N  used is    3.5149 Bohr (=   1.8600 Ang.)
 Radius for C  used is    3.8550 Bohr (=   2.0400 Ang.)
 Radius for H  used is    2.4944 Bohr (=   1.3200 Ang.)
 Radius for Cl used is    3.9684 Bohr (=   2.1000 Ang.)
Calculating surface                               ...        done! (  0.0s)
GEPOL surface points                              ...          913
GEPOL Volume                                      ...    1187.2169
GEPOL Surface-area                                ...     668.2523
Calculating surface distance matrix               ...        done! (  0.0s)
Performing Cholesky decomposition & store         ...        done! (  0.0s)
Overall time for CPCM initialization              ...                 0.0s
--------------
SCF ITERATIONS
--------------
ITER       Energy         Delta-E        Max-DP      RMS-DP      [F,P]     Damp
               ***  Starting incremental Fock matrix formation  ***
  0  -1223.8378107901   0.000000000000 0.02313155  0.00052800  0.1028228 0.8500
  1  -1223.8505349517  -0.012724161646 0.02105303  0.00049301  0.0830552 0.8500
                               ***Turning on DIIS***
  2  -1223.8603826814  -0.009847729740 0.01667088  0.00040830  0.0639947 0.8500
  3  -1223.8678733802  -0.007490698749 0.01085799  0.00031295  0.0486969 0.8500
  4  -1223.8737680993  -0.005894719068 0.00746092  0.00025621  0.0387953 0.8500
  5  -1223.8784843065  -0.004716207249 0.00588351  0.00021873  0.0321336 0.8500
  6  -1223.8823631505  -0.003878844031 0.03442580  0.00125813  0.0270942 0.0000
  7  -1223.9033214582  -0.020958307672 0.00151563  0.00005994  0.0012148 0.0000
                      *** Initiating the SOSCF procedure ***
                           *** Shutting down DIIS ***
                      *** Re-Reading the Fockian *** 
                      *** Removing any level shift *** 
ITER      Energy       Delta-E        Grad      Rot      Max-DP    RMS-DP
  8  -1223.90334997  -0.0000285072  0.000838  0.000838  0.000966  0.000034
               *** Restarting incremental Fock matrix formation ***
  9  -1223.90340929  -0.0000593205  0.000428  0.001054  0.000531  0.000024
 10  -1223.90341224  -0.0000029552  0.000219  0.001044  0.000625  0.000020
 11  -1223.90341302  -0.0000007827  0.000052  0.000141  0.000101  0.000005
 12  -1223.90341313  -0.0000001079  0.000012  0.000028  0.000040  0.000001
 13  -1223.90341313  -0.0000000019  0.000006  0.000024  0.000018  0.000001
                  ***Gradient check signals convergence***
              ***Rediagonalizing the Fockian in SOSCF/NRSCF***

               *****************************************************
               *                     SUCCESS                       *
               *           SCF CONVERGED AFTER  14 CYCLES          *
               *****************************************************

Old exchange energy                            =    -26.430134442 Eh
New exchange energy                            =    -26.430127245 Eh
Exchange energy change after final integration =      0.000007197 Eh
Total energy after final integration           =  -1223.903405938 Eh
Final COS-X integration done in                =    25.078 sec

----------------
TOTAL SCF ENERGY
----------------

Total Energy       :        -1223.90340594 Eh          -33304.10482 eV

Components:
Nuclear Repulsion  :          623.61742185 Eh           16969.49276 eV
Electronic Energy  :        -1847.52082779 Eh          -50273.59758 eV
One Electron Energy:        -2903.60374723 Eh          -79011.07481 eV
Two Electron Energy:         1056.08291943 Eh           28737.47722 eV
Max COSX asymmetry :            0.00000147 Eh               0.00004 eV
CPCM Dielectric    :           -0.08576093 Eh              -2.33367 eV

Virial components:
Potential Energy   :        -2442.57028971 Eh          -66465.71663 eV
Kinetic Energy     :         1218.66688378 Eh           33161.61181 eV
Virial Ratio       :            2.00429693


DFT components:
N(Alpha)           :       41.999993125563 electrons
N(Beta)            :       41.999993125563 electrons
N(Total)           :       83.999986251127 electrons
E(XC)              :      -73.311985039069 Eh       
DFET-embed. en.    :        0.000000000000 Eh       
CPCM Solvation Model Properties:
Surface-charge          :           -1.00938615
Charge-correction       :            0.00129809 Eh               0.03532 eV
Free-energy (cav+disp)  :  This term is not implemented in the current solvation scheme

---------------
SCF CONVERGENCE
---------------

  Last Energy change         ...   -2.3581e-09  Tolerance :   1.0000e-08
  Last MAX-Density change    ...    3.1086e-15  Tolerance :   1.0000e-07
  Last RMS-Density change    ...    5.9739e-17  Tolerance :   5.0000e-09
  Last Orbital Gradient      ...    9.2210e-07  Tolerance :   1.0000e-05
  Last Orbital Rotation      ...    1.9293e-06  Tolerance :   1.0000e-05

             **** THE GBW FILE WAS UPDATED (3_prot_aq_1.gbw) ****
             **** DENSITY 3_prot_aq_1.scfp WAS UPDATED ****
             **** ENERGY FILE WAS UPDATED (3_prot_aq_1.en.tmp) ****
             **** THE GBW FILE WAS UPDATED (3_prot_aq_1.gbw) ****
             **** DENSITY 3_prot_aq_1.scfp WAS UPDATED ****
----------------
ORBITAL ENERGIES
----------------

  NO   OCC          E(Eh)            E(eV) 
   0   2.0000    -101.524646     -2762.6261 
   1   2.0000    -101.524636     -2762.6258 
   2   2.0000     -14.536514      -395.5587 
   3   2.0000     -14.536490      -395.5580 
   4   2.0000     -10.403572      -283.0956 
   5   2.0000     -10.403096      -283.0826 
   6   2.0000     -10.402321      -283.0615 
   7   2.0000     -10.332177      -281.1528 
   8   2.0000     -10.332154      -281.1522 
   9   2.0000      -9.597092      -261.1501 
  10   2.0000      -9.597075      -261.1497 
  11   2.0000      -7.366523      -200.4533 
  12   2.0000      -7.366519      -200.4532 
  13   2.0000      -7.354640      -200.1299 
  14   2.0000      -7.354636      -200.1298 
  15   2.0000      -7.354573      -200.1281 
  16   2.0000      -7.354564      -200.1279 
  17   2.0000      -1.246725       -33.9251 
  18   2.0000      -1.129805       -30.7435 
  19   2.0000      -1.057012       -28.7628 
  20   2.0000      -1.021913       -27.8077 
  21   2.0000      -0.947824       -25.7916 
  22   2.0000      -0.898280       -24.4435 
  23   2.0000      -0.851335       -23.1660 
  24   2.0000      -0.777518       -21.1573 
  25   2.0000      -0.762769       -20.7560 
  26   2.0000      -0.689752       -18.7691 
  27   2.0000      -0.668426       -18.1888 
  28   2.0000      -0.624020       -16.9805 
  29   2.0000      -0.619777       -16.8650 
  30   2.0000      -0.606664       -16.5082 
  31   2.0000      -0.596498       -16.2315 
  32   2.0000      -0.591485       -16.0951 
  33   2.0000      -0.539091       -14.6694 
  34   2.0000      -0.538062       -14.6414 
  35   2.0000      -0.531558       -14.4644 
  36   2.0000      -0.497198       -13.5294 
  37   2.0000      -0.490321       -13.3423 
  38   2.0000      -0.463969       -12.6253 
  39   2.0000      -0.462149       -12.5757 
  40   2.0000      -0.424124       -11.5410 
  41   2.0000      -0.359810        -9.7909 
  42   0.0000       0.046640         1.2691 
  43   0.0000       0.068634         1.8676 
  44   0.0000       0.101055         2.7499 
  45   0.0000       0.146092         3.9754 
  46   0.0000       0.161063         4.3827 
  47   0.0000       0.167315         4.5529 
  48   0.0000       0.179243         4.8774 
  49   0.0000       0.203714         5.5433 
  50   0.0000       0.216917         5.9026 
  51   0.0000       0.227193         6.1822 
  52   0.0000       0.234596         6.3837 
  53   0.0000       0.249896         6.8000 
  54   0.0000       0.251505         6.8438 
  55   0.0000       0.279296         7.6000 
  56   0.0000       0.298022         8.1096 
  57   0.0000       0.315268         8.5789 
  58   0.0000       0.379865        10.3367 
  59   0.0000       0.386799        10.5253 
  60   0.0000       0.425703        11.5840 
  61   0.0000       0.452616        12.3163 
  62   0.0000       0.453254        12.3337 
  63   0.0000       0.497753        13.5445 
  64   0.0000       0.507733        13.8161 
  65   0.0000       0.530190        14.4272 
  66   0.0000       0.542206        14.7542 
  67   0.0000       0.560336        15.2475 
  68   0.0000       0.565701        15.3935 
  69   0.0000       0.635053        17.2807 
  70   0.0000       0.641766        17.4633 
  71   0.0000       0.642119        17.4730 
  72   0.0000       0.653707        17.7883 
  73   0.0000       0.678828        18.4719 
  74   0.0000       0.681727        18.5507 
  75   0.0000       0.719768        19.5859 
  76   0.0000       0.723861        19.6972 
  77   0.0000       0.740762        20.1572 
  78   0.0000       0.744700        20.2643 
  79   0.0000       0.746684        20.3183 
  80   0.0000       0.751598        20.4520 
  81   0.0000       0.760804        20.7025 
  82   0.0000       0.779326        21.2065 
  83   0.0000       0.787960        21.4415 
  84   0.0000       0.792299        21.5595 
  85   0.0000       0.802558        21.8387 
  86   0.0000       0.817253        22.2386 
  87   0.0000       0.833170        22.6717 
  88   0.0000       0.840943        22.8832 
  89   0.0000       0.848079        23.0774 
  90   0.0000       0.855085        23.2681 
  91   0.0000       0.862499        23.4698 
  92   0.0000       0.897646        24.4262 
  93   0.0000       0.918599        24.9964 
  94   0.0000       0.923097        25.1187 
  95   0.0000       0.930814        25.3287 
  96   0.0000       0.953117        25.9356 
  97   0.0000       0.968130        26.3441 
  98   0.0000       1.012386        27.5484 
  99   0.0000       1.015208        27.6252 
 100   0.0000       1.023100        27.8400 
 101   0.0000       1.102686        30.0056 
 102   0.0000       1.132975        30.8298 
 103   0.0000       1.142683        31.0940 
 104   0.0000       1.167225        31.7618 
 105   0.0000       1.224677        33.3252 
 106   0.0000       1.235327        33.6150 
 107   0.0000       1.253618        34.1127 
 108   0.0000       1.277162        34.7533 
 109   0.0000       1.302190        35.4344 
 110   0.0000       1.303188        35.4615 
 111   0.0000       1.364812        37.1384 
 112   0.0000       1.365548        37.1584 
 113   0.0000       1.477657        40.2091 
 114   0.0000       1.536471        41.8095 
 115   0.0000       1.537920        41.8489 
 116   0.0000       1.579445        42.9789 
 117   0.0000       1.590680        43.2846 
 118   0.0000       1.595296        43.4102 
 119   0.0000       1.617652        44.0185 
 120   0.0000       1.620478        44.0955 
 121   0.0000       1.647078        44.8193 
 122   0.0000       1.714996        46.6674 
 123   0.0000       1.715485        46.6807 
 124   0.0000       1.821514        49.5659 
 125   0.0000       1.839074        50.0437 
 126   0.0000       1.842047        50.1246 
 127   0.0000       1.876417        51.0599 
 128   0.0000       1.909092        51.9490 
 129   0.0000       1.927985        52.4631 
 130   0.0000       1.931606        52.5617 
 131   0.0000       1.939413        52.7741 
 132   0.0000       1.944022        52.8995 
 133   0.0000       1.996240        54.3204 
 134   0.0000       2.001493        54.4634 
 135   0.0000       2.101911        57.1959 
 136   0.0000       2.113523        57.5119 
 137   0.0000       2.117660        57.6245 
 138   0.0000       2.121852        57.7385 
 139   0.0000       2.122173        57.7473 
 140   0.0000       2.171958        59.1020 
 141   0.0000       2.195986        59.7558 
 142   0.0000       2.258201        61.4488 
 143   0.0000       2.292121        62.3718 
 144   0.0000       2.338422        63.6317 
 145   0.0000       2.405746        65.4637 
 146   0.0000       2.411862        65.6301 
 147   0.0000       2.456341        66.8404 
 148   0.0000       2.486990        67.6744 
 149   0.0000       2.512037        68.3560 
 150   0.0000       2.515410        68.4478 
 151   0.0000       2.563484        69.7559 
 152   0.0000       2.693174        73.2850 
 153   0.0000       2.713727        73.8443 
 154   0.0000       2.758368        75.0590 
 155   0.0000       2.814631        76.5900 
 156   0.0000       2.823179        76.8226 
 157   0.0000       2.845023        77.4170 
 158   0.0000       2.862484        77.8921 
 159   0.0000       2.878202        78.3199 
 160   0.0000       2.909551        79.1729 
 161   0.0000       3.030141        82.4543 
 162   0.0000       3.031274        82.4852 
 163   0.0000       3.036607        82.6303 
 164   0.0000       3.065848        83.4260 
 165   0.0000       3.219919        87.6185 
 166   0.0000       3.259507        88.6957 
 167   0.0000       3.420770        93.0839 
 168   0.0000       3.539534        96.3156 

                    ********************************
                    * MULLIKEN POPULATION ANALYSIS *
                    ********************************

-----------------------
MULLIKEN ATOMIC CHARGES
-----------------------
   0 N :   -0.203319
   1 C :    0.258190
   2 N :   -0.203331
   3 C :    0.121985
   4 C :    0.121959
   5 C :    0.081500
   6 C :    0.081503
   7 H :    0.098449
   8 H :    0.100889
   9 H :    0.098555
  10 H :    0.098461
  11 H :    0.098546
  12 H :    0.100885
  13 H :    0.143254
  14 Cl:    0.001237
  15 Cl:    0.001236
Sum of atomic charges:    1.0000000

--------------------------------
MULLIKEN REDUCED ORBITAL CHARGES
--------------------------------
  0 N s       :     3.399449  s :     3.399449
      pz      :     1.468767  p :     3.769733
      px      :     1.166822
      py      :     1.134144
      dz2     :     0.002498  d :     0.034137
      dxz     :     0.006378
      dyz     :     0.006641
      dx2y2   :     0.008811
      dxy     :     0.009808
  1 C s       :     3.082457  s :     3.082457
      pz      :     0.918075  p :     2.591745
      px      :     0.760395
      py      :     0.913276
      dz2     :     0.005251  d :     0.067608
      dxz     :     0.016711
      dyz     :     0.006729
      dx2y2   :     0.016064
      dxy     :     0.022852
  2 N s       :     3.399459  s :     3.399459
      pz      :     1.468776  p :     3.769736
      px      :     1.166824
      py      :     1.134136
      dz2     :     0.002498  d :     0.034135
      dxz     :     0.006378
      dyz     :     0.006641
      dx2y2   :     0.008810
      dxy     :     0.009808
  3 C s       :     3.008503  s :     3.008503
      pz      :     1.104171  p :     2.799723
      px      :     0.926849
      py      :     0.768703
      dz2     :     0.005427  d :     0.069788
      dxz     :     0.010946
      dyz     :     0.012062
      dx2y2   :     0.022873
      dxy     :     0.018480
  4 C s       :     3.008501  s :     3.008501
      pz      :     1.104174  p :     2.799750
      px      :     0.926873
      py      :     0.768703
      dz2     :     0.005427  d :     0.069790
      dxz     :     0.010945
      dyz     :     0.012063
      dx2y2   :     0.022875
      dxy     :     0.018479
  5 C s       :     3.007538  s :     3.007538
      pz      :     1.078187  p :     2.873782
      px      :     0.738075
      py      :     1.057520
      dz2     :     0.007363  d :     0.037180
      dxz     :     0.008854
      dyz     :     0.003307
      dx2y2   :     0.011557
      dxy     :     0.006099
  6 C s       :     3.007537  s :     3.007537
      pz      :     1.078190  p :     2.873779
      px      :     0.738090
      py      :     1.057500
      dz2     :     0.007363  d :     0.037180
      dxz     :     0.008854
      dyz     :     0.003307
      dx2y2   :     0.011556
      dxy     :     0.006100
  7 H s       :     0.877348  s :     0.877348
      pz      :     0.012741  p :     0.024203
      px      :     0.005521
      py      :     0.005941
  8 H s       :     0.874687  s :     0.874687
      pz      :     0.004992  p :     0.024424
      px      :     0.002543
      py      :     0.016888
  9 H s       :     0.877249  s :     0.877249
      pz      :     0.012787  p :     0.024196
      px      :     0.005502
      py      :     0.005908
 10 H s       :     0.877337  s :     0.877337
      pz      :     0.012745  p :     0.024202
      px      :     0.005520
      py      :     0.005937
 11 H s       :     0.877258  s :     0.877258
      pz      :     0.012782  p :     0.024197
      px      :     0.005504
      py      :     0.005911
 12 H s       :     0.874691  s :     0.874691
      pz      :     0.004992  p :     0.024424
      px      :     0.002543
      py      :     0.016889
 13 H s       :     0.831490  s :     0.831490
      pz      :     0.004254  p :     0.025256
      px      :     0.001263
      py      :     0.019738
 14 Cls       :     5.940388  s :     5.940388
      pz      :     3.918556  p :    11.015086
      px      :     3.602865
      py      :     3.493665
      dz2     :     0.006662  d :     0.043289
      dxz     :     0.004730
      dyz     :     0.006189
      dx2y2   :     0.005659
      dxy     :     0.020049
 15 Cls       :     5.940392  s :     5.940392
      pz      :     3.918555  p :    11.015082
      px      :     3.602942
      py      :     3.493585
      dz2     :     0.006662  d :     0.043291
      dxz     :     0.004730
      dyz     :     0.006190
      dx2y2   :     0.005660
      dxy     :     0.020049


                     *******************************
                     * LOEWDIN POPULATION ANALYSIS *
                     *******************************

----------------------
LOEWDIN ATOMIC CHARGES
----------------------
   0 N :    0.094287
   1 C :    0.154020
   2 N :    0.094276
   3 C :   -0.140374
   4 C :   -0.140387
   5 C :    0.051117
   6 C :    0.051116
   7 H :    0.053821
   8 H :    0.060305
   9 H :    0.053875
  10 H :    0.053826
  11 H :    0.053870
  12 H :    0.060301
  13 H :    0.074020
  14 Cl:    0.212958
  15 Cl:    0.212969

-------------------------------
LOEWDIN REDUCED ORBITAL CHARGES
-------------------------------
  0 N s       :     3.043122  s :     3.043122
      pz      :     1.397472  p :     3.784641
      px      :     1.196677
      py      :     1.190491
      dz2     :     0.004735  d :     0.077950
      dxz     :     0.010164
      dyz     :     0.012913
      dx2y2   :     0.024157
      dxy     :     0.025981
  1 C s       :     2.833415  s :     2.833415
      pz      :     0.942871  p :     2.856199
      px      :     0.886934
      py      :     1.026394
      dz2     :     0.011177  d :     0.156367
      dxz     :     0.034395
      dyz     :     0.010455
      dx2y2   :     0.040691
      dxy     :     0.059649
  2 N s       :     3.043131  s :     3.043131
      pz      :     1.397482  p :     3.784646
      px      :     1.196674
      py      :     1.190490
      dz2     :     0.004735  d :     0.077947
      dxz     :     0.010163
      dyz     :     0.012912
      dx2y2   :     0.024153
      dxy     :     0.025983
  3 C s       :     2.880784  s :     2.880784
      pz      :     1.117303  p :     3.101263
      px      :     1.047236
      py      :     0.936723
      dz2     :     0.011206  d :     0.158327
      dxz     :     0.021279
      dyz     :     0.022941
      dx2y2   :     0.060620
      dxy     :     0.042281
  4 C s       :     2.880773  s :     2.880773
      pz      :     1.117303  p :     3.101282
      px      :     1.047233
      py      :     0.936745
      dz2     :     0.011206  d :     0.158333
      dxz     :     0.021278
      dyz     :     0.022944
      dx2y2   :     0.060626
      dxy     :     0.042279
  5 C s       :     2.821608  s :     2.821608
      pz      :     1.103354  p :     3.033173
      px      :     0.846256
      py      :     1.083563
      dz2     :     0.018166  d :     0.094101
      dxz     :     0.024187
      dyz     :     0.007259
      dx2y2   :     0.029548
      dxy     :     0.014941
  6 C s       :     2.821609  s :     2.821609
      pz      :     1.103355  p :     3.033173
      px      :     0.846268
      py      :     1.083550
      dz2     :     0.018166  d :     0.094102
      dxz     :     0.024189
      dyz     :     0.007258
      dx2y2   :     0.029546
      dxy     :     0.014943
  7 H s       :     0.878232  s :     0.878232
      pz      :     0.034739  p :     0.067947
      px      :     0.016699
      py      :     0.016508
  8 H s       :     0.871268  s :     0.871268
      pz      :     0.013674  p :     0.068428
      px      :     0.008399
      py      :     0.046355
  9 H s       :     0.878189  s :     0.878189
      pz      :     0.034869  p :     0.067936
      px      :     0.016651
      py      :     0.016416
 10 H s       :     0.878229  s :     0.878229
      pz      :     0.034751  p :     0.067945
      px      :     0.016695
      py      :     0.016498
 11 H s       :     0.878194  s :     0.878194
      pz      :     0.034856  p :     0.067936
      px      :     0.016657
      py      :     0.016424
 12 H s       :     0.871269  s :     0.871269
      pz      :     0.013675  p :     0.068429
      px      :     0.008399
      py      :     0.046356
 13 H s       :     0.849089  s :     0.849089
      pz      :     0.014272  p :     0.076891
      px      :     0.006771
      py      :     0.055848
 14 Cls       :     5.729807  s :     5.729807
      pz      :     3.896806  p :    11.006110
      px      :     3.606175
      py      :     3.503130
      dz2     :     0.007950  d :     0.051125
      dxz     :     0.005477
      dyz     :     0.007056
      dx2y2   :     0.006118
      dxy     :     0.024523
 15 Cls       :     5.729798  s :     5.729798
      pz      :     3.896803  p :    11.006105
      px      :     3.606243
      py      :     3.503059
      dz2     :     0.007951  d :     0.051128
      dxz     :     0.005477
      dyz     :     0.007058
      dx2y2   :     0.006120
      dxy     :     0.024522


                      *****************************
                      * MAYER POPULATION ANALYSIS *
                      *****************************

  NA   - Mulliken gross atomic population
  ZA   - Total nuclear charge
  QA   - Mulliken gross atomic charge
  VA   - Mayer's total valence
  BVA  - Mayer's bonded valence
  FA   - Mayer's free valence

  ATOM       NA         ZA         QA         VA         BVA        FA
  0 N      7.2033     7.0000    -0.2033     3.5225     3.5225    -0.0000
  1 C      5.7418     6.0000     0.2582     3.8529     3.8529    -0.0000
  2 N      7.2033     7.0000    -0.2033     3.5225     3.5225     0.0000
  3 C      5.8780     6.0000     0.1220     3.9782     3.9782    -0.0000
  4 C      5.8780     6.0000     0.1220     3.9782     3.9782    -0.0000
  5 C      5.9185     6.0000     0.0815     3.8400     3.8400     0.0000
  6 C      5.9185     6.0000     0.0815     3.8400     3.8400    -0.0000
  7 H      0.9016     1.0000     0.0984     0.9954     0.9954    -0.0000
  8 H      0.8991     1.0000     0.1009     0.9981     0.9981    -0.0000
  9 H      0.9014     1.0000     0.0986     0.9953     0.9953    -0.0000
 10 H      0.9015     1.0000     0.0985     0.9953     0.9953    -0.0000
 11 H      0.9015     1.0000     0.0985     0.9953     0.9953     0.0000
 12 H      0.8991     1.0000     0.1009     0.9981     0.9981    -0.0000
 13 H      0.8567     1.0000     0.1433     0.9917     0.9917     0.0000
 14 Cl    16.9988    17.0000     0.0012     1.2423     1.2423    -0.0000
 15 Cl    16.9988    17.0000     0.0012     1.2423     1.2423    -0.0000

  Mayer bond orders larger than 0.100000
B(  0-N ,  1-C ) :   1.3462 B(  0-N ,  4-C ) :   1.1807 B(  0-N ,  5-C ) :   0.8949 
B(  1-C ,  2-N ) :   1.3462 B(  1-C , 13-H ) :   0.9662 B(  2-N ,  3-C ) :   1.1806 
B(  2-N ,  6-C ) :   0.8949 B(  3-C ,  4-C ) :   1.5429 B(  3-C , 14-Cl) :   1.1312 
B(  4-C , 15-Cl) :   1.1312 B(  5-C ,  7-H ) :   0.9705 B(  5-C ,  8-H ) :   0.9675 
B(  5-C ,  9-H ) :   0.9706 B(  6-C , 10-H ) :   0.9705 B(  6-C , 11-H ) :   0.9706 
B(  6-C , 12-H ) :   0.9675 

-------
TIMINGS
-------

Total SCF time: 0 days 0 hours 2 min 44 sec 

Total time                  ....     164.403 sec
Sum of individual times     ....     164.053 sec  ( 99.8%)

Fock matrix formation       ....     161.306 sec  ( 98.1%)
  Split-RI-J                ....       6.025 sec  (  3.7% of F)
  Chain of spheres X        ....     130.280 sec  ( 80.8% of F)
  XC integration            ....      16.387 sec  ( 10.2% of F)
    Basis function eval.    ....       5.823 sec  ( 35.5% of XC)
    Density eval.           ....       3.638 sec  ( 22.2% of XC)
    XC-Functional eval.     ....       2.632 sec  ( 16.1% of XC)
    XC-Potential eval.      ....       3.729 sec  ( 22.8% of XC)
Diagonalization             ....       0.048 sec  (  0.0%)
Density matrix formation    ....       0.009 sec  (  0.0%)
Population analysis         ....       0.007 sec  (  0.0%)
Initial guess               ....       0.481 sec  (  0.3%)
Orbital Transformation      ....       0.000 sec  (  0.0%)
Orbital Orthonormalization  ....       0.000 sec  (  0.0%)
DIIS solution               ....       0.015 sec  (  0.0%)
SOSCF solution              ....       0.024 sec  (  0.0%)
Grid generation             ....       2.164 sec  (  1.3%)

Maximum memory used throughout the entire SCF-calculation: 73.4 MB


-------------------------------------------------------------------------------
                          DFT DISPERSION CORRECTION                            
                                                                               
                                 DFTD4 V2.5                                    
-------------------------------------------------------------------------------
The WB97X functional is recognized
Active option DFTDOPT                   ...         5   

Starting D4
-------------------------   ----------------
Dispersion correction           -0.002510715
-------------------------   ----------------


-------------------------   --------------------
FINAL SINGLE POINT ENERGY     -1223.905916653835
-------------------------   --------------------

------------------------------------------------------------------------------
                         ORCA SCF GRADIENT CALCULATION
------------------------------------------------------------------------------

 ... reading COSX grid (gridx3)
Gradient of the Kohn-Sham DFT energy:
Kohn-Sham wavefunction type      ... RKS
Hartree-Fock exchange scaling    ...    0.158
Number of operators              ...    1
Number of atoms                  ...   16
Basis set dimensions             ...  169
Integral neglect threshold       ... 2.5e-11
Integral primitive cutoff        ... 2.5e-12
SHARK Integral package           ... ON

Nuc. rep. gradient       (SHARK) ... done (  0.0 sec)
HCore & Overlap gradient (SHARK) ... done (  0.2 sec)
RI-J gradient            (SHARK) ... done (  1.5 sec)
COSX-gradient                    ... done ( 27.2 sec)
Exchange-correlation gradient    ... done
Dispersion correction            ... Starting D4


------------------- 
Dispersion Gradient 
------------------- 
   1  :   -0.000011237   -0.000006278    0.000000002
   2  :    0.000000001   -0.000004124   -0.000000000
   3  :    0.000011237   -0.000006278    0.000000002
   4  :    0.000005330   -0.000000241    0.000000000
   5  :   -0.000005331   -0.000000240    0.000000000
   6  :   -0.000036997   -0.000014577   -0.000000003
   7  :    0.000036997   -0.000014578   -0.000000003
   8  :   -0.000008837   -0.000002220    0.000001573
   9  :   -0.000009524   -0.000006591    0.000000006
  10  :   -0.000008839   -0.000002235   -0.000001579
  11  :    0.000008837   -0.000002222    0.000001573
  12  :    0.000008839   -0.000002234   -0.000001579
  13  :    0.000009524   -0.000006591    0.000000005
  14  :   -0.000000000   -0.000008955   -0.000000000
  15  :    0.000035248    0.000038681    0.000000001
  16  :   -0.000035248    0.000038681    0.000000001

  |G| =    0.000098620

done

------------------
CARTESIAN GRADIENT
------------------

   1   N   :   -0.014533254   -0.002315462   -0.000003646
   2   C   :    0.000006246   -0.008621688   -0.000006273
   3   N   :    0.014564509   -0.002290918   -0.000002936
   4   C   :    0.014862775   -0.007132293    0.000002838
   5   C   :   -0.014899112   -0.007152299    0.000002511
   6   C   :    0.012058129    0.002524606    0.000025809
   7   C   :   -0.012061952    0.002503983    0.000021372
   8   H   :    0.000817174   -0.001550394   -0.005427394
   9   H   :   -0.001605711    0.006074195   -0.000022545
  10   H   :    0.000811132   -0.001533532    0.005430914
  11   H   :   -0.000814653   -0.001546134   -0.005425394
  12   H   :   -0.000809866   -0.001532510    0.005428003
  13   H   :    0.001601957    0.006081576   -0.000018359
  14   H   :   -0.000012541    0.012614609   -0.000001624
  15   Cl  :    0.003465231    0.001612089   -0.000000031
  16   Cl  :   -0.003449830    0.001613817    0.000000087

Difference to translation invariance:
           :    0.0000002332   -0.0006503556    0.0000033318

Difference to rotation invariance:
           :   -0.0000005485    0.0000002553    0.0000007201

Norm of the cartesian gradient     ...    0.0418806072
RMS gradient                       ...    0.0060449450
MAX gradient                       ...    0.0148991123

-------
TIMINGS
-------

Total SCF gradient time            ...       35.545 sec

One electron gradient       ....       0.227 sec  (  0.6%)
RI-J Coulomb gradient       ....       1.527 sec  (  4.3%)
COSX gradient               ....      27.205 sec  ( 76.5%)
XC gradient                 ....       5.096 sec  ( 14.3%)
CPCM gradient               ....       0.513 sec  (  1.4%)
   A-Matrix (El+Nuc)        ....       0.041 sec  (  0.1%)
   Potential                ....       0.471 sec  (  1.3%)

Maximum memory used throughout the entire SCFGRAD-calculation: 59.7 MB
------------------------------------------------------------------------------
                         ORCA GEOMETRY RELAXATION STEP
------------------------------------------------------------------------------

Reading the OPT-File                    .... done
Getting information on internals        .... done
Copying old internal coords+grads       .... done
Making the new internal coordinates     .... (new redundants).... done
Validating the new internal coordinates .... (new redundants).... done
Calculating the B-matrix                .... done
Calculating the G,G- and P matrices     .... done
Transforming gradient to internals      .... done
Projecting the internal gradient        .... done
Number of atoms                         ....  16
Number of internal coordinates          ....  75
Current Energy                          .... -1223.905916654 Eh
Current gradient norm                   ....     0.041880607 Eh/bohr
Maximum allowed component of the step   ....  0.300
Current trust radius                    ....  0.300
Evaluating the initial hessian          ....  (Almloef) done
Projecting the Hessian                  .... done
Forming the augmented Hessian           .... done
Diagonalizing the augmented Hessian     .... done
Last element of RFO vector              ....  0.996870026
Lowest eigenvalues of augmented Hessian:
 -0.002660355  0.018791415  0.018791703  0.026428860  0.027162631
Length of the computed step             ....  0.079306122
The final length of the internal step   ....  0.079306122
Converting the step to cartesian space:
 Initial RMS(Int)=    0.0091574821
Transforming coordinates:
 Iter   0:  RMS(Cart)=    0.0160895951 RMS(Int)=    0.7255751134
 Iter   1:  RMS(Cart)=    0.0001190992 RMS(Int)=    0.0000529726
 Iter   2:  RMS(Cart)=    0.0000012788 RMS(Int)=    0.0000009189
 Iter   3:  RMS(Cart)=    0.0000000125 RMS(Int)=    0.0000000076
done
Storing new coordinates                 .... done

                                .--------------------.
          ----------------------|Geometry convergence|-------------------------
          Item                value                   Tolerance       Converged
          ---------------------------------------------------------------------
          RMS gradient        0.0040145234            0.0001000000      NO
          MAX gradient        0.0164834620            0.0003000000      NO
          RMS step            0.0091574821            0.0020000000      NO
          MAX step            0.0328903390            0.0040000000      NO
          ........................................................
          Max(Bonds)      0.0174      Max(Angles)    0.68
          Max(Dihed)        0.30      Max(Improp)    0.00
          ---------------------------------------------------------------------

The optimization has not yet converged - more geometry cycles are needed


    ---------------------------------------------------------------------------
                         Redundant Internal Coordinates
                            (Angstroem and degrees)

        Definition                    Value    dE/dq     Step     New-Value
    ----------------------------------------------------------------------------
     1. B(C   1,N   0)                1.3325  0.002358 -0.0016    1.3309   
     2. B(N   2,C   1)                1.3325  0.002374 -0.0016    1.3309   
     3. B(C   3,N   2)                1.3727 -0.005748  0.0050    1.3777   
     4. B(C   4,N   0)                1.3727 -0.005757  0.0050    1.3777   
     5. B(C   4,C   3)                1.3817  0.016483 -0.0138    1.3680   
     6. B(C   5,N   0)                1.4381 -0.013235  0.0148    1.4529   
     7. B(C   6,N   2)                1.4381 -0.013236  0.0149    1.4529   
     8. B(H   7,C   5)                1.0903 -0.005309  0.0078    1.0981   
     9. B(H   8,C   5)                1.0870 -0.006053  0.0087    1.0957   
    10. B(H   9,C   5)                1.0904 -0.005309  0.0078    1.0981   
    11. B(H  10,C   6)                1.0903 -0.005305  0.0077    1.0981   
    12. B(H  11,C   6)                1.0904 -0.005305  0.0077    1.0981   
    13. B(H  12,C   6)                1.0870 -0.006060  0.0087    1.0957   
    14. B(H  13,C   1)                1.0739 -0.012655  0.0174    1.0913   
    15. B(Cl 14,C   3)                1.6938  0.003506 -0.0040    1.6898   
    16. B(Cl 15,C   4)                1.6938  0.003497 -0.0040    1.6898   
    17. A(C   1,N   0,C   4)          108.15 -0.001042    0.16    108.31   
    18. A(C   4,N   0,C   5)          124.63 -0.002850    0.39    125.01   
    19. A(C   1,N   0,C   5)          127.22  0.003892   -0.55    126.67   
    20. A(N   2,C   1,H  13)          125.08 -0.001825    0.21    125.30   
    21. A(N   0,C   1,H  13)          125.07 -0.001854    0.22    125.29   
    22. A(N   0,C   1,N   2)          109.85  0.003679   -0.43    109.42   
    23. A(C   1,N   2,C   3)          108.15 -0.001051    0.16    108.31   
    24. A(C   3,N   2,C   6)          124.63 -0.002830    0.38    125.02   
    25. A(C   1,N   2,C   6)          127.22  0.003880   -0.55    126.67   
    26. A(N   2,C   3,Cl 14)          122.63 -0.002108    0.31    122.93   
    27. A(C   4,C   3,Cl 14)          130.45  0.002901   -0.36    130.09   
    28. A(N   2,C   3,C   4)          106.92 -0.000793    0.05    106.98   
    29. A(N   0,C   4,Cl 15)          122.64 -0.002088    0.30    122.94   
    30. A(N   0,C   4,C   3)          106.92 -0.000794    0.05    106.98   
    31. A(C   3,C   4,Cl 15)          130.44  0.002882   -0.36    130.08   
    32. A(H   8,C   5,H   9)          109.49 -0.001304    0.13    109.62   
    33. A(H   7,C   5,H   9)          108.29 -0.002549    0.68    108.97   
    34. A(N   0,C   5,H   9)          109.89  0.001317   -0.20    109.69   
    35. A(H   7,C   5,H   8)          109.49 -0.001296    0.13    109.62   
    36. A(N   0,C   5,H   8)          109.79  0.002424   -0.52    109.26   
    37. A(N   0,C   5,H   7)          109.88  0.001321   -0.20    109.68   
    38. A(H  11,C   6,H  12)          109.49 -0.001301    0.13    109.62   
    39. A(H  10,C   6,H  12)          109.49 -0.001294    0.13    109.62   
    40. A(N   2,C   6,H  12)          109.78  0.002419   -0.52    109.26   
    41. A(H  10,C   6,H  11)          108.29 -0.002550    0.68    108.97   
    42. A(N   2,C   6,H  11)          109.89  0.001318   -0.20    109.69   
    43. A(N   2,C   6,H  10)          109.88  0.001321   -0.20    109.68   
    44. D(H  13,C   1,N   0,C   5)     -0.01  0.000000   -0.00     -0.01   
    45. D(N   2,C   1,N   0,C   5)    179.99 -0.000000   -0.00    179.99   
    46. D(N   2,C   1,N   0,C   4)      0.00  0.000001   -0.00      0.00   
    47. D(H  13,C   1,N   0,C   4)    180.00  0.000001   -0.00    180.00   
    48. D(C   6,N   2,C   1,N   0)   -179.99  0.000000    0.00   -179.99   
    49. D(C   3,N   2,C   1,N   0)     -0.00 -0.000001    0.00     -0.00   
    50. D(C   3,N   2,C   1,H  13)   -180.00 -0.000001    0.00   -180.00   
    51. D(C   6,N   2,C   1,H  13)      0.01 -0.000000    0.00      0.01   
    52. D(Cl 14,C   3,N   2,C   1)   -180.00  0.000001   -0.00   -180.00   
    53. D(Cl 14,C   3,N   2,C   6)     -0.01  0.000000   -0.00     -0.01   
    54. D(C   4,C   3,N   2,C   6)    179.99  0.000000    0.00    179.99   
    55. D(C   4,C   3,N   2,C   1)      0.00  0.000000   -0.00      0.00   
    56. D(Cl 15,C   4,N   0,C   1)    180.00 -0.000001    0.00    180.00   
    57. D(C   3,C   4,N   0,C   5)   -179.99 -0.000001    0.00   -179.99   
    58. D(C   3,C   4,N   0,C   1)     -0.00 -0.000001    0.00     -0.00   
    59. D(Cl 15,C   4,C   3,Cl 14)      0.00 -0.000000    0.00      0.00   
    60. D(Cl 15,C   4,C   3,N   2)    180.00  0.000000   -0.00    180.00   
    61. D(N   0,C   4,C   3,Cl 14)   -180.00 -0.000000    0.00   -180.00   
    62. D(N   0,C   4,C   3,N   2)      0.00  0.000000   -0.00      0.00   
    63. D(Cl 15,C   4,N   0,C   5)      0.01 -0.000001    0.00      0.01   
    64. D(H   9,C   5,N   0,C   4)     59.67 -0.000751    0.29     59.96   
    65. D(H   9,C   5,N   0,C   1)   -120.32 -0.000750    0.29   -120.03   
    66. D(H   8,C   5,N   0,C   4)   -179.86 -0.000003   -0.00   -179.86   
    67. D(H   8,C   5,N   0,C   1)      0.16 -0.000002   -0.00      0.15   
    68. D(H   7,C   5,N   0,C   4)    -59.38  0.000759   -0.30    -59.68   
    69. D(H   7,C   5,N   0,C   1)    120.63  0.000759   -0.30    120.33   
    70. D(H  11,C   6,N   2,C   3)    -59.64  0.000752   -0.29    -59.94   
    71. D(H  11,C   6,N   2,C   1)    120.35  0.000751   -0.29    120.06   
    72. D(H  10,C   6,N   2,C   3)     59.41 -0.000758    0.30     59.71   
    73. D(H  12,C   6,N   2,C   1)     -0.13  0.000002    0.00     -0.12   
    74. D(H  10,C   6,N   2,C   1)   -120.60 -0.000759    0.30   -120.30   
    75. D(H  12,C   6,N   2,C   3)    179.88  0.000002    0.00    179.89   
    ----------------------------------------------------------------------------

         *************************************************************
         *                GEOMETRY OPTIMIZATION CYCLE   2            *
         *************************************************************
---------------------------------
CARTESIAN COORDINATES (ANGSTROEM)
---------------------------------
  N     -1.086286   -1.143686    0.000059
  C      0.000008   -1.912561    0.000062
  N      1.086282   -1.143657    0.000046
  C      0.683960    0.173967   -0.000009
  C     -0.684011    0.173946   -0.000001
  C     -2.467817   -1.593538   -0.000100
  C      2.467800   -1.593552   -0.000078
  H     -2.981160   -1.211683    0.892357
  H     -2.491258   -2.688985    0.002541
  H     -2.979691   -1.216019   -0.895267
  H      2.981020   -1.212123    0.892635
  H      2.979834   -1.215637   -0.894984
  H      2.491178   -2.689000    0.002062
  H     -0.000071   -3.003816    0.000128
  Cl     1.772095    1.466826   -0.000044
  Cl    -1.772075    1.466858   -0.000034

----------------------------
CARTESIAN COORDINATES (A.U.)
----------------------------
  NO LB      ZA    FRAG     MASS         X           Y           Z
   0 N     7.0000    0    14.007   -2.052782   -2.161254    0.000111
   1 C     6.0000    0    12.011    0.000014   -3.614217    0.000118
   2 N     7.0000    0    14.007    2.052776   -2.161199    0.000086
   3 C     6.0000    0    12.011    1.292496    0.328750   -0.000016
   4 C     6.0000    0    12.011   -1.292594    0.328711   -0.000003
   5 C     6.0000    0    12.011   -4.663499   -3.011351   -0.000189
   6 C     6.0000    0    12.011    4.663466   -3.011377   -0.000147
   7 H     1.0000    0     1.008   -5.633576   -2.289749    1.686311
   8 H     1.0000    0     1.008   -4.707795   -5.081445    0.004802
   9 H     1.0000    0     1.008   -5.630799   -2.297942   -1.691810
  10 H     1.0000    0     1.008    5.633312   -2.290580    1.686836
  11 H     1.0000    0     1.008    5.631071   -2.297220   -1.691274
[...]
     37       0.089912   0.048466   0.021531   0.008818   0.000661  -0.001229
     38      -0.000942  -0.003013   0.008441  -0.020924   0.483090  -0.479930
     39       0.000008   0.128892   0.028834  -0.000007  -0.000103  -0.000015
     40       0.145703  -0.000005  -0.000001  -0.041410   0.000231   0.001720
     41      -0.000034  -0.000000   0.000001   0.000004   0.000000  -0.000127
     42      -0.005065  -0.001711  -0.003048  -0.000110   0.000044   0.000009
     43      -0.006209  -0.003457  -0.004835  -0.000386   0.000063   0.000024
     44       0.000002   0.000004   0.000000   0.000001  -0.000026   0.000042
     45       0.005065  -0.001711  -0.003047   0.000111   0.000042  -0.000001
     46      -0.006209   0.003457   0.004834  -0.000387  -0.000058   0.000013
     47       0.000003  -0.000004  -0.000000   0.000002   0.000026   0.000043
                 36         37         38         39         40         41    
      0       0.094821  -0.008864  -0.215562   0.293362  -0.188585  -0.000147
      1       0.070883  -0.145896   0.122694  -0.044735   0.105714  -0.000081
      2       0.000010   0.000007  -0.000006   0.000031  -0.000027  -0.000001
      3       0.000001  -0.011630   0.000001  -0.483801  -0.000011  -0.001418
      4       0.014300  -0.000000  -0.238080   0.000001  -0.118205  -0.000001
      5      -0.000009   0.000000   0.000027  -0.000000   0.000012   0.000000
      6      -0.094820  -0.008857   0.215560   0.293361   0.188598  -0.000152
      7       0.070885   0.145892   0.122690   0.044734   0.105716   0.000080
      8       0.000006  -0.000008  -0.000007  -0.000025  -0.000024   0.000001
      9       0.001881   0.007592   0.150922  -0.057688  -0.588455   0.000019
     10      -0.072011  -0.142212   0.033422   0.045005  -0.087867   0.000662
     11       0.000004   0.000011  -0.000003  -0.000007   0.000009  -0.000000
     12      -0.001881   0.007592  -0.150921  -0.057707   0.588452   0.000019
     13      -0.072011   0.142217   0.033422  -0.045003  -0.087872  -0.000656
     14       0.000003  -0.000011  -0.000003   0.000006   0.000007   0.000000
     15       0.000088  -0.002542   0.045490  -0.035960   0.040130   0.032661
     16       0.018518   0.003583  -0.002072   0.002470  -0.025308   0.007803
     17      -0.000010  -0.000008  -0.000000  -0.000036   0.000020   0.000045
     18      -0.000088  -0.002543  -0.045490  -0.035960  -0.040132   0.032935
     19       0.018519  -0.003583  -0.002071  -0.002469  -0.025308  -0.007869
     20      -0.000010   0.000007  -0.000001   0.000029   0.000016  -0.000036
     21       0.007879  -0.180229   0.324312  -0.216342   0.144373  -0.190333
     22      -0.304458   0.205679  -0.070180  -0.073629   0.007850   0.144006
     23       0.135561  -0.178095   0.179731  -0.071914   0.038747   0.345429
     24      -0.506668   0.465341  -0.234195  -0.022985  -0.170246   0.002360
     25       0.009664   0.011246  -0.003088   0.005132  -0.029765  -0.376340
     26      -0.001192   0.001200  -0.000874   0.000106  -0.000164   0.000802
     27       0.007355  -0.179324   0.323238  -0.216260   0.143935  -0.190140
     28      -0.306434   0.208005  -0.072293  -0.073181   0.007443   0.142781
     29      -0.134457   0.177065  -0.178957   0.071889  -0.038568  -0.346754
     30      -0.007839  -0.180148  -0.324203  -0.216334  -0.144342  -0.191908
     31      -0.304666  -0.205894  -0.070374   0.073591   0.007817  -0.145099
     32       0.135474   0.177999   0.179649   0.071907   0.038731  -0.348449
     33      -0.007425  -0.179416  -0.323330  -0.216265  -0.143984  -0.191758
     34      -0.306251  -0.207779  -0.072092   0.073223   0.007485  -0.144084
     35      -0.134569  -0.177163  -0.179029  -0.071896  -0.038590   0.349527
     36       0.506684   0.465332   0.234193  -0.022986   0.170247   0.002383
     37       0.009660  -0.011250  -0.003090  -0.005131  -0.029767   0.379490
     38      -0.000945  -0.000961  -0.000704  -0.000088  -0.000130  -0.000661
     39      -0.000002  -0.237743  -0.000003   0.588216   0.000011   0.001445
     40       0.025469   0.000002  -0.300055  -0.000012  -0.170328   0.000001
     41       0.000016  -0.000000  -0.000006   0.000005   0.000008  -0.000000
     42       0.003452   0.004132  -0.007576   0.002370   0.024473  -0.000044
     43       0.004427   0.006650  -0.010362  -0.002283   0.019432  -0.000011
     44       0.000002   0.000000   0.000002  -0.000001  -0.000001   0.000000
     45      -0.003452   0.004132   0.007575   0.002371  -0.024473  -0.000043
     46       0.004427  -0.006650  -0.010362   0.002283   0.019432   0.000010
     47       0.000002  -0.000000   0.000002   0.000001  -0.000001  -0.000000
                 42         43         44         45         46         47    
      0      -0.000552   0.000002  -0.000002  -0.000351  -0.000234   0.003551
      1       0.000125   0.000001  -0.000001  -0.000443  -0.000373  -0.003084
      2      -0.000001  -0.000473   0.000380  -0.000000  -0.000001   0.000000
      3      -0.000006   0.000001  -0.000000  -0.000002   0.000134   0.000001
      4       0.000154  -0.000000   0.000002   0.000685   0.000011   0.094490
      5       0.000001  -0.000006  -0.000215   0.000003   0.000000  -0.000014
      6       0.000551   0.000001   0.000002   0.000358  -0.000223  -0.003552
      7       0.000126  -0.000001  -0.000001  -0.000455   0.000359  -0.003085
      8      -0.000001   0.000492   0.000354   0.000000   0.000001   0.000000
      9       0.000065   0.000001   0.000001   0.000574  -0.000432   0.000891
     10      -0.000696  -0.000001  -0.000001  -0.000116  -0.000012  -0.002007
     11       0.000000   0.000150   0.000052  -0.000000   0.000001   0.000000
     12      -0.000065   0.000001  -0.000001  -0.000560  -0.000450  -0.000891
     13      -0.000702   0.000001  -0.000001  -0.000117   0.000009  -0.002007
     14       0.000000  -0.000147   0.000060  -0.000000  -0.000001   0.000000
     15       0.032993  -0.000011   0.000012  -0.019535  -0.020183   0.000058
     16       0.007907  -0.000049   0.000052   0.064434   0.066434  -0.000442
     17       0.000045   0.066431  -0.070139   0.000042   0.000043   0.000003
     18      -0.032719  -0.000009  -0.000009   0.020161  -0.019560  -0.000058
     19       0.007842   0.000037   0.000036   0.066490  -0.064377  -0.000442
     20       0.000035  -0.070094  -0.066478   0.000031  -0.000030   0.000002
     21      -0.192248   0.220613  -0.232653   0.117128   0.121081  -0.002231
     22       0.145170  -0.170387   0.179841  -0.086717  -0.089577   0.000354
     23       0.348391  -0.395255   0.417071  -0.217493  -0.224633   0.002274
     24       0.002285  -0.000024   0.000025   0.006581   0.006814  -0.001799
     25      -0.379061   0.001881  -0.001989  -0.586521  -0.605050   0.007192
     26       0.000808   0.005113  -0.005382   0.001255   0.001294  -0.000011
     27      -0.192055  -0.220507   0.232540   0.115573   0.119483  -0.002230
     28       0.143935   0.169047  -0.178427  -0.084851  -0.087656   0.000352
     29      -0.349730  -0.397031   0.418945   0.215722   0.222819  -0.002290
     30       0.190634   0.232755   0.220486  -0.120710   0.117184   0.002231
     31       0.143853   0.179654   0.170331  -0.089299   0.086627   0.000354
     32       0.345626   0.417226   0.395465  -0.224252   0.217507   0.002276
     33       0.190487  -0.232666  -0.220402  -0.119440   0.115955   0.002230
     34       0.142847  -0.178487  -0.169226  -0.087750   0.085126   0.000352
     35      -0.346697   0.418725   0.396888   0.222814  -0.216119  -0.002289
     36      -0.002270  -0.000020  -0.000019  -0.006799   0.006612   0.001799
     37      -0.375914  -0.001574  -0.001501  -0.605243   0.586323   0.007192
     38       0.000655  -0.005396  -0.005102   0.001059  -0.001026  -0.000009
     39       0.000006  -0.000003   0.000000  -0.000017   0.001055  -0.000011
     40      -0.000249   0.000004  -0.000044  -0.011761  -0.000184  -0.995423
     41      -0.000003   0.000020   0.000740  -0.000006  -0.000001   0.000151
     42       0.000065   0.000000   0.000000  -0.000033   0.000009  -0.000021
     43       0.000044  -0.000000  -0.000000  -0.000012   0.000027  -0.000031
     44       0.000000  -0.000000   0.000004  -0.000000  -0.000000   0.000000
     45      -0.000066   0.000000  -0.000000   0.000032   0.000010   0.000021
     46       0.000044   0.000000  -0.000000  -0.000011  -0.000027  -0.000031
     47       0.000000   0.000001   0.000004   0.000000   0.000000   0.000000


-----------
IR SPECTRUM
-----------

 Mode   freq       eps      Int      T**2         TX        TY        TZ
       cm**-1   L/(mol*cm) km/mol    a.u.
----------------------------------------------------------------------------
  6:     77.92   0.000099    0.50  0.000395  (-0.000003 -0.000112  0.019876)
  7:     78.41   0.000000    0.00  0.000000  (-0.000031 -0.000012  0.000073)
  8:    108.91   0.000000    0.00  0.000000  (-0.000005 -0.000000  0.000004)
  9:    161.76   0.001142    5.77  0.002204  (-0.000000 -0.000032  0.046946)
 10:    171.39   0.000327    1.65  0.000596  ( 0.000000  0.024405  0.000033)
 11:    233.43   0.000004    0.02  0.000005  (-0.002319 -0.000001  0.000002)
 12:    268.65   0.000870    4.40  0.001010  (-0.000000  0.031784  0.000010)
 13:    280.94   0.000215    1.09  0.000239  (-0.000002 -0.000004 -0.015459)
 14:    320.68   0.000000    0.00  0.000000  ( 0.000009 -0.000001 -0.000000)
 15:    444.93   0.002472   12.49  0.001734  (-0.041642  0.000000  0.000000)
 16:    549.44   0.003071   15.52  0.001744  ( 0.000000  0.041761  0.000000)
 17:    555.46   0.000014    0.07  0.000008  ( 0.002764 -0.000001 -0.000002)
 18:    639.90   0.005152   26.04  0.002513  ( 0.000001  0.000001 -0.050127)
 19:    647.97   0.000024    0.12  0.000012  (-0.000000  0.003425  0.000182)
 20:    691.76   0.000000    0.00  0.000000  (-0.000013  0.000001  0.000000)
 21:    871.86   0.002652   13.40  0.000949  (-0.000022  0.000009  0.030807)
 22:    872.47   0.000102    0.52  0.000037  ( 0.006053 -0.000000  0.000109)
 23:   1103.75   0.002822   14.26  0.000798  (-0.028246 -0.000002 -0.000004)
 24:   1105.34   0.000882    4.46  0.000249  (-0.000003  0.015778 -0.000029)
 25:   1138.16   0.003706   18.73  0.001016  ( 0.000000  0.031878  0.000025)
 26:   1139.45   0.000000    0.00  0.000000  ( 0.000032 -0.000042 -0.000001)
 27:   1144.51   0.000305    1.54  0.000083  ( 0.000005 -0.000013  0.009116)
 28:   1204.96   0.028586  144.46  0.007403  (-0.086043  0.000001  0.000000)
 29:   1230.09   0.004142   20.93  0.001051  ( 0.032416 -0.000000  0.000000)
 30:   1408.45   0.000523    2.64  0.000116  (-0.000000  0.010761  0.000026)
 31:   1428.53   0.001256    6.35  0.000274  (-0.016562  0.000001  0.000016)
 32:   1434.28   0.002973   15.02  0.000647  ( 0.025433  0.000001 -0.000078)
 33:   1438.10   0.003644   18.41  0.000791  (-0.000004  0.028027 -0.002282)
 34:   1439.61   0.000001    0.01  0.000000  (-0.000450 -0.000166  0.000096)
 35:   1440.29   0.011864   59.96  0.002571  (-0.000039 -0.001235 -0.050686)
 36:   1466.71   0.016894   85.38  0.003595  (-0.000000 -0.059954 -0.000002)
 37:   1495.69   0.001577    7.97  0.000329  (-0.018137  0.000001  0.000001)
 38:   1525.71   0.000035    0.18  0.000007  ( 0.000001  0.002673 -0.000018)
 39:   1659.01   0.033093  167.24  0.006225  (-0.078897  0.000001 -0.000001)
 40:   1679.77   0.018940   95.72  0.003519  (-0.000002 -0.059318  0.000013)
 41:   3103.89   0.001677    8.48  0.000169  ( 0.012985 -0.000024  0.000001)
 42:   3103.99   0.000322    1.63  0.000032  ( 0.000054  0.005688  0.000008)
 43:   3226.12   0.000000    0.00  0.000000  (-0.000001  0.000000  0.000079)
 44:   3226.13   0.000090    0.46  0.000009  ( 0.000000 -0.000003  0.002959)
 45:   3238.32   0.000380    1.92  0.000037  (-0.000023 -0.006049  0.000007)
 46:   3238.37   0.000022    0.11  0.000002  ( 0.001465 -0.000095  0.000001)
 47:   3298.69   0.016562   83.70  0.001567  (-0.000000 -0.039583  0.000006)

* The epsilon (eps) is given for a Dirac delta lineshape.
** The dipole moment derivative (T) already includes vibrational overlap.

The first frequency considered to be a vibration is 6
The total number of vibrations considered is 42


--------------------------
THERMOCHEMISTRY AT 298.15K
--------------------------

Temperature         ... 298.15 K
Pressure            ... 1.00 atm
Total Mass          ... 166.03 AMU

Throughout the following assumptions are being made:
  (1) The electronic state is orbitally nondegenerate
  (2) There are no thermally accessible electronically excited states
  (3) Hindered rotations indicated by low frequency modes are not
      treated as such but are treated as vibrations and this may
      cause some error
  (4) All equations used are the standard statistical mechanics
      equations for an ideal gas
  (5) All vibrations are strictly harmonic

freq.      77.92  E(vib)   ...       0.49 
freq.      78.41  E(vib)   ...       0.49 
freq.     108.91  E(vib)   ...       0.45 
freq.     161.76  E(vib)   ...       0.39 
freq.     171.39  E(vib)   ...       0.38 
freq.     233.43  E(vib)   ...       0.32 
freq.     268.65  E(vib)   ...       0.29 
freq.     280.94  E(vib)   ...       0.28 
freq.     320.68  E(vib)   ...       0.25 
freq.     444.93  E(vib)   ...       0.17 
freq.     549.44  E(vib)   ...       0.12 
freq.     555.46  E(vib)   ...       0.12 
freq.     639.90  E(vib)   ...       0.09 
freq.     647.97  E(vib)   ...       0.08 
freq.     691.76  E(vib)   ...       0.07 
freq.     871.86  E(vib)   ...       0.04 
freq.     872.47  E(vib)   ...       0.04 
freq.    1103.75  E(vib)   ...       0.02 
freq.    1105.34  E(vib)   ...       0.02 
freq.    1138.16  E(vib)   ...       0.01 
freq.    1139.45  E(vib)   ...       0.01 
freq.    1144.51  E(vib)   ...       0.01 
freq.    1204.96  E(vib)   ...       0.01 
freq.    1230.09  E(vib)   ...       0.01 
freq.    1408.45  E(vib)   ...       0.00 
freq.    1428.53  E(vib)   ...       0.00 
freq.    1434.28  E(vib)   ...       0.00 
freq.    1438.10  E(vib)   ...       0.00 
freq.    1439.61  E(vib)   ...       0.00 
freq.    1440.29  E(vib)   ...       0.00 
freq.    1466.71  E(vib)   ...       0.00 
freq.    1495.69  E(vib)   ...       0.00 
freq.    1525.71  E(vib)   ...       0.00 
freq.    1659.01  E(vib)   ...       0.00 
freq.    1679.77  E(vib)   ...       0.00 
freq.    3103.89  E(vib)   ...       0.00 
freq.    3103.99  E(vib)   ...       0.00 
freq.    3226.12  E(vib)   ...       0.00 
freq.    3226.13  E(vib)   ...       0.00 
freq.    3238.32  E(vib)   ...       0.00 
freq.    3238.37  E(vib)   ...       0.00 
freq.    3298.69  E(vib)   ...       0.00 

------------
INNER ENERGY
------------

The inner energy is: U= E(el) + E(ZPE) + E(vib) + E(rot) + E(trans)
    E(el)   - is the total energy from the electronic structure calculation
              = E(kin-el) + E(nuc-el) + E(el-el) + E(nuc-nuc)
    E(ZPE)  - the the zero temperature vibrational energy from the frequency calculation
    E(vib)  - the the finite temperature correction to E(ZPE) due to population
              of excited vibrational states
    E(rot)  - is the rotational thermal energy
    E(trans)- is the translational thermal energy

Summary of contributions to the inner energy U:
Electronic energy                ...  -1223.90767393 Eh
Zero point energy                ...      0.12277908 Eh      77.04 kcal/mol
Thermal vibrational correction   ...      0.00667123 Eh       4.19 kcal/mol
Thermal rotational correction    ...      0.00141627 Eh       0.89 kcal/mol
Thermal translational correction ...      0.00141627 Eh       0.89 kcal/mol
-----------------------------------------------------------------------
Total thermal energy                  -1223.77539108 Eh


Summary of corrections to the electronic energy:
(perhaps to be used in another calculation)
Total thermal correction                  0.00950377 Eh       5.96 kcal/mol
Non-thermal (ZPE) correction              0.12277908 Eh      77.04 kcal/mol
-----------------------------------------------------------------------
Total correction                          0.13228285 Eh      83.01 kcal/mol


--------
ENTHALPY
--------

The enthalpy is H = U + kB*T
                kB is Boltzmann's constant
Total free energy                 ...  -1223.77539108 Eh 
Thermal Enthalpy correction       ...      0.00094421 Eh       0.59 kcal/mol
-----------------------------------------------------------------------
Total Enthalpy                    ...  -1223.77444687 Eh


Note: Only C1 symmetry has been detected, increase convergence thresholds 
      if your molecule has a higher symmetry. Symmetry factor of 1.0 is   
      used for the rotational entropy correction. 
 

Note: Rotational entropy computed according to Herzberg 
Infrared and Raman Spectra, Chapter V,1, Van Nostrand Reinhold, 1945 
Point Group:  C1, Symmetry Number:   1  
Rotational constants in cm-1:     0.051082     0.036418     0.021437 

Vibrational entropy computed according to the QRRHO of S. Grimme
Chem.Eur.J. 2012 18 9955


-------
ENTROPY
-------

The entropy contributions are T*S = T*(S(el)+S(vib)+S(rot)+S(trans))
     S(el)   - electronic entropy
     S(vib)  - vibrational entropy
     S(rot)  - rotational entropy
     S(trans)- translational entropy
The entropies will be listed as multiplied by the temperature to get
units of energy

Electronic entropy                ...      0.00000000 Eh      0.00 kcal/mol
Vibrational entropy               ...      0.01175465 Eh      7.38 kcal/mol
Rotational entropy                ...      0.01429291 Eh      8.97 kcal/mol
Translational entropy             ...      0.01958930 Eh     12.29 kcal/mol
-----------------------------------------------------------------------
Final entropy term                ...      0.04563686 Eh     28.64 kcal/mol

In case the symmetry of your molecule has not been determined correctly
or in case you have a reason to use a different symmetry number we print 
out the resulting rotational entropy values for sn=1,12 :
 --------------------------------------------------------
|  sn= 1 | S(rot)=       0.01429291 Eh      8.97 kcal/mol|
|  sn= 2 | S(rot)=       0.01363845 Eh      8.56 kcal/mol|
|  sn= 3 | S(rot)=       0.01325562 Eh      8.32 kcal/mol|
|  sn= 4 | S(rot)=       0.01298399 Eh      8.15 kcal/mol|
|  sn= 5 | S(rot)=       0.01277331 Eh      8.02 kcal/mol|
|  sn= 6 | S(rot)=       0.01260116 Eh      7.91 kcal/mol|
|  sn= 7 | S(rot)=       0.01245562 Eh      7.82 kcal/mol|
|  sn= 8 | S(rot)=       0.01232954 Eh      7.74 kcal/mol|
|  sn= 9 | S(rot)=       0.01221833 Eh      7.67 kcal/mol|
|  sn=10 | S(rot)=       0.01211885 Eh      7.60 kcal/mol|
|  sn=11 | S(rot)=       0.01202886 Eh      7.55 kcal/mol|
|  sn=12 | S(rot)=       0.01194671 Eh      7.50 kcal/mol|
 --------------------------------------------------------


-------------------
GIBBS FREE ENERGY
-------------------

The Gibbs free energy is G = H - T*S

Total enthalpy                    ...  -1223.77444687 Eh 
Total entropy correction          ...     -0.04563686 Eh    -28.64 kcal/mol
-----------------------------------------------------------------------
Final Gibbs free energy         ...  -1223.82008373 Eh

For completeness - the Gibbs free energy minus the electronic energy
G-E(el)                           ...      0.08759020 Eh     54.96 kcal/mol


Timings for individual modules:

Sum of individual times         ...     1390.062 sec (=  23.168 min)
GTO integral calculation        ...        1.410 sec (=   0.024 min)   0.1 %
SCF iterations                  ...      677.088 sec (=  11.285 min)  48.7 %
SCF Gradient evaluation         ...      178.509 sec (=   2.975 min)  12.8 %
Geometry relaxation             ...        0.210 sec (=   0.003 min)   0.0 %
Analytical frequency calculation...      532.845 sec (=   8.881 min)  38.3 %
                             ****ORCA TERMINATED NORMALLY****
TOTAL RUN TIME: 0 days 0 hours 23 minutes 10 seconds 758 msec
