
                                 *****************
                                 * O   R   C   A *
                                 *****************

                                            #,                                       
                                            ###                                      
                                            ####                                     
                                            #####                                    
                                            ######                                   
                                           ########,                                 
                                     ,,################,,,,,                         
                               ,,#################################,,                 
                          ,,##########################################,,             
                       ,#########################################, ''#####,          
                    ,#############################################,,   '####,        
                  ,##################################################,,,,####,       
                ,###########''''           ''''###############################       
              ,#####''   ,,,,##########,,,,          '''####'''          '####       
            ,##' ,,,,###########################,,,                        '##       
           ' ,,###''''                  '''############,,,                           
         ,,##''                                '''############,,,,        ,,,,,,###''
      ,#''                                            '''#######################'''  
     '                                                          ''''####''''         
             ,#######,   #######,   ,#######,      ##                                
            ,#'     '#,  ##    ##  ,#'     '#,    #''#        ######   ,####,        
            ##       ##  ##   ,#'  ##            #'  '#       #        #'  '#        
            ##       ##  #######   ##           ,######,      #####,   #    #        
            '#,     ,#'  ##    ##  '#,     ,#' ,#      #,         ##   #,  ,#        
             '#######'   ##     ##  '#######'  #'      '#     #####' # '####'        



                  #######################################################
                  #                        -***-                        #
                  #          Department of theory and spectroscopy      #
                  #    Directorship and core code : Frank Neese         #
                  #        Max Planck Institute fuer Kohlenforschung    #
                  #                Kaiser Wilhelm Platz 1               #
                  #                 D-45470 Muelheim/Ruhr               #
                  #                      Germany                        #
                  #                                                     #
                  #                  All rights reserved                #
                  #                        -***-                        #
                  #######################################################


                         Program Version 5.0.4 -  RELEASE  -


 With contributions from (in alphabetic order):
   Daniel Aravena         : Magnetic Suceptibility
   Michael Atanasov       : Ab Initio Ligand Field Theory (pilot matlab implementation)
   Alexander A. Auer      : GIAO ZORA, VPT2 properties, NMR spectrum
   Ute Becker             : Parallelization
   Giovanni Bistoni       : ED, misc. LED, open-shell LED, HFLD
   Martin Brehm           : Molecular dynamics
   Dmytro Bykov           : SCF Hessian
   Vijay G. Chilkuri      : MRCI spin determinant printing, contributions to CSF-ICE
   Dipayan Datta          : RHF DLPNO-CCSD density
   Achintya Kumar Dutta   : EOM-CC, STEOM-CC
   Dmitry Ganyushin       : Spin-Orbit,Spin-Spin,Magnetic field MRCI
   Miquel Garcia          : C-PCM and meta-GGA Hessian, CC/C-PCM, Gaussian charge scheme
   Yang Guo               : DLPNO-NEVPT2, F12-NEVPT2, CIM, IAO-localization
   Andreas Hansen         : Spin unrestricted coupled pair/coupled cluster methods
   Benjamin Helmich-Paris : MC-RPA, TRAH-SCF, COSX integrals
   Lee Huntington         : MR-EOM, pCC
   Robert Izsak           : Overlap fitted RIJCOSX, COSX-SCS-MP3, EOM
   Marcus Kettner         : VPT2
   Christian Kollmar      : KDIIS, OOCD, Brueckner-CCSD(T), CCSD density, CASPT2, CASPT2-K
   Simone Kossmann        : Meta GGA functionals, TD-DFT gradient, OOMP2, MP2 Hessian
   Martin Krupicka        : Initial AUTO-CI
   Lucas Lang             : DCDCAS
   Marvin Lechner         : AUTO-CI (C++ implementation), FIC-MRCC
   Dagmar Lenk            : GEPOL surface, SMD
   Dimitrios Liakos       : Extrapolation schemes; Compound Job, initial MDCI parallelization
   Dimitrios Manganas     : Further ROCIS development; embedding schemes
   Dimitrios Pantazis     : SARC Basis sets
   Anastasios Papadopoulos: AUTO-CI, single reference methods and gradients
   Taras Petrenko         : DFT Hessian,TD-DFT gradient, ASA, ECA, R-Raman, ABS, FL, XAS/XES, NRVS
   Peter Pinski           : DLPNO-MP2, DLPNO-MP2 Gradient
   Christoph Reimann      : Effective Core Potentials
   Marius Retegan         : Local ZFS, SOC
   Christoph Riplinger    : Optimizer, TS searches, QM/MM, DLPNO-CCSD(T), (RO)-DLPNO pert. Triples
   Tobias Risthaus        : Range-separated hybrids, TD-DFT gradient, RPA, STAB
   Michael Roemelt        : Original ROCIS implementation
   Masaaki Saitow         : Open-shell DLPNO-CCSD energy and density
   Barbara Sandhoefer     : DKH picture change effects
   Avijit Sen             : IP-ROCIS
   Kantharuban Sivalingam : CASSCF convergence, NEVPT2, FIC-MRCI
   Bernardo de Souza      : ESD, SOC TD-DFT
   Georgi Stoychev        : AutoAux, RI-MP2 NMR, DLPNO-MP2 response
   Willem Van den Heuvel  : Paramagnetic NMR
   Boris Wezisla          : Elementary symmetry handling
   Frank Wennmohs         : Technical directorship


 We gratefully acknowledge several colleagues who have allowed us to
 interface, adapt or use parts of their codes:
   Stefan Grimme, W. Hujo, H. Kruse, P. Pracht,  : VdW corrections, initial TS optimization,
                  C. Bannwarth, S. Ehlert          DFT functionals, gCP, sTDA/sTD-DF
   Ed Valeev, F. Pavosevic, A. Kumar             : LibInt (2-el integral package), F12 methods
   Garnet Chan, S. Sharma, J. Yang, R. Olivares  : DMRG
   Ulf Ekstrom                                   : XCFun DFT Library
   Mihaly Kallay                                 : mrcc  (arbitrary order and MRCC methods)
   Jiri Pittner, Ondrej Demel                    : Mk-CCSD
   Frank Weinhold                                : gennbo (NPA and NBO analysis)
   Christopher J. Cramer and Donald G. Truhlar   : smd solvation model
   Lars Goerigk                                  : TD-DFT with DH, B97 family of functionals
   V. Asgeirsson, H. Jonsson                     : NEB implementation
   FAccTs GmbH                                   : IRC, NEB, NEB-TS, DLPNO-Multilevel, CI-OPT
                                                   MM, QMMM, 2- and 3-layer-ONIOM, Crystal-QMMM,
                                                   LR-CPCM, SF, NACMEs, symmetry and pop. for TD-DFT,
                                                   nearIR, NL-DFT gradient (VV10), updates on ESD,
                                                   ML-optimized integration grids
   S Lehtola, MJT Oliveira, MAL Marques          : LibXC Library
   Liviu Ungur et al                             : ANISO software


 Your calculation uses the libint2 library for the computation of 2-el integrals
 For citations please refer to: http://libint.valeyev.net

 Your ORCA version has been built with support for libXC version: 5.1.0
 For citations please refer to: https://tddft.org/programs/libxc/

 This ORCA versions uses:
   CBLAS   interface :  Fast vector & matrix operations
   LAPACKE interface :  Fast linear algebra routines
   SCALAPACK package :  Parallel linear algebra routines
   Shared memory     :  Shared parallel matrices
   BLAS/LAPACK       :  OpenBLAS 0.3.15  USE64BITINT DYNAMIC_ARCH NO_AFFINITY SkylakeX SINGLE_THREADED
        Core in use  :  SkylakeX
   Copyright (c) 2011-2014, The OpenBLAS Project




***************************************
The coordinates will be read from file: 3_prot_aq_2.xyz
***************************************


Your calculation utilizes the atom-pairwise dispersion correction
based on tight binding partial charges (D4)
Cite in your paper:
E.Caldeweyher, C.Bannwarth, S.Grimme, J.Chem.Phys., (2017), 147, 034112.
E.Caldeweyher, S.Ehlert, A.Hansen, H.Neugebauer, S.Grimme, J.Chem.Phys., (2018), in progress.
   

XCFun DFT library Copyright 2009-2010 Ulf Ekstrom and contributors.
See http://admol.org/xcfun for more information.
This is free software; see the source code for copying conditions.
There is ABSOLUTELY NO WARRANTY; not even for MERCHANTABILITY or FITNESS FOR A PARTICULAR PURPOSE.
For details see the documentation.
Scientific users of this library should cite U. Ekstrom, L. Visscher, R. Bast, A. J. Thorvaldsen and K. Ruud;
J.Chem.Theor.Comp. 2010, DOI: 10.1021/ct100117s
XCFun Version 0.99 

================================================================================

----- Orbital basis set information -----
Your calculation utilizes the basis: def2-SVP
   F. Weigend and R. Ahlrichs, Phys. Chem. Chem. Phys. 7, 3297 (2005).

----- AuxJ basis set information -----
Your calculation utilizes the auxiliary basis: def2/J
   F. Weigend, Phys. Chem. Chem. Phys. 8, 1057 (2006).

================================================================================
                                        WARNINGS
                       Please study these warnings very carefully!
================================================================================


WARNING: Geometry Optimization
  ===> : Switching off AutoStart
         For restart on a previous wavefunction, please use MOREAD

INFO   : the flag for use of the SHARK integral package has been found!

================================================================================
                                       INPUT FILE
================================================================================
NAME = 3_prot_aq_2.inp
|  1> # ORCA 5.0.4 - /users/bwb16179/postgrad/2024_03/DFT_Crest_Conformers/Opt/prot/3_prot_aq_2.inp # write input file
|  2> # Basic Mode
|  3> #
|  4> ! Opt Freq wB97X Def2-SVP D4 SlowConv TightSCF Defgrid2 Def2/J RIJCOSX CPCM(Water)
|  5> 
|  6> 
|  7> 
|  8> %maxcore 4500
|  9> 
| 10> %geom
| 11> Maxiter 150
| 12> END
| 13> 
| 14> * xyzfile 1 1 3_prot_aq_2.xyz
| 15> 
| 16>                          ****END OF INPUT****
================================================================================

                       *****************************
                       * Geometry Optimization Run *
                       *****************************

Geometry optimization settings:
Update method            Update   .... BFGS
Choice of coordinates    CoordSys .... Z-matrix Internals
Initial Hessian          InHess   .... Almoef's Model

Convergence Tolerances:
Energy Change            TolE     ....  5.0000e-06 Eh
Max. Gradient            TolMAXG  ....  3.0000e-04 Eh/bohr
RMS Gradient             TolRMSG  ....  1.0000e-04 Eh/bohr
Max. Displacement        TolMAXD  ....  4.0000e-03 bohr
RMS Displacement         TolRMSD  ....  2.0000e-03 bohr
Strict Convergence                ....  False
------------------------------------------------------------------------------
                        ORCA OPTIMIZATION COORDINATE SETUP
------------------------------------------------------------------------------

The optimization will be done in new redundant internal coordinates
Making redundant internal coordinates   ...  (new redundants) done
Evaluating the initial hessian          ...  (Almloef) done
Evaluating the coordinates              ...  done
Calculating the B-matrix                .... done
Calculating the G-matrix                .... done
Diagonalizing the G-matrix              .... done
The first mode is                       ....   33
The number of degrees of freedom        ....   42

    -----------------------------------------------------------------
                    Redundant Internal Coordinates


    -----------------------------------------------------------------
         Definition                    Initial Value    Approx d2E/dq
    -----------------------------------------------------------------
      1. B(C   1,N   0)                  1.3316         0.693556   
      2. B(N   2,C   1)                  1.3340         0.687292   
      3. B(C   3,N   2)                  1.3726         0.596582   
      4. B(C   4,N   0)                  1.3719         0.598061   
      5. B(C   4,C   3)                  1.3825         0.642357   
      6. B(C   5,N   0)                  1.4379         0.469301   
      7. B(C   6,N   2)                  1.4402         0.465421   
      8. B(H   7,C   5)                  1.0904         0.359595   
      9. B(H   8,C   5)                  1.0904         0.359602   
     10. B(H   9,C   5)                  1.0870         0.364156   
     11. B(H  10,C   6)                  1.0874         0.363611   
     12. B(H  11,C   6)                  1.0899         0.360277   
     13. B(H  12,C   6)                  1.0899         0.360288   
     14. B(H  13,C   1)                  1.0739         0.381996   
     15. B(Cl 14,C   3)                  1.6944         0.458199   
     16. B(Cl 15,C   4)                  1.6942         0.458626   
     17. A(C   1,N   0,C   4)          108.0948         0.434306   
     18. A(C   4,N   0,C   5)          124.6666         0.405090   
     19. A(C   1,N   0,C   5)          127.2385         0.415868   
     20. A(N   2,C   1,H  13)          124.8316         0.360517   
     21. A(N   0,C   1,H  13)          125.2241         0.361075   
     22. A(N   0,C   1,N   2)          109.9443         0.445348   
     23. A(C   1,N   2,C   3)          108.0505         0.433405   
     24. A(C   3,N   2,C   6)          126.0113         0.404320   
     25. A(C   1,N   2,C   6)          125.9382         0.414585   
     26. A(N   2,C   3,Cl 14)          123.6341         0.424088   
     27. A(C   4,C   3,Cl 14)          129.4612         0.432569   
     28. A(N   2,C   3,C   4)          106.9048         0.430988   
     29. A(N   0,C   4,Cl 15)          122.6540         0.424347   
     30. A(N   0,C   4,C   3)          107.0057         0.431180   
     31. A(C   3,C   4,Cl 15)          130.3404         0.432642   
     32. A(H   8,C   5,H   9)          109.5012         0.291288   
     33. A(H   7,C   5,H   9)          109.5002         0.291287   
     34. A(N   0,C   5,H   9)          109.7927         0.335373   
     35. A(H   7,C   5,H   8)          108.2710         0.290712   
     36. A(N   0,C   5,H   8)          109.8752         0.334672   
     37. A(N   0,C   5,H   7)          109.8768         0.334671   
     38. A(H  11,C   6,H  12)          108.9264         0.290886   
     39. A(H  10,C   6,H  12)          109.1695         0.291307   
     40. A(N   2,C   6,H  12)          110.2889         0.334317   
     41. A(H  10,C   6,H  11)          109.1647         0.291306   
     42. A(N   2,C   6,H  11)          110.2925         0.334315   
     43. A(N   2,C   6,H  10)          108.9761         0.334827   
     44. D(H  13,C   1,N   0,C   5)     -0.0010         0.039732   
     45. D(N   2,C   1,N   0,C   5)   -179.9996         0.039732   
     46. D(N   2,C   1,N   0,C   4)      0.0016         0.039732   
     47. D(H  13,C   1,N   0,C   4)   -179.9998         0.039732   
     48. D(C   6,N   2,C   1,N   0)   -179.9949         0.038948   
     49. D(C   3,N   2,C   1,N   0)     -0.0025         0.038948   
     50. D(C   3,N   2,C   1,H  13)    179.9990         0.038948   
     51. D(C   6,N   2,C   1,H  13)      0.0065         0.038948   
     52. D(Cl 14,C   3,N   2,C   1)   -179.9978         0.028655   
     53. D(Cl 14,C   3,N   2,C   6)     -0.0053         0.028655   
     54. D(C   4,C   3,N   2,C   6)    179.9947         0.028655   
     55. D(C   4,C   3,N   2,C   1)      0.0023         0.028655   
     56. D(Cl 15,C   4,N   0,C   1)   -179.9991         0.028808   
     57. D(C   3,C   4,N   0,C   5)   -179.9990         0.028808   
     58. D(C   3,C   4,N   0,C   1)     -0.0001         0.028808   
     59. D(Cl 15,C   4,C   3,Cl 14)     -0.0024         0.028683   
     60. D(Cl 15,C   4,C   3,N   2)    179.9975         0.028683   
     61. D(N   0,C   4,C   3,Cl 14)    179.9988         0.028683   
     62. D(N   0,C   4,C   3,N   2)     -0.0013         0.028683   
     63. D(Cl 15,C   4,N   0,C   5)      0.0021         0.028808   
     64. D(H   9,C   5,N   0,C   4)   -179.9675         0.018816   
     65. D(H   9,C   5,N   0,C   1)      0.0339         0.018816   
     66. D(H   8,C   5,N   0,C   4)    -59.4797         0.018816   
     67. D(H   8,C   5,N   0,C   1)    120.5217         0.018816   
     68. D(H   7,C   5,N   0,C   4)     59.5449         0.018816   
     69. D(H   7,C   5,N   0,C   1)   -120.4537         0.018816   
     70. D(H  11,C   6,N   2,C   3)   -119.6441         0.018500   
     71. D(H  11,C   6,N   2,C   1)     60.3470         0.018500   
     72. D(H  10,C   6,N   2,C   3)      0.1754         0.018500   
     73. D(H  12,C   6,N   2,C   1)    -60.0102         0.018500   
     74. D(H  10,C   6,N   2,C   1)   -179.8335         0.018500   
     75. D(H  12,C   6,N   2,C   3)    119.9987         0.018500   
    -----------------------------------------------------------------

Number of atoms                         .... 16
Number of degrees of freedom            .... 75

         *************************************************************
         *                GEOMETRY OPTIMIZATION CYCLE   1            *
         *************************************************************
---------------------------------
CARTESIAN COORDINATES (ANGSTROEM)
---------------------------------
  N     -1.085377   -1.153394    0.000002
  C      0.004951   -1.917782    0.000012
  N      1.097434   -1.152166    0.000051
  C      0.696763    0.160631    0.000012
  C     -0.685691    0.158998   -0.000000
  C     -2.454992   -1.591248   -0.000029
  C      2.458815   -1.621961   -0.000031
  H     -2.966361   -1.209081   -0.883988
  H     -2.966684   -1.208094    0.883309
  H     -2.494141   -2.677494    0.000561
  H      3.128483   -0.765290    0.003017
  H      2.651115   -2.223254   -0.888443
  H      2.649400   -2.228332    0.885283
  H      0.008537   -2.991708    0.000013
  Cl     1.772113    1.470087   -0.000013
  Cl    -1.783894    1.449015    0.000012

----------------------------
CARTESIAN COORDINATES (A.U.)
----------------------------
  NO LB      ZA    FRAG     MASS         X           Y           Z
   0 N     7.0000    0    14.007   -2.051066   -2.179600    0.000004
   1 C     6.0000    0    12.011    0.009356   -3.624083    0.000023
   2 N     7.0000    0    14.007    2.073850   -2.177278    0.000097
   3 C     6.0000    0    12.011    1.316691    0.303548    0.000022
   4 C     6.0000    0    12.011   -1.295769    0.300463   -0.000000
   5 C     6.0000    0    12.011   -4.639263   -3.007024   -0.000054
   6 C     6.0000    0    12.011    4.646488   -3.065062   -0.000059
   7 H     1.0000    0     1.008   -5.605610   -2.284832   -1.670495
   8 H     1.0000    0     1.008   -5.606221   -2.282967    1.669213
   9 H     1.0000    0     1.008   -4.713243   -5.059731    0.001060
  10 H     1.0000    0     1.008    5.911976   -1.446189    0.005701
  11 H     1.0000    0     1.008    5.009882   -4.201342   -1.678913
  12 H     1.0000    0     1.008    5.006641   -4.210938    1.672943
  13 H     1.0000    0     1.008    0.016132   -5.653508    0.000025
  14 Cl   17.0000    0    35.453    3.348809    2.778061   -0.000025
  15 Cl   17.0000    0    35.453   -3.371072    2.738242    0.000022

--------------------------------
INTERNAL COORDINATES (ANGSTROEM)
--------------------------------
 N      0   0   0     0.000000000000     0.00000000     0.00000000
 C      1   0   0     1.331579765484     0.00000000     0.00000000
 N      2   1   0     1.334049361351   109.94425765     0.00000000
 C      3   2   1     1.372578803794   108.05047473     0.00000000
 C      1   2   3     1.371904771544   108.09484392     0.00000000
 C      1   2   3     1.437901843649   127.23854154   180.00040940
 C      3   2   1     1.440161536423   125.93820611   180.00511415
 H      6   1   2     1.090382269841   109.87682170   239.54626248
 H      6   1   2     1.090376823810   109.87520606   120.52170473
 H      6   1   2     1.086951404759   109.79266940     0.03390145
 H      7   3   2     1.087358565482   108.97609692   180.16650279
 H      7   3   2     1.089865999210   110.29249459    60.34701469
 H      7   3   2     1.089858057729   110.28891973   299.98978751
 H      2   1   3     1.073931525446   125.22412605   179.99856684
 Cl     4   3   2     1.694418757435   123.63406744   180.00223548
 Cl     5   1   2     1.694164901337   122.65396719   180.00093702

---------------------------
INTERNAL COORDINATES (A.U.)
---------------------------
 N      0   0   0     0.000000000000     0.00000000     0.00000000
 C      1   0   0     2.516321082236     0.00000000     0.00000000
 N      2   1   0     2.520987942086   109.94425765     0.00000000
 C      3   2   1     2.593798036395   108.05047473     0.00000000
 C      1   2   3     2.592524300038   108.09484392     0.00000000
 C      1   2   3     2.717240691957   127.23854154   180.00040940
 C      3   2   1     2.721510892447   125.93820611   180.00511415
 H      6   1   2     2.060523871283   109.87682170   239.54626248
 H      6   1   2     2.060513579777   109.87520606   120.52170473
 H      6   1   2     2.054040475875   109.79266940     0.03390145
 H      7   3   2     2.054809898135   108.97609692   180.16650279
 H      7   3   2     2.059548261180   110.29249459    60.34701469
 H      7   3   2     2.059533253956   110.28891973   299.98978751
 H      2   1   3     2.029436469678   125.22412605   179.99856684
 Cl     4   3   2     3.201987407732   123.63406744   180.00223548
 Cl     5   1   2     3.201507689228   122.65396719   180.00093702

---------------------
BASIS SET INFORMATION
---------------------
There are 4 groups of distinct atoms

 Group   1 Type N   : 7s4p1d contracted to 3s2p1d pattern {511/31/1}
 Group   2 Type C   : 7s4p1d contracted to 3s2p1d pattern {511/31/1}
 Group   3 Type H   : 4s1p contracted to 2s1p pattern {31/1}
 Group   4 Type Cl  : 10s7p1d contracted to 4s3p1d pattern {5311/511/1}

Atom   0N    basis set group =>   1
Atom   1C    basis set group =>   2
Atom   2N    basis set group =>   1
Atom   3C    basis set group =>   2
Atom   4C    basis set group =>   2
Atom   5C    basis set group =>   2
Atom   6C    basis set group =>   2
Atom   7H    basis set group =>   3
Atom   8H    basis set group =>   3
Atom   9H    basis set group =>   3
Atom  10H    basis set group =>   3
Atom  11H    basis set group =>   3
Atom  12H    basis set group =>   3
Atom  13H    basis set group =>   3
Atom  14Cl   basis set group =>   4
Atom  15Cl   basis set group =>   4
---------------------------------
AUXILIARY/J BASIS SET INFORMATION
---------------------------------
There are 4 groups of distinct atoms

 Group   1 Type N   : 12s5p4d2f1g contracted to 6s4p3d1f1g pattern {711111/2111/211/2/1}
 Group   2 Type C   : 12s5p4d2f1g contracted to 6s4p3d1f1g pattern {711111/2111/211/2/1}
 Group   3 Type H   : 5s2p1d contracted to 3s1p1d pattern {311/2/1}
 Group   4 Type Cl  : 14s5p5d2f1g contracted to 8s4p3d1f1g pattern {71111111/2111/311/2/1}

Atom   0N    basis set group =>   1
Atom   1C    basis set group =>   2
Atom   2N    basis set group =>   1
Atom   3C    basis set group =>   2
Atom   4C    basis set group =>   2
Atom   5C    basis set group =>   2
Atom   6C    basis set group =>   2
Atom   7H    basis set group =>   3
Atom   8H    basis set group =>   3
Atom   9H    basis set group =>   3
Atom  10H    basis set group =>   3
Atom  11H    basis set group =>   3
Atom  12H    basis set group =>   3
Atom  13H    basis set group =>   3
Atom  14Cl   basis set group =>   4
Atom  15Cl   basis set group =>   4
------------------------------------------------------------------------------
                           ORCA GTO INTEGRAL CALCULATION
                           -- RI-GTO INTEGRALS CHOSEN --
------------------------------------------------------------------------------
------------------------------------------------------------------------------
                   ___                                                        
                  /   \      - P O W E R E D   B Y -                         
                 /     \                                                     
                 |  |  |   _    _      __       _____    __    __             
                 |  |  |  | |  | |    /  \     |  _  \  |  |  /  |          
                  \  \/   | |  | |   /    \    | | | |  |  | /  /          
                 / \  \   | |__| |  /  /\  \   | |_| |  |  |/  /          
                |  |  |   |  __  | /  /__\  \  |    /   |      \           
                |  |  |   | |  | | |   __   |  |    \   |  |\   \          
                \     /   | |  | | |  |  |  |  | |\  \  |  | \   \       
                 \___/    |_|  |_| |__|  |__|  |_| \__\ |__|  \__/        
                                                                              
                      - O R C A' S   B I G   F R I E N D -                    
                                      &                                       
                       - I N T E G R A L  F E E D E R -                       
                                                                              
 v1 FN, 2020, v2 2021                                                         
------------------------------------------------------------------------------


Reading SHARK input file 3_prot_aq_2.SHARKINP.tmp ... ok
----------------------
SHARK INTEGRAL PACKAGE
----------------------

Number of atoms                             ...     16
Number of basis functions                   ...    169
Number of shells                            ...     79
Maximum angular momentum                    ...      2
Integral batch strategy                     ... SHARK/LIBINT Hybrid
RI-J (if used) integral strategy            ... SPLIT-RIJ (Revised 2003 algorithm where possible)
Printlevel                                  ...      1
Contraction scheme used                     ... SEGMENTED contraction
Coulomb Range Separation                    ... NOT USED
Exchange Range Separation                   ... Long Range
   Mu parameter                             ...  0.300000
   Scaling (regular/separated)              ...  0.157706  0.842294
Finite Nucleus Model                        ... NOT USED
Auxiliary Coulomb fitting basis             ... AVAILABLE
   # of basis functions in Aux-J            ...    522
   # of shells in Aux-J                     ...    174
   Maximum angular momentum in Aux-J        ...      4
Auxiliary J/K fitting basis                 ... NOT available
Auxiliary Correlation fitting basis         ... NOT available
Auxiliary 'external' fitting basis          ... NOT available
Integral threshold                          ...     2.500000e-11
Primitive cut-off                           ...     2.500000e-12
Primitive pair pre-selection threshold      ...     2.500000e-12

Calculating pre-screening integrals         ... done (  0.0 sec) Dimension = 79
Organizing shell pair data                  ... done (  0.0 sec)
Shell pair information
Total number of shell pairs                 ...      3160
Shell pairs after pre-screening             ...      2859
Total number of primitive shell pairs       ...     12248
Primitive shell pairs kept                  ...      7850
          la=0 lb=0:    857 shell pairs
          la=1 lb=0:   1044 shell pairs
          la=1 lb=1:    338 shell pairs
          la=2 lb=0:    355 shell pairs
          la=2 lb=1:    223 shell pairs
          la=2 lb=2:     42 shell pairs

Calculating one electron integrals          ... done (  0.0 sec)
Calculating RI/J V-Matrix + Cholesky decomp.... done (  0.0 sec)
Calculating Nuclear repulsion               ... done (  0.0 sec) ENN=    623.431622684112 Eh

SHARK setup successfully completed in   0.2 seconds

Maximum memory used throughout the entire GTOINT-calculation: 24.6 MB
-------------------------------------------------------------------------------
                                 ORCA SCF
-------------------------------------------------------------------------------

------------
SCF SETTINGS
------------
Hamiltonian:
 Density Functional     Method          .... DFT(GTOs)
 Exchange Functional    Exchange        .... WB97X
 Correlation Functional Correlation     .... WB97X
 Gradients option       PostSCFGGA      .... off
 Hybrid DFT is turned on
   Fraction HF Exchange ScalHFX         ....  0.157706
   Scaling of DF-GGA-X  ScalDFX         ....  0.000000
   Scaling of DF-GGA-C  ScalDFC         ....  1.000000
   Scaling of DF-LDA-C  ScalLDAC        ....  1.000000
   Perturbative correction              ....  0.000000
   Density functional embedding theory  .... OFF
 Long-range corrected/Screened/Range-Separated Hybrid DFT is turned on
   Amount of maximum screened exact exchange              ....  0.842294
   Range separation parameter mu (erf(mu*r12)/r12)        ....  0.300000
 RI-approximation to the Coulomb term is turned on
   Number of AuxJ basis functions       .... 522
   RIJ-COSX (HFX calculated with COS-X)).... on


General Settings:
 Integral files         IntName         .... 3_prot_aq_2
 Hartree-Fock type      HFTyp           .... RHF
 Total Charge           Charge          ....    1
 Multiplicity           Mult            ....    1
 Number of Electrons    NEL             ....   84
 Basis Dimension        Dim             ....  169
 Nuclear Repulsion      ENuc            ....    623.4316226841 Eh

Convergence Acceleration:
 DIIS                   CNVDIIS         .... on
   Start iteration      DIISMaxIt       ....     0
   Startup error        DIISStart       ....  0.200000
   # of expansion vecs  DIISMaxEq       ....     5
   Bias factor          DIISBfac        ....   1.050
   Max. coefficient     DIISMaxC        ....  10.000
 Trust-Rad. Augm. Hess. CNVTRAH         .... auto
   Auto Start mean grad. ratio tolernc. ....  1.125000
   Auto Start start iteration           ....    20
   Auto Start num. interpolation iter.  ....    10
   Max. Number of Micro iterations      ....    16
   Max. Number of Macro iterations      .... Maxiter - #DIIS iter
   Number of Davidson start vectors     ....     2
   Converg. threshold I  (grad. norm)   ....   1.000e-05
   Converg. threshold II (energy diff.) ....   1.000e-08
   Grad. Scal. Fac. for Micro threshold ....   0.100
   Minimum threshold for Micro iter.    ....   0.010
   NR start threshold (gradient norm)   ....   0.001
   Initial trust radius                 ....   0.400
   Minimum AH scaling param. (alpha)    ....   1.000
   Maximum AH scaling param. (alpha)    .... 1000.000
   Orbital update algorithm             .... Taylor
   White noise on init. David. guess    .... on
   Maximum white noise                  ....   0.010
   Quad. conv. algorithm                .... NR
 SOSCF                  CNVSOSCF        .... on
   Start iteration      SOSCFMaxIt      ....   150
   Startup grad/error   SOSCFStart      ....  0.001000
 Level Shifting         CNVShift        .... on
   Level shift para.    LevelShift      ....    0.2500
   Turn off err/grad.   ShiftErr        ....    0.0000
 Zerner damping         CNVZerner       .... off
 Static damping         CNVDamp         .... on
   Fraction old density DampFac         ....    0.8500
   Max. Damping (<1)    DampMax         ....    0.9800
   Min. Damping (>=0)   DampMin         ....    0.0000
   Turn off err/grad.   DampErr         ....    0.0300
 Fernandez-Rico         CNVRico         .... off

SCF Procedure:
 Maximum # iterations   MaxIter         ....   125
 SCF integral mode      SCFMode         .... Direct
   Integral package                     .... SHARK and LIBINT hybrid scheme
 Reset frequency        DirectResetFreq ....    20
 Integral Threshold     Thresh          ....  2.500e-11 Eh
 Primitive CutOff       TCut            ....  2.500e-12 Eh

Convergence Tolerance:
 Convergence Check Mode ConvCheckMode   .... Total+1el-Energy
 Convergence forced     ConvForced      .... 0
 Energy Change          TolE            ....  1.000e-08 Eh
 1-El. energy change                    ....  1.000e-05 Eh
 Orbital Gradient       TolG            ....  1.000e-05
 Orbital Rotation angle TolX            ....  1.000e-05
 DIIS Error             TolErr          ....  5.000e-07


Diagonalization of the overlap matrix:
Smallest eigenvalue                        ... 9.084e-04
Time for diagonalization                   ...    0.006 sec
Threshold for overlap eigenvalues          ... 1.000e-08
Number of eigenvalues below threshold      ... 0
Time for construction of square roots      ...    0.003 sec
Total time needed                          ...    0.008 sec

Time for model grid setup =    0.216 sec

------------------------------
INITIAL GUESS: MODEL POTENTIAL
------------------------------
Loading Hartree-Fock densities                     ... done
Calculating cut-offs                               ... done
Initializing the effective Hamiltonian             ... done
Setting up the integral package (SHARK)            ... done
Starting the Coulomb interaction                   ... done (   0.2 sec)
Reading the grid                                   ... done
Mapping shells                                     ... done
Starting the XC term evaluation                    ... done (   0.3 sec)
  promolecular density results
     # of electrons  =     84.993270277
     EX              =    -95.625305199
     EC              =     -3.064957921
     EX+EC           =    -98.690263120
Transforming the Hamiltonian                       ... done (   0.0 sec)
Diagonalizing the Hamiltonian                      ... done (   0.0 sec)
Back transforming the eigenvectors                 ... done (   0.0 sec)
Now organizing SCF variables                       ... done
                      ------------------
                      INITIAL GUESS DONE (   0.7 sec)
                      ------------------
-------------------
DFT GRID GENERATION
-------------------

General Integration Accuracy     IntAcc      ... 4.388
Radial Grid Type                 RadialGrid  ... OptM3 with GC (2021)
Angular Grid (max. ang.)         AngularGrid ... 4 (Lebedev-302)
Angular grid pruning method      GridPruning ... 4 (adaptive)
Weight generation scheme         WeightScheme... Becke
Basis function cutoff            BFCut       ... 1.0000e-11
Integration weight cutoff        WCut        ... 1.0000e-14
Angular grids for H and He will be reduced by one unit
Partially contracted basis set               ... off
Rotationally invariant grid construction     ... off

Total number of grid points                  ...    79208
Total number of batches                      ...     1246
Average number of points per batch           ...       63
Average number of grid points per atom       ...     4950
Time for grid setup =    0.867 sec

--------------------
COSX GRID GENERATION
--------------------

GRIDX 1
-------
General Integration Accuracy     IntAcc      ... 3.816
Radial Grid Type                 RadialGrid  ... OptM3 with GC (2021)
Angular Grid (max. ang.)         AngularGrid ... 1 (Lebedev-50)
Angular grid pruning method      GridPruning ... 4 (adaptive)
Weight generation scheme         WeightScheme... Becke
Basis function cutoff            BFCut       ... 1.0000e-11
Integration weight cutoff        WCut        ... 1.0000e-14
Angular grids for H and He will be reduced by one unit
Partially contracted basis set               ... on
Rotationally invariant grid construction     ... off

Total number of grid points                  ...     9937
Total number of batches                      ...      164
Average number of points per batch           ...       60
Average number of grid points per atom       ...      621
UseSFitting                                  ... on

GRIDX 2
-------
General Integration Accuracy     IntAcc      ... 4.020
Radial Grid Type                 RadialGrid  ... OptM3 with GC (2021)
Angular Grid (max. ang.)         AngularGrid ... 2 (Lebedev-110)
Angular grid pruning method      GridPruning ... 4 (adaptive)
Weight generation scheme         WeightScheme... Becke
Basis function cutoff            BFCut       ... 1.0000e-11
Integration weight cutoff        WCut        ... 1.0000e-14
Angular grids for H and He will be reduced by one unit
Partially contracted basis set               ... on
Rotationally invariant grid construction     ... off

Total number of grid points                  ...    21812
Total number of batches                      ...      349
Average number of points per batch           ...       62
Average number of grid points per atom       ...     1363
UseSFitting                                  ... on

GRIDX 3
-------
General Integration Accuracy     IntAcc      ... 4.338
Radial Grid Type                 RadialGrid  ... OptM3 with GC (2021)
Angular Grid (max. ang.)         AngularGrid ... 3 (Lebedev-194)
Angular grid pruning method      GridPruning ... 4 (adaptive)
Weight generation scheme         WeightScheme... Becke
Basis function cutoff            BFCut       ... 1.0000e-11
Integration weight cutoff        WCut        ... 1.0000e-14
Angular grids for H and He will be reduced by one unit
Partially contracted basis set               ... on
Rotationally invariant grid construction     ... off

Total number of grid points                  ...    49086
Total number of batches                      ...      777
Average number of points per batch           ...       63
Average number of grid points per atom       ...     3068
UseSFitting                                  ... on

Time for X-Grid setup             =    1.078 sec


--------------------
CPCM SOLVATION MODEL
--------------------
CPCM parameters:
  Epsilon                                         ...      80.4000
  Refrac                                          ...       1.3300
  Rsolv                                           ...       1.3000
  Surface type                                    ... GAUSSIAN VDW
  Epsilon function type                           ...         CPCM
Radii:
 Radius for N  used is    3.5149 Bohr (=   1.8600 Ang.)
 Radius for C  used is    3.8550 Bohr (=   2.0400 Ang.)
 Radius for H  used is    2.4944 Bohr (=   1.3200 Ang.)
 Radius for Cl used is    3.9684 Bohr (=   2.1000 Ang.)
Calculating surface                               ...        done! (  0.0s)
GEPOL surface points                              ...          915
GEPOL Volume                                      ...    1188.0251
GEPOL Surface-area                                ...     666.5212
Calculating surface distance matrix               ...        done! (  0.0s)
Performing Cholesky decomposition & store         ...        done! (  0.0s)
Overall time for CPCM initialization              ...                 0.0s
--------------
SCF ITERATIONS
--------------
ITER       Energy         Delta-E        Max-DP      RMS-DP      [F,P]     Damp
               ***  Starting incremental Fock matrix formation  ***
  0  -1223.8358739324   0.000000000000 0.02352293  0.00052998  0.1044554 0.8500
  1  -1223.8487212970  -0.012847364553 0.02139533  0.00049541  0.0843542 0.8500
                               ***Turning on DIIS***
  2  -1223.8586653511  -0.009944054096 0.01693714  0.00041038  0.0649781 0.8500
  3  -1223.8662279789  -0.007562627829 0.01102368  0.00031435  0.0494316 0.8500
  4  -1223.8721781645  -0.005950185585 0.00757429  0.00025713  0.0393770 0.8500
  5  -1223.8769380678  -0.004759903319 0.00588878  0.00021942  0.0326150 0.8500
  6  -1223.8808523337  -0.003914265857 0.03445649  0.00126187  0.0274999 0.0000
  7  -1223.9019988200  -0.021146486375 0.00154143  0.00006063  0.0012062 0.0000
                      *** Initiating the SOSCF procedure ***
                           *** Shutting down DIIS ***
                      *** Re-Reading the Fockian *** 
                      *** Removing any level shift *** 
ITER      Energy       Delta-E        Grad      Rot      Max-DP    RMS-DP
  8  -1223.90202780  -0.0000289782  0.000863  0.000863  0.000992  0.000035
               *** Restarting incremental Fock matrix formation ***
  9  -1223.90207568  -0.0000478824  0.000449  0.001118  0.000557  0.000024
 10  -1223.90207873  -0.0000030445  0.000223  0.001100  0.000655  0.000021
 11  -1223.90207955  -0.0000008276  0.000056  0.000146  0.000103  0.000005
 12  -1223.90207967  -0.0000001125  0.000013  0.000029  0.000043  0.000001
 13  -1223.90207967  -0.0000000026  0.000007  0.000025  0.000019  0.000001
                  ***Gradient check signals convergence***
              ***Rediagonalizing the Fockian in SOSCF/NRSCF***

               *****************************************************
               *                     SUCCESS                       *
               *           SCF CONVERGED AFTER  14 CYCLES          *
               *****************************************************

Old exchange energy                            =    -26.430120248 Eh
New exchange energy                            =    -26.430117924 Eh
Exchange energy change after final integration =      0.000002323 Eh
Total energy after final integration           =  -1223.902077346 Eh
Final COS-X integration done in                =    25.021 sec

----------------
TOTAL SCF ENERGY
----------------

Total Energy       :        -1223.90207735 Eh          -33304.06867 eV

Components:
Nuclear Repulsion  :          623.43162268 Eh           16964.43691 eV
Electronic Energy  :        -1847.33370003 Eh          -50268.50558 eV
One Electron Energy:        -2903.23578315 Eh          -79001.06200 eV
Two Electron Energy:         1055.90208312 Eh           28732.55642 eV
Max COSX asymmetry :            0.00000293 Eh               0.00008 eV
CPCM Dielectric    :           -0.08559632 Eh              -2.32919 eV

Virial components:
Potential Energy   :        -2442.57085783 Eh          -66465.73209 eV
Kinetic Energy     :         1218.66878048 Eh           33161.66342 eV
Virial Ratio       :            2.00429427


DFT components:
N(Alpha)           :       41.999979920580 electrons
N(Beta)            :       41.999979920580 electrons
N(Total)           :       83.999959841161 electrons
E(XC)              :      -73.312581043277 Eh       
DFET-embed. en.    :        0.000000000000 Eh       
CPCM Solvation Model Properties:
Surface-charge          :           -1.00937001
Charge-correction       :            0.00129047 Eh               0.03512 eV
Free-energy (cav+disp)  :  This term is not implemented in the current solvation scheme

---------------
SCF CONVERGENCE
---------------

  Last Energy change         ...   -2.2137e-09  Tolerance :   1.0000e-08
  Last MAX-Density change    ...    3.1086e-15  Tolerance :   1.0000e-07
  Last RMS-Density change    ...    5.7014e-17  Tolerance :   5.0000e-09
  Last Orbital Gradient      ...    8.9051e-07  Tolerance :   1.0000e-05
  Last Orbital Rotation      ...    2.1735e-06  Tolerance :   1.0000e-05

             **** THE GBW FILE WAS UPDATED (3_prot_aq_2.gbw) ****
             **** DENSITY 3_prot_aq_2.scfp WAS UPDATED ****
             **** ENERGY FILE WAS UPDATED (3_prot_aq_2.en.tmp) ****
             **** THE GBW FILE WAS UPDATED (3_prot_aq_2.gbw) ****
             **** DENSITY 3_prot_aq_2.scfp WAS UPDATED ****
----------------
ORBITAL ENERGIES
----------------

  NO   OCC          E(Eh)            E(eV) 
   0   2.0000    -101.525213     -2762.6415 
   1   2.0000    -101.524433     -2762.6203 
   2   2.0000     -14.537443      -395.5839 
   3   2.0000     -14.536330      -395.5536 
   4   2.0000     -10.404698      -283.1262 
   5   2.0000     -10.402643      -283.0703 
   6   2.0000     -10.401158      -283.0299 
   7   2.0000     -10.332371      -281.1581 
   8   2.0000     -10.330831      -281.1162 
   9   2.0000      -9.597672      -261.1659 
  10   2.0000      -9.596870      -261.1441 
  11   2.0000      -7.367094      -200.4688 
  12   2.0000      -7.366320      -200.4478 
  13   2.0000      -7.355221      -200.1457 
  14   2.0000      -7.355160      -200.1441 
  15   2.0000      -7.354423      -200.1240 
  16   2.0000      -7.354345      -200.1219 
  17   2.0000      -1.246549       -33.9203 
  18   2.0000      -1.129543       -30.7364 
  19   2.0000      -1.057478       -28.7754 
  20   2.0000      -1.022059       -27.8116 
  21   2.0000      -0.947649       -25.7868 
  22   2.0000      -0.897569       -24.4241 
  23   2.0000      -0.851707       -23.1761 
  24   2.0000      -0.777285       -21.1510 
  25   2.0000      -0.762671       -20.7533 
  26   2.0000      -0.689790       -18.7701 
  27   2.0000      -0.668144       -18.1811 
  28   2.0000      -0.625007       -17.0073 
  29   2.0000      -0.619355       -16.8535 
  30   2.0000      -0.606977       -16.5167 
  31   2.0000      -0.595716       -16.2103 
  32   2.0000      -0.591105       -16.0848 
  33   2.0000      -0.540285       -14.7019 
  34   2.0000      -0.538029       -14.6405 
  35   2.0000      -0.532170       -14.4811 
  36   2.0000      -0.495166       -13.4741 
  37   2.0000      -0.491878       -13.3847 
  38   2.0000      -0.462907       -12.5963 
  39   2.0000      -0.462641       -12.5891 
  40   2.0000      -0.423993       -11.5374 
  41   2.0000      -0.359486        -9.7821 
  42   0.0000       0.042416         1.1542 
  43   0.0000       0.070648         1.9224 
  44   0.0000       0.100509         2.7350 
  45   0.0000       0.145661         3.9636 
  46   0.0000       0.161375         4.3912 
  47   0.0000       0.168826         4.5940 
  48   0.0000       0.185512         5.0480 
  49   0.0000       0.210415         5.7257 
  50   0.0000       0.222137         6.0447 
  51   0.0000       0.228441         6.2162 
  52   0.0000       0.230563         6.2739 
  53   0.0000       0.237809         6.4711 
  54   0.0000       0.249781         6.7969 
  55   0.0000       0.277166         7.5421 
  56   0.0000       0.292223         7.9518 
  57   0.0000       0.321132         8.7384 
  58   0.0000       0.370644        10.0857 
  59   0.0000       0.393764        10.7149 
  60   0.0000       0.421125        11.4594 
  61   0.0000       0.454056        12.3555 
  62   0.0000       0.464851        12.6492 
  63   0.0000       0.500251        13.6125 
  64   0.0000       0.506635        13.7862 
  65   0.0000       0.510551        13.8928 
  66   0.0000       0.550836        14.9890 
  67   0.0000       0.563405        15.3310 
  68   0.0000       0.575727        15.6663 
  69   0.0000       0.612427        16.6650 
  70   0.0000       0.623747        16.9730 
  71   0.0000       0.667405        18.1610 
  72   0.0000       0.670547        18.2465 
  73   0.0000       0.673656        18.3311 
  74   0.0000       0.681243        18.5376 
  75   0.0000       0.721342        19.6287 
  76   0.0000       0.728116        19.8130 
  77   0.0000       0.743196        20.2234 
  78   0.0000       0.745095        20.2751 
  79   0.0000       0.756972        20.5983 
  80   0.0000       0.758219        20.6322 
  81   0.0000       0.767704        20.8903 
  82   0.0000       0.777233        21.1496 
  83   0.0000       0.781061        21.2537 
  84   0.0000       0.785249        21.3677 
  85   0.0000       0.794997        21.6330 
  86   0.0000       0.819146        22.2901 
  87   0.0000       0.842848        22.9351 
  88   0.0000       0.844888        22.9906 
  89   0.0000       0.850396        23.1405 
  90   0.0000       0.859891        23.3988 
  91   0.0000       0.863893        23.5077 
  92   0.0000       0.893509        24.3136 
  93   0.0000       0.918524        24.9943 
  94   0.0000       0.926830        25.2203 
  95   0.0000       0.928463        25.2648 
  96   0.0000       0.951460        25.8906 
  97   0.0000       0.965502        26.2726 
  98   0.0000       0.999333        27.1932 
  99   0.0000       1.017674        27.6923 
 100   0.0000       1.026128        27.9224 
 101   0.0000       1.088564        29.6213 
 102   0.0000       1.118216        30.4282 
 103   0.0000       1.148222        31.2447 
 104   0.0000       1.187895        32.3243 
 105   0.0000       1.222698        33.2713 
 106   0.0000       1.233767        33.5725 
 107   0.0000       1.247489        33.9459 
 108   0.0000       1.257053        34.2062 
 109   0.0000       1.312191        35.7065 
 110   0.0000       1.316187        35.8153 
 111   0.0000       1.360821        37.0298 
 112   0.0000       1.400594        38.1121 
 113   0.0000       1.458192        39.6794 
 114   0.0000       1.538511        41.8650 
 115   0.0000       1.554581        42.3023 
 116   0.0000       1.578818        42.9618 
 117   0.0000       1.585684        43.1486 
 118   0.0000       1.592619        43.3374 
 119   0.0000       1.618330        44.0370 
 120   0.0000       1.620589        44.0985 
 121   0.0000       1.642914        44.7060 
 122   0.0000       1.718245        46.7558 
 123   0.0000       1.733070        47.1592 
 124   0.0000       1.809515        49.2394 
 125   0.0000       1.843130        50.1541 
 126   0.0000       1.846475        50.2451 
 127   0.0000       1.874730        51.0140 
 128   0.0000       1.875593        51.0375 
 129   0.0000       1.917525        52.1785 
 130   0.0000       1.926447        52.4213 
 131   0.0000       1.936417        52.6926 
 132   0.0000       1.944676        52.9173 
 133   0.0000       2.003288        54.5122 
 134   0.0000       2.017129        54.8889 
 135   0.0000       2.094195        56.9859 
 136   0.0000       2.101500        57.1847 
 137   0.0000       2.102731        57.2182 
 138   0.0000       2.126236        57.8578 
 139   0.0000       2.139767        58.2260 
 140   0.0000       2.173397        59.1411 
 141   0.0000       2.198588        59.8266 
 142   0.0000       2.271795        61.8187 
 143   0.0000       2.294034        62.4238 
 144   0.0000       2.328176        63.3529 
 145   0.0000       2.382721        64.8371 
 146   0.0000       2.419520        65.8385 
 147   0.0000       2.457674        66.8767 
 148   0.0000       2.492879        67.8347 
 149   0.0000       2.524514        68.6955 
 150   0.0000       2.526918        68.7609 
 151   0.0000       2.545692        69.2718 
 152   0.0000       2.687274        73.1244 
 153   0.0000       2.746440        74.7344 
 154   0.0000       2.752003        74.8858 
 155   0.0000       2.774951        75.5103 
 156   0.0000       2.809279        76.4444 
 157   0.0000       2.849686        77.5439 
 158   0.0000       2.869227        78.0756 
 159   0.0000       2.894313        78.7583 
 160   0.0000       2.915976        79.3477 
 161   0.0000       3.023265        82.2672 
 162   0.0000       3.046922        82.9110 
 163   0.0000       3.053204        83.0819 
 164   0.0000       3.055585        83.1467 
 165   0.0000       3.214115        87.4605 
 166   0.0000       3.250767        88.4579 
 167   0.0000       3.414711        92.9190 
 168   0.0000       3.538720        96.2935 

                    ********************************
                    * MULLIKEN POPULATION ANALYSIS *
                    ********************************

-----------------------
MULLIKEN ATOMIC CHARGES
-----------------------
   0 N :   -0.196752
   1 C :    0.264151
   2 N :   -0.208274
   3 C :    0.122293
   4 C :    0.119150
   5 C :    0.081155
   6 C :    0.083985
   7 H :    0.099029
   8 H :    0.099004
   9 H :    0.101132
  10 H :    0.084443
  11 H :    0.103816
  12 H :    0.103786
  13 H :    0.140442
  14 Cl:    0.002000
  15 Cl:    0.000637
Sum of atomic charges:    1.0000000

--------------------------------
MULLIKEN REDUCED ORBITAL CHARGES
--------------------------------
  0 N s       :     3.396564  s :     3.396564
      pz      :     1.464356  p :     3.765881
      px      :     1.166640
      py      :     1.134886
      dz2     :     0.002491  d :     0.034306
      dxz     :     0.006421
      dyz     :     0.006715
      dx2y2   :     0.008849
      dxy     :     0.009829
  1 C s       :     3.086161  s :     3.086161
      pz      :     0.916327  p :     2.582416
      px      :     0.757196
      py      :     0.908893
      dz2     :     0.005257  d :     0.067273
      dxz     :     0.016492
      dyz     :     0.006733
      dx2y2   :     0.016043
      dxy     :     0.022747
  2 N s       :     3.399911  s :     3.399911
      pz      :     1.472410  p :     3.774407
      px      :     1.170256
      py      :     1.131741
      dz2     :     0.002488  d :     0.033956
      dxz     :     0.005954
      dyz     :     0.006898
      dx2y2   :     0.008593
      dxy     :     0.010022
  3 C s       :     3.009910  s :     3.009910
      pz      :     1.103426  p :     2.797964
      px      :     0.930602
      py      :     0.763937
      dz2     :     0.005421  d :     0.069832
      dxz     :     0.010907
      dyz     :     0.012278
      dx2y2   :     0.022797
      dxy     :     0.018430
  4 C s       :     3.009901  s :     3.009901
      pz      :     1.107656  p :     2.801316
      px      :     0.923686
      py      :     0.769973
      dz2     :     0.005431  d :     0.069633
      dxz     :     0.010822
      dyz     :     0.012044
      dx2y2   :     0.022865
      dxy     :     0.018470
  5 C s       :     3.007842  s :     3.007842
      pz      :     1.078440  p :     2.873848
      px      :     0.737860
      py      :     1.057548
      dz2     :     0.007363  d :     0.037154
      dxz     :     0.008798
      dyz     :     0.003313
      dx2y2   :     0.011559
      dxy     :     0.006121
  6 C s       :     3.004959  s :     3.004959
      pz      :     1.085692  p :     2.874196
      px      :     0.743066
      py      :     1.045438
      dz2     :     0.007464  d :     0.036860
      dxz     :     0.005191
      dyz     :     0.006744
      dx2y2   :     0.008796
      dxy     :     0.008664
  7 H s       :     0.876764  s :     0.876764
      pz      :     0.012772  p :     0.024208
      px      :     0.005514
      py      :     0.005921
  8 H s       :     0.876787  s :     0.876787
      pz      :     0.012762  p :     0.024209
      px      :     0.005518
      py      :     0.005929
  9 H s       :     0.874442  s :     0.874442
      pz      :     0.004988  p :     0.024426
      px      :     0.002539
      py      :     0.016899
 10 H s       :     0.890167  s :     0.890167
      pz      :     0.005068  p :     0.025390
      px      :     0.008194
      py      :     0.012128
 11 H s       :     0.872033  s :     0.872033
      pz      :     0.012808  p :     0.024150
      px      :     0.003023
      py      :     0.008320
 12 H s       :     0.872061  s :     0.872061
      pz      :     0.012755  p :     0.024153
      px      :     0.003016
      py      :     0.008382
 13 H s       :     0.834258  s :     0.834258
      pz      :     0.004293  p :     0.025299
      px      :     0.001292
      py      :     0.019714
 14 Cls       :     5.939694  s :     5.939694
      pz      :     3.920726  p :    11.014796
      px      :     3.617374
      py      :     3.476695
      dz2     :     0.006708  d :     0.043510
      dxz     :     0.004483
      dyz     :     0.006385
      dx2y2   :     0.005910
      dxy     :     0.020025
 15 Cls       :     5.940455  s :     5.940455
      pz      :     3.919144  p :    11.015607
      px      :     3.602887
      py      :     3.493576
      dz2     :     0.006662  d :     0.043300
      dxz     :     0.004736
      dyz     :     0.006217
      dx2y2   :     0.005652
      dxy     :     0.020034


                     *******************************
                     * LOEWDIN POPULATION ANALYSIS *
                     *******************************

----------------------
LOEWDIN ATOMIC CHARGES
----------------------
   0 N :    0.097483
   1 C :    0.156186
   2 N :    0.092231
   3 C :   -0.138834
   4 C :   -0.142741
   5 C :    0.051271
   6 C :    0.053081
   7 H :    0.054169
   8 H :    0.054156
   9 H :    0.060391
  10 H :    0.042636
  11 H :    0.058499
  12 H :    0.058528
  13 H :    0.074148
  14 Cl:    0.216731
  15 Cl:    0.212066

-------------------------------
LOEWDIN REDUCED ORBITAL CHARGES
-------------------------------
  0 N s       :     3.042943  s :     3.042943
      pz      :     1.392501  p :     3.781286
      px      :     1.197241
      py      :     1.191544
      dz2     :     0.004731  d :     0.078289
      dxz     :     0.010221
      dyz     :     0.013063
      dx2y2   :     0.024257
      dxy     :     0.026017
  1 C s       :     2.833113  s :     2.833113
      pz      :     0.942301  p :     2.854897
      px      :     0.886151
      py      :     1.026444
      dz2     :     0.011160  d :     0.155805
      dxz     :     0.033956
      dyz     :     0.010504
      dx2y2   :     0.040724
      dxy     :     0.059461
  2 N s       :     3.043851  s :     3.043851
      pz      :     1.400012  p :     3.786276
      px      :     1.197387
      py      :     1.188877
      dz2     :     0.004697  d :     0.077641
      dxz     :     0.009685
      dyz     :     0.013152
      dx2y2   :     0.023810
      dxy     :     0.026298
  3 C s       :     2.881359  s :     2.881359
      pz      :     1.115345  p :     3.098845
      px      :     1.046591
      py      :     0.936910
      dz2     :     0.011211  d :     0.158630
      dxz     :     0.021217
      dyz     :     0.023503
      dx2y2   :     0.060536
      dxy     :     0.042163
  4 C s       :     2.880491  s :     2.880491
      pz      :     1.120820  p :     3.104181
      px      :     1.046673
      py      :     0.936689
      dz2     :     0.011217  d :     0.158069
      dxz     :     0.021067
      dyz     :     0.022903
      dx2y2   :     0.060650
      dxy     :     0.042232
  5 C s       :     2.821637  s :     2.821637
      pz      :     1.103446  p :     3.033080
      px      :     0.846093
      py      :     1.083541
      dz2     :     0.018168  d :     0.094013
      dxz     :     0.024041
      dyz     :     0.007265
      dx2y2   :     0.029555
      dxy     :     0.014984
  6 C s       :     2.821296  s :     2.821296
      pz      :     1.105816  p :     3.032271
      px      :     0.848640
      py      :     1.077815
      dz2     :     0.018320  d :     0.093352
      dxz     :     0.012331
      dyz     :     0.018495
      dx2y2   :     0.020850
      dxy     :     0.023355
  7 H s       :     0.877872  s :     0.877872
      pz      :     0.034825  p :     0.067958
      px      :     0.016681
      py      :     0.016451
  8 H s       :     0.877883  s :     0.877883
      pz      :     0.034797  p :     0.067961
      px      :     0.016692
      py      :     0.016472
  9 H s       :     0.871169  s :     0.871169
      pz      :     0.013671  p :     0.068441
      px      :     0.008389
      py      :     0.046381
 10 H s       :     0.886408  s :     0.886408
      pz      :     0.013982  p :     0.070956
      px      :     0.022911
      py      :     0.034063
 11 H s       :     0.873452  s :     0.873452
      pz      :     0.034914  p :     0.068049
      px      :     0.009986
      py      :     0.023149
 12 H s       :     0.873420  s :     0.873420
      pz      :     0.034770  p :     0.068052
      px      :     0.009964
      py      :     0.023319
 13 H s       :     0.848989  s :     0.848989
      pz      :     0.014273  p :     0.076863
      px      :     0.006846
      py      :     0.055744
 14 Cls       :     5.729037  s :     5.729037
      pz      :     3.899690  p :    11.002961
      px      :     3.616819
      py      :     3.486452
      dz2     :     0.007951  d :     0.051272
      dxz     :     0.005196
      dyz     :     0.007297
      dx2y2   :     0.006419
      dxy     :     0.024410
 15 Cls       :     5.729954  s :     5.729954
      pz      :     3.897448  p :    11.006817
      px      :     3.606690
      py      :     3.502679
      dz2     :     0.007943  d :     0.051163
      dxz     :     0.005498
      dyz     :     0.007112
      dx2y2   :     0.006116
      dxy     :     0.024495


                      *****************************
                      * MAYER POPULATION ANALYSIS *
                      *****************************

  NA   - Mulliken gross atomic population
  ZA   - Total nuclear charge
  QA   - Mulliken gross atomic charge
  VA   - Mayer's total valence
  BVA  - Mayer's bonded valence
  FA   - Mayer's free valence

  ATOM       NA         ZA         QA         VA         BVA        FA
  0 N      7.1968     7.0000    -0.1968     3.5241     3.5241    -0.0000
  1 C      5.7358     6.0000     0.2642     3.8461     3.8461    -0.0000
  2 N      7.2083     7.0000    -0.2083     3.5172     3.5172     0.0000
  3 C      5.8777     6.0000     0.1223     3.9740     3.9740     0.0000
  4 C      5.8808     6.0000     0.1192     3.9720     3.9720     0.0000
  5 C      5.9188     6.0000     0.0812     3.8394     3.8394     0.0000
  6 C      5.9160     6.0000     0.0840     3.8343     3.8343    -0.0000
  7 H      0.9010     1.0000     0.0990     0.9952     0.9952    -0.0000
  8 H      0.9010     1.0000     0.0990     0.9952     0.9952    -0.0000
  9 H      0.8989     1.0000     0.1011     0.9979     0.9979    -0.0000
 10 H      0.9156     1.0000     0.0844     1.0171     1.0171     0.0000
 11 H      0.8962     1.0000     0.1038     0.9919     0.9919    -0.0000
 12 H      0.8962     1.0000     0.1038     0.9919     0.9919     0.0000
 13 H      0.8596     1.0000     0.1404     0.9930     0.9930     0.0000
 14 Cl    16.9980    17.0000     0.0020     1.2525     1.2525     0.0000
 15 Cl    16.9994    17.0000     0.0006     1.2423     1.2423     0.0000

  Mayer bond orders larger than 0.100000
B(  0-N ,  1-C ) :   1.3506 B(  0-N ,  4-C ) :   1.1814 B(  0-N ,  5-C ) :   0.8948 
B(  1-C ,  2-N ) :   1.3394 B(  1-C , 13-H ) :   0.9686 B(  2-N ,  3-C ) :   1.1819 
B(  2-N ,  6-C ) :   0.8910 B(  3-C ,  4-C ) :   1.5320 B(  3-C , 14-Cl) :   1.1330 
B(  4-C , 15-Cl) :   1.1322 B(  5-C ,  7-H ) :   0.9703 B(  5-C ,  8-H ) :   0.9703 
B(  5-C ,  9-H ) :   0.9675 B(  6-C , 10-H ) :   0.9657 B(  6-C , 11-H ) :   0.9713 
B(  6-C , 12-H ) :   0.9713 

-------
TIMINGS
-------

Total SCF time: 0 days 0 hours 2 min 43 sec 

Total time                  ....     163.986 sec
Sum of individual times     ....     163.603 sec  ( 99.8%)

Fock matrix formation       ....     160.860 sec  ( 98.1%)
  Split-RI-J                ....       6.038 sec  (  3.8% of F)
  Chain of spheres X        ....     129.919 sec  ( 80.8% of F)
  XC integration            ....      16.378 sec  ( 10.2% of F)
    Basis function eval.    ....       5.880 sec  ( 35.9% of XC)
    Density eval.           ....       3.392 sec  ( 20.7% of XC)
    XC-Functional eval.     ....       2.553 sec  ( 15.6% of XC)
    XC-Potential eval.      ....       3.730 sec  ( 22.8% of XC)
Diagonalization             ....       0.048 sec  (  0.0%)
Density matrix formation    ....       0.009 sec  (  0.0%)
Population analysis         ....       0.007 sec  (  0.0%)
Initial guess               ....       0.481 sec  (  0.3%)
Orbital Transformation      ....       0.000 sec  (  0.0%)
Orbital Orthonormalization  ....       0.000 sec  (  0.0%)
DIIS solution               ....       0.015 sec  (  0.0%)
SOSCF solution              ....       0.023 sec  (  0.0%)
Grid generation             ....       2.160 sec  (  1.3%)

Maximum memory used throughout the entire SCF-calculation: 73.4 MB


-------------------------------------------------------------------------------
                          DFT DISPERSION CORRECTION                            
                                                                               
                                 DFTD4 V2.5                                    
-------------------------------------------------------------------------------
The WB97X functional is recognized
Active option DFTDOPT                   ...         5   

Starting D4
-------------------------   ----------------
Dispersion correction           -0.002509284
-------------------------   ----------------


-------------------------   --------------------
FINAL SINGLE POINT ENERGY     -1223.904586630048
-------------------------   --------------------

------------------------------------------------------------------------------
                         ORCA SCF GRADIENT CALCULATION
------------------------------------------------------------------------------

 ... reading COSX grid (gridx3)
Gradient of the Kohn-Sham DFT energy:
Kohn-Sham wavefunction type      ... RKS
Hartree-Fock exchange scaling    ...    0.158
Number of operators              ...    1
Number of atoms                  ...   16
Basis set dimensions             ...  169
Integral neglect threshold       ... 2.5e-11
Integral primitive cutoff        ... 2.5e-12
SHARK Integral package           ... ON

Nuc. rep. gradient       (SHARK) ... done (  0.0 sec)
HCore & Overlap gradient (SHARK) ... done (  0.2 sec)
RI-J gradient            (SHARK) ... done (  1.5 sec)
COSX-gradient                    ... done ( 27.2 sec)
Exchange-correlation gradient    ... done
Dispersion correction            ... Starting D4


------------------- 
Dispersion Gradient 
------------------- 
   1  :   -0.000011249   -0.000006256    0.000000001
   2  :    0.000000159   -0.000003327   -0.000000000
   3  :    0.000011306   -0.000006021    0.000000001
   4  :    0.000005070   -0.000000169   -0.000000000
   5  :   -0.000005024   -0.000000777    0.000000000
   6  :   -0.000036990   -0.000014581   -0.000000001
   7  :    0.000036762   -0.000015754   -0.000000002
   8  :   -0.000008856   -0.000002235   -0.000001588
   9  :   -0.000008856   -0.000002232    0.000001586
  10  :   -0.000009549   -0.000006609    0.000000001
  11  :    0.000008703   -0.000000751    0.000000005
  12  :    0.000009211   -0.000005404   -0.000001941
  13  :    0.000009213   -0.000005417    0.000001936
  14  :    0.000000263   -0.000008889   -0.000000001
  15  :    0.000034731    0.000039800    0.000000001
  16  :   -0.000034894    0.000038621    0.000000000

  |G| =    0.000098781

done

------------------
CARTESIAN GRADIENT
------------------

   1   N   :   -0.014844073   -0.002267852    0.000001239
   2   C   :   -0.000536749   -0.008949741   -0.000005318
   3   N   :    0.014273595   -0.001901523   -0.000007766
   4   C   :    0.015615938   -0.007874925    0.000002971
   5   C   :   -0.014872555   -0.007425997    0.000001965
   6   C   :    0.012233307    0.002561321    0.000005979
   7   C   :   -0.010591363    0.007422517    0.000015324
   8   H   :    0.000772225   -0.001550188    0.005419464
   9   H   :    0.000774454   -0.001553916   -0.005419273
  10   H   :   -0.001614726    0.006070740   -0.000005092
  11   H   :   -0.002548203   -0.004389697   -0.000021195
  12   H   :    0.000443426    0.001988015    0.005120498
  13   H   :    0.000455828    0.002013576   -0.005103293
  14   H   :    0.000335318    0.012471073   -0.000002257
  15   Cl  :    0.003494553    0.001243117    0.000000489
  16   Cl  :   -0.003442875    0.001670223    0.000000260

Difference to translation invariance:
           :   -0.0000518981   -0.0004732584    0.0000039932

Difference to rotation invariance:
           :    0.0000001896   -0.0000244764    0.0019992619

Norm of the cartesian gradient     ...    0.0423510861
RMS gradient                       ...    0.0061128527
MAX gradient                       ...    0.0156159385

-------
TIMINGS
-------

Total SCF gradient time            ...       35.443 sec

One electron gradient       ....       0.228 sec  (  0.6%)
RI-J Coulomb gradient       ....       1.522 sec  (  4.3%)
COSX gradient               ....      27.181 sec  ( 76.7%)
XC gradient                 ....       5.032 sec  ( 14.2%)
CPCM gradient               ....       0.513 sec  (  1.4%)
   A-Matrix (El+Nuc)        ....       0.042 sec  (  0.1%)
   Potential                ....       0.471 sec  (  1.3%)

Maximum memory used throughout the entire SCFGRAD-calculation: 59.7 MB
------------------------------------------------------------------------------
                         ORCA GEOMETRY RELAXATION STEP
------------------------------------------------------------------------------

Reading the OPT-File                    .... done
Getting information on internals        .... done
Copying old internal coords+grads       .... done
Making the new internal coordinates     .... (new redundants).... done
Validating the new internal coordinates .... (new redundants).... done
Calculating the B-matrix                .... done
Calculating the G,G- and P matrices     .... done
Transforming gradient to internals      .... done
Projecting the internal gradient        .... done
Number of atoms                         ....  16
Number of internal coordinates          ....  75
Current Energy                          .... -1223.904586630 Eh
Current gradient norm                   ....     0.042351086 Eh/bohr
Maximum allowed component of the step   ....  0.300
Current trust radius                    ....  0.300
Evaluating the initial hessian          ....  (Almloef) done
Projecting the Hessian                  .... done
Forming the augmented Hessian           .... done
Diagonalizing the augmented Hessian     .... done
Last element of RFO vector              ....  0.996912228
Lowest eigenvalues of augmented Hessian:
 -0.002693283  0.018499718  0.018816294  0.026255810  0.027097249
Length of the computed step             ....  0.078767156
The final length of the internal step   ....  0.078767156
Converting the step to cartesian space:
 Initial RMS(Int)=    0.0090952478
Transforming coordinates:
 Iter   0:  RMS(Cart)=    0.0166572920 RMS(Int)=    1.0260754100
 Iter   1:  RMS(Cart)=    0.0001166155 RMS(Int)=    0.0000530674
 Iter   2:  RMS(Cart)=    0.0000012056 RMS(Int)=    0.0000008851
 Iter   3:  RMS(Cart)=    0.0000000120 RMS(Int)=    0.0000000077
done
Storing new coordinates                 .... done

                                .--------------------.
          ----------------------|Geometry convergence|-------------------------
          Item                value                   Tolerance       Converged
          ---------------------------------------------------------------------
          RMS gradient        0.0040673922            0.0001000000      NO
          MAX gradient        0.0165576899            0.0003000000      NO
          RMS step            0.0090952478            0.0020000000      NO
          MAX step            0.0324922818            0.0040000000      NO
          ........................................................
          Max(Bonds)      0.0172      Max(Angles)    0.69
          Max(Dihed)        0.30      Max(Improp)    0.00
          ---------------------------------------------------------------------

The optimization has not yet converged - more geometry cycles are needed


    ---------------------------------------------------------------------------
                         Redundant Internal Coordinates
                            (Angstroem and degrees)

        Definition                    Value    dE/dq     Step     New-Value
    ----------------------------------------------------------------------------
     1. B(C   1,N   0)                1.3316  0.002556 -0.0018    1.3298   
     2. B(N   2,C   1)                1.3340  0.002777 -0.0019    1.3321   
     3. B(C   3,N   2)                1.3726 -0.007361  0.0065    1.3790   
     4. B(C   4,N   0)                1.3719 -0.005632  0.0048    1.3767   
     5. B(C   4,C   3)                1.3825  0.016558 -0.0138    1.3686   
     6. B(C   5,N   0)                1.4379 -0.013332  0.0149    1.4528   
     7. B(C   6,N   2)                1.4402 -0.013878  0.0157    1.4558   
     8. B(H   7,C   5)                1.0904 -0.005278  0.0077    1.0981   
     9. B(H   8,C   5)                1.0904 -0.005278  0.0077    1.0981   
    10. B(H   9,C   5)                1.0870 -0.006067  0.0088    1.0957   
    11. B(H  10,C   6)                1.0874 -0.005029  0.0073    1.0946   
    12. B(H  11,C   6)                1.0899 -0.005193  0.0076    1.0974   
    13. B(H  12,C   6)                1.0899 -0.005188  0.0076    1.0974   
    14. B(H  13,C   1)                1.0739 -0.012499  0.0172    1.0911   
    15. B(Cl 14,C   3)                1.6944  0.003206 -0.0037    1.6907   
    16. B(Cl 15,C   4)                1.6942  0.003521 -0.0040    1.6901   
    17. A(C   1,N   0,C   4)          108.09 -0.001327    0.19    108.28   
    18. A(C   4,N   0,C   5)          124.67 -0.002803    0.39    125.05   
    19. A(C   1,N   0,C   5)          127.24  0.004130   -0.57    126.66   
    20. A(N   2,C   1,H  13)          124.83 -0.002033    0.25    125.08   
    21. A(N   0,C   1,H  13)          125.22 -0.001306    0.14    125.36   
    22. A(N   0,C   1,N   2)          109.94  0.003339   -0.39    109.55   
    23. A(C   1,N   2,C   3)          108.05 -0.000571    0.10    108.15   
    24. A(C   3,N   2,C   6)          126.01 -0.003812    0.52    126.53   
    25. A(C   1,N   2,C   6)          125.94  0.004382   -0.62    125.32   
    26. A(N   2,C   3,Cl 14)          123.63 -0.002730    0.38    124.02   
    27. A(C   4,C   3,Cl 14)          129.46  0.003455   -0.44    129.02   
    28. A(N   2,C   3,C   4)          106.90 -0.000724    0.06    106.96   
    29. A(N   0,C   4,Cl 15)          122.65 -0.002012    0.29    122.95   
    30. A(N   0,C   4,C   3)          107.01 -0.000717    0.04    107.05   
    31. A(C   3,C   4,Cl 15)          130.34  0.002729   -0.34    130.00   
    32. A(H   8,C   5,H   9)          109.50 -0.001317    0.13    109.63   
    33. A(H   7,C   5,H   9)          109.50 -0.001320    0.13    109.63   
    34. A(N   0,C   5,H   9)          109.79  0.002452   -0.53    109.26   
    35. A(H   7,C   5,H   8)          108.27 -0.002586    0.69    108.96   
    36. A(N   0,C   5,H   8)          109.88  0.001340   -0.20    109.67   
    37. A(N   0,C   5,H   7)          109.88  0.001342   -0.20    109.67   
    38. A(H  11,C   6,H  12)          108.93 -0.002245    0.48    109.41   
    39. A(H  10,C   6,H  12)          109.17 -0.000945    0.13    109.30   
    40. A(N   2,C   6,H  12)          110.29  0.001804   -0.31    109.98   
    41. A(H  10,C   6,H  11)          109.16 -0.000950    0.13    109.30   
    42. A(N   2,C   6,H  11)          110.29  0.001798   -0.31    109.99   
    43. A(N   2,C   6,H  10)          108.98  0.000488   -0.13    108.85   
    44. D(H  13,C   1,N   0,C   5)     -0.00  0.000000   -0.00     -0.00   
    45. D(N   2,C   1,N   0,C   5)   -180.00  0.000002   -0.00   -180.00   
    46. D(N   2,C   1,N   0,C   4)      0.00  0.000002   -0.00     -0.00   
    47. D(H  13,C   1,N   0,C   4)   -180.00  0.000000   -0.00   -180.00   
    48. D(C   6,N   2,C   1,N   0)   -179.99 -0.000003    0.01   -179.99   
    49. D(C   3,N   2,C   1,N   0)     -0.00 -0.000003    0.00      0.00   
    50. D(C   3,N   2,C   1,H  13)    180.00 -0.000001    0.00    180.00   
    51. D(C   6,N   2,C   1,H  13)      0.01 -0.000002    0.00      0.01   
    52. D(Cl 14,C   3,N   2,C   1)   -180.00  0.000000   -0.00   -180.00   
    53. D(Cl 14,C   3,N   2,C   6)     -0.01  0.000002   -0.00     -0.01   
    54. D(C   4,C   3,N   2,C   6)    179.99  0.000003   -0.01    179.99   
    55. D(C   4,C   3,N   2,C   1)      0.00  0.000002   -0.00     -0.00   
    56. D(Cl 15,C   4,N   0,C   1)   -180.00 -0.000000    0.00   -180.00   
    57. D(C   3,C   4,N   0,C   5)   -180.00 -0.000001    0.00   -180.00   
    58. D(C   3,C   4,N   0,C   1)     -0.00 -0.000001    0.00      0.00   
    59. D(Cl 15,C   4,C   3,Cl 14)     -0.00  0.000000   -0.00     -0.00   
    60. D(Cl 15,C   4,C   3,N   2)    180.00 -0.000001    0.00    180.00   
    61. D(N   0,C   4,C   3,Cl 14)    180.00  0.000001   -0.00    180.00   
    62. D(N   0,C   4,C   3,N   2)     -0.00 -0.000001    0.00     -0.00   
    63. D(Cl 15,C   4,N   0,C   5)      0.00 -0.000001    0.00      0.00   
    64. D(H   9,C   5,N   0,C   4)   -179.97  0.000000   -0.00   -179.97   
    65. D(H   9,C   5,N   0,C   1)      0.03 -0.000000   -0.00      0.03   
    66. D(H   8,C   5,N   0,C   4)    -59.48  0.000765   -0.30    -59.78   
    67. D(H   8,C   5,N   0,C   1)    120.52  0.000765   -0.30    120.22   
    68. D(H   7,C   5,N   0,C   4)     59.54 -0.000763    0.30     59.84   
    69. D(H   7,C   5,N   0,C   1)   -120.45 -0.000763    0.30   -120.16   
    70. D(H  11,C   6,N   2,C   3)   -119.64 -0.000238    0.11   -119.53   
    71. D(H  11,C   6,N   2,C   1)     60.35 -0.000237    0.11     60.45   
    72. D(H  10,C   6,N   2,C   3)      0.18 -0.000006    0.01      0.18   
    73. D(H  12,C   6,N   2,C   1)    -60.01  0.000237   -0.10    -60.11   
    74. D(H  10,C   6,N   2,C   1)   -179.83 -0.000005    0.01   -179.83   
    75. D(H  12,C   6,N   2,C   3)    120.00  0.000235   -0.10    119.90   
    ----------------------------------------------------------------------------

         *************************************************************
         *                GEOMETRY OPTIMIZATION CYCLE   2            *
         *************************************************************
---------------------------------
CARTESIAN COORDINATES (ANGSTROEM)
---------------------------------
  N     -1.081088   -1.144731    0.000030
  C      0.004806   -1.912338    0.000099
  N      1.093469   -1.144622    0.000095
  C      0.689427    0.173898    0.000043
  C     -0.679193    0.172053    0.000006
  C     -2.462209   -1.595593   -0.000046
  C      2.465886   -1.630389   -0.000068
  H     -2.974774   -1.216534   -0.894136
  H     -2.975169   -1.215539    0.893387
  H     -2.484842   -2.691062    0.000557
  H      3.144897   -0.771823    0.003089
  H      2.649696   -2.234882   -0.897381
  H      2.647943   -2.240141    0.894018
  H      0.006832   -3.003462    0.000134
  Cl     1.752195    1.488857   -0.000015
  Cl    -1.767406    1.465235   -0.000042

----------------------------
CARTESIAN COORDINATES (A.U.)
----------------------------
  NO LB      ZA    FRAG     MASS         X           Y           Z
   0 N     7.0000    0    14.007   -2.042961   -2.163228    0.000056
   1 C     6.0000    0    12.011    0.009083   -3.613796    0.000188
   2 N     7.0000    0    14.007    2.066358   -2.163023    0.000179
   3 C     6.0000    0    12.011    1.302828    0.328619    0.000082
   4 C     6.0000    0    12.011   -1.283488    0.325133    0.000011
   5 C     6.0000    0    12.011   -4.652901   -3.015233   -0.000088
   6 C     6.0000    0    12.011    4.659850   -3.080988   -0.000129
   7 H     1.0000    0     1.008   -5.621509   -2.298917   -1.689672
   8 H     1.0000    0     1.008   -5.622254   -2.297035    1.688257
   9 H     1.0000    0     1.008   -4.695672   -5.085369    0.001052
  10 H     1.0000    0     1.008    5.942995   -1.458535    0.005837
  11 H     1.0000    0     1.008    5.007199   -4.223315   -1.695804
[...]
     36       0.108325   0.275056  -0.201932   0.385931   0.002796  -0.441016
     37      -0.389430  -0.258149  -0.159639   0.186130   0.003106  -0.231359
     38      -0.361194  -0.266122  -0.069911   0.032471   0.000816  -0.044190
     39       0.022741   0.132570   0.009310  -0.007167   0.000038  -0.000247
     40       0.109654  -0.017070  -0.001455  -0.057313   0.000633  -0.001145
     41      -0.000046   0.000002   0.000017  -0.000037  -0.000076   0.002668
     42      -0.004204  -0.001553  -0.002860   0.001152  -0.000001   0.000037
     43      -0.004934  -0.003227  -0.004746   0.001908  -0.000003   0.000058
     44       0.000003   0.000003  -0.000001   0.000002   0.000012   0.000130
     45       0.003924  -0.002821  -0.003027   0.001252  -0.000001   0.000035
     46      -0.004971   0.004868   0.004637  -0.002196   0.000007  -0.000060
     47      -0.000002  -0.000004   0.000000  -0.000000   0.000049  -0.000101
                 36         37         38         39         40         41    
      0       0.113423  -0.000938  -0.179772   0.263612  -0.274348  -0.000495
      1       0.084176  -0.127657   0.138323  -0.022489   0.122901   0.000029
      2       0.000003   0.000017  -0.000027   0.000023  -0.000037  -0.000000
      3       0.001444  -0.021398  -0.019256  -0.475472   0.155795  -0.001006
      4       0.016552  -0.011980  -0.227350  -0.004095  -0.116851   0.000098
      5      -0.000006   0.000007   0.000037  -0.000012   0.000026  -0.000000
      6      -0.115069  -0.007751   0.203138   0.303967   0.086156   0.000283
      7       0.080769   0.157496   0.112835   0.037402   0.084174   0.000150
      8      -0.000003  -0.000084  -0.000060  -0.000079  -0.000027   0.000000
      9       0.000220   0.007076   0.135253  -0.182585  -0.539658   0.000055
     10      -0.078850  -0.140698   0.041296   0.032673  -0.097280  -0.000017
     11       0.000004   0.000018   0.000000  -0.000007  -0.000004  -0.000000
     12       0.002021   0.009042  -0.140579   0.070365   0.577880  -0.000030
     13      -0.089165   0.126687   0.005261  -0.072765  -0.074979  -0.000955
     14       0.000010  -0.000015  -0.000007   0.000015   0.000031   0.000000
     15      -0.001101  -0.001953   0.040799  -0.029397   0.050347   0.046383
     16       0.018231   0.002376  -0.003849  -0.003177  -0.025586   0.011165
     17       0.000001  -0.000001   0.000004  -0.000009   0.000013   0.000019
     18       0.012905   0.014302  -0.028685  -0.031885  -0.026289   0.000324
     19       0.004537  -0.008136  -0.006242   0.005978  -0.019585  -0.000153
     20      -0.000088  -0.000151  -0.000114   0.000059   0.000014  -0.000001
     21      -0.003911  -0.175292   0.298496  -0.191110   0.205662  -0.270132
     22      -0.333635   0.184067  -0.095580  -0.073587   0.027732   0.203361
     23      -0.140357   0.166843  -0.176629   0.064818  -0.059810  -0.491562
     24      -0.003781  -0.175450   0.298731  -0.191090   0.205761  -0.270259
     25      -0.333060   0.183529  -0.095055  -0.073681   0.027862   0.203837
     26       0.140680  -0.167107   0.176889  -0.064828   0.059882   0.491030
     27      -0.565675   0.410458  -0.286712  -0.063473  -0.165983   0.003425
     28       0.008204   0.009415  -0.005780  -0.001733  -0.030767  -0.534767
     29      -0.000375   0.000289  -0.000226   0.000012  -0.000048   0.000308
     30      -0.041885  -0.323280  -0.424538  -0.195687  -0.106771  -0.002554
     31       0.042684   0.248047   0.296361   0.136502   0.035459  -0.003470
     32       0.002321   0.004646   0.003474   0.000829   0.000355  -0.000015
     33       0.235621   0.117776  -0.057576  -0.135639   0.065780  -0.000614
     34      -0.274010  -0.334344  -0.191231  -0.009365  -0.050365   0.002812
     35       0.220387   0.229800   0.114507  -0.012476   0.035599   0.004309
     36       0.239126   0.124414  -0.052973  -0.133979   0.067029  -0.000604
     37      -0.271196  -0.330564  -0.188982  -0.009445  -0.050263   0.002840
     38      -0.221648  -0.231704  -0.115874   0.011948  -0.035847  -0.004287
     39      -0.000170  -0.212791   0.061324   0.610955  -0.178507   0.001025
     40       0.028298  -0.015273  -0.286168  -0.009165  -0.167634  -0.000097
     41       0.000014  -0.000022  -0.000003  -0.000007   0.000001  -0.000001
     42       0.003817   0.004151  -0.006677   0.007411   0.022037   0.000014
     43       0.004969   0.006351  -0.010187   0.002137   0.019261   0.000025
     44      -0.000001  -0.000004  -0.000002  -0.000002  -0.000003   0.000000
     45      -0.004414   0.003545   0.006310  -0.003260  -0.024209  -0.000077
     46       0.005669  -0.005816  -0.008269   0.007142   0.018089   0.000038
     47      -0.000001   0.000001   0.000003   0.000000  -0.000003   0.000000
                 42         43         44         45         46         47    
      0      -0.000321   0.000001   0.000001  -0.000413  -0.000052   0.003591
      1       0.000126   0.000000   0.000000  -0.000575  -0.000052  -0.003079
      2       0.000000  -0.000597  -0.000018  -0.000000   0.000001   0.000001
      3       0.000840   0.000000  -0.000001   0.000097  -0.000442  -0.000045
      4       0.000108  -0.000000  -0.000003   0.000487  -0.000915   0.094473
      5       0.000000   0.000152  -0.000169   0.000000   0.000002  -0.000015
      6       0.000354  -0.000000  -0.000004   0.000096  -0.000185  -0.003429
      7      -0.000388  -0.000000   0.000002  -0.000057  -0.000436  -0.003189
      8      -0.000003   0.000093  -0.000553   0.000000   0.000000  -0.000000
      9       0.000174  -0.000000  -0.000001   0.000086   0.000391   0.000906
     10      -0.000880   0.000000   0.000002  -0.000091   0.000286  -0.002021
     11       0.000001   0.000066   0.000184   0.000000  -0.000002   0.000000
     12      -0.000090   0.000000   0.000000  -0.000711   0.000012  -0.000922
     13      -0.000098   0.000000   0.000000  -0.000073  -0.000031  -0.002016
     14       0.000000  -0.000146   0.000027  -0.000000   0.000000   0.000000
     15       0.000453  -0.000007   0.000001  -0.028138  -0.000105   0.000071
     16       0.000100  -0.000025  -0.000005   0.092552   0.000317  -0.000447
     17       0.000000   0.096603   0.000521   0.000021  -0.000001   0.000001
     18      -0.041843   0.000000   0.000049  -0.000145   0.036717   0.000601
     19       0.024054   0.000001  -0.000056  -0.000239   0.088358   0.001486
     20       0.000095  -0.000468   0.096723   0.000005   0.000016   0.000005
     21      -0.002558  -0.320408  -0.001526   0.167179   0.000585  -0.002269
     22       0.001664   0.246601   0.001269  -0.123192  -0.000452   0.000372
     23      -0.004259  -0.576296  -0.002936   0.311415   0.001098  -0.002344
     24      -0.002558   0.320484   0.001511   0.167854   0.000583  -0.002270
     25       0.001667  -0.247113  -0.001260  -0.123950  -0.000451   0.000373
     26       0.004253  -0.575518  -0.002903  -0.312156  -0.001092   0.002340
     27      -0.000048  -0.000010  -0.000000   0.009721   0.000077  -0.001797
     28      -0.004098   0.000791   0.000047  -0.842247  -0.002779   0.007148
     29       0.000002   0.007398   0.000038   0.000488   0.000002  -0.000003
     30       0.307758   0.000006  -0.002064   0.001960  -0.530191  -0.004153
     31       0.394128   0.000008  -0.002685   0.002433  -0.683549  -0.008151
     32       0.001753  -0.000052   0.008105   0.000011  -0.003037  -0.000032
     33       0.089202  -0.000551   0.099865  -0.000092   0.050900   0.001337
     34      -0.332697   0.001966  -0.388366   0.000427  -0.182999  -0.002575
     35      -0.505618   0.002928  -0.579334   0.000679  -0.288749  -0.004257
     36       0.087934   0.000543  -0.098285  -0.000103   0.050913   0.001333
     37      -0.335789  -0.001983   0.391617   0.000481  -0.187788  -0.002598
     38       0.502750   0.002911  -0.575403  -0.000747   0.291583   0.004237
     39      -0.000909  -0.000001   0.000004   0.000729  -0.000280  -0.001496
     40       0.002024   0.000009   0.000046  -0.008386   0.012183  -0.995391
     41      -0.000003  -0.000538   0.000995  -0.000000  -0.000010   0.000160
     42       0.000100   0.000000  -0.000001  -0.000016  -0.000143  -0.000025
     43      -0.000035  -0.000000   0.000001   0.000010   0.000111  -0.000025
     44       0.000000  -0.000003   0.000011  -0.000000  -0.000000   0.000000
     45      -0.000018   0.000000  -0.000000   0.000030  -0.000001   0.000019
     46       0.000015   0.000000   0.000000  -0.000027  -0.000002  -0.000033
     47      -0.000000  -0.000003  -0.000007   0.000000  -0.000000   0.000000


-----------
IR SPECTRUM
-----------

 Mode   freq       eps      Int      T**2         TX        TY        TZ
       cm**-1   L/(mol*cm) km/mol    a.u.
----------------------------------------------------------------------------
  7:     79.12   0.000049    0.25  0.000194  ( 0.000008  0.000022 -0.013941)
  8:    106.20   0.000003    0.02  0.000009  ( 0.000035 -0.000030  0.002987)
  9:    161.69   0.001142    5.77  0.002205  (-0.000025  0.000039 -0.046954)
 10:    175.01   0.000293    1.48  0.000522  (-0.000754 -0.022825  0.000003)
 11:    244.33   0.000082    0.42  0.000105  (-0.002732  0.009876 -0.000034)
 12:    272.26   0.000285    1.44  0.000326  ( 0.000023 -0.000113 -0.018066)
 13:    284.20   0.001000    5.05  0.001098  ( 0.000303  0.033134 -0.000013)
 14:    326.81   0.000009    0.05  0.000009  (-0.000036 -0.000073 -0.002992)
 15:    445.78   0.002503   12.65  0.001752  (-0.041844  0.001168 -0.000004)
 16:    547.47   0.002658   13.43  0.001515  (-0.003929 -0.038725  0.000001)
 17:    555.03   0.000465    2.35  0.000261  ( 0.006557 -0.014781  0.000014)
 18:    638.11   0.005453   27.56  0.002667  (-0.000016  0.000004 -0.051641)
 19:    651.86   0.000082    0.42  0.000039  ( 0.002650 -0.005695 -0.000156)
 20:    692.79   0.000002    0.01  0.000001  (-0.000025 -0.000007  0.001009)
 21:    870.73   0.000091    0.46  0.000033  ( 0.005714 -0.000231  0.000160)
 22:    874.04   0.002373   11.99  0.000847  (-0.000038  0.000011  0.029106)
 23:   1101.62   0.003774   19.07  0.001069  (-0.020630  0.025369 -0.000011)
 24:   1111.18   0.001214    6.13  0.000341  (-0.006352 -0.017336  0.000024)
 25:   1136.97   0.000932    4.71  0.000256  (-0.001328  0.015826  0.001876)
 26:   1137.10   0.002527   12.77  0.000693  (-0.001930  0.026241 -0.001056)
 27:   1142.94   0.000249    1.26  0.000068  (-0.000053 -0.000055  0.008247)
 28:   1205.34   0.026666  134.76  0.006904  ( 0.083069  0.001814  0.000012)
 29:   1226.89   0.006078   30.72  0.001546  ( 0.039154 -0.003596 -0.000007)
 30:   1412.24   0.000567    2.87  0.000125  (-0.003578  0.010607 -0.000006)
 31:   1425.76   0.000831    4.20  0.000182  (-0.013487  0.000086  0.000061)
 32:   1434.62   0.002803   14.17  0.000610  ( 0.022961  0.009080 -0.000423)
 33:   1438.29   0.002861   14.46  0.000621  (-0.002012  0.024834  0.000148)
 34:   1439.86   0.005781   29.21  0.001253  (-0.000064 -0.000339 -0.035394)
 35:   1450.33   0.005006   25.30  0.001077  (-0.000399  0.000313 -0.032817)
 36:   1467.48   0.015908   80.39  0.003383  (-0.002152 -0.058123  0.000028)
 37:   1494.11   0.003584   18.11  0.000749  (-0.027192 -0.003021  0.000073)
 38:   1523.65   0.000345    1.74  0.000071  (-0.008306  0.001272  0.000029)
 39:   1655.00   0.030157  152.40  0.005686  (-0.074375 -0.012433  0.000021)
 40:   1675.90   0.018553   93.76  0.003455  ( 0.017117 -0.056228  0.000016)
 41:   3104.12   0.000948    4.79  0.000095  ( 0.008944  0.003909  0.000001)
 42:   3112.57   0.001289    6.51  0.000129  (-0.009726  0.005883  0.000018)
 43:   3226.51   0.000055    0.28  0.000005  (-0.000001  0.000001 -0.002303)
 44:   3232.72   0.000072    0.37  0.000007  (-0.000007 -0.000011 -0.002642)
 45:   3238.61   0.000211    1.06  0.000020  ( 0.001218 -0.004337  0.000001)
 46:   3250.02   0.000476    2.41  0.000046  (-0.001593 -0.006573 -0.000001)
 47:   3297.54   0.016207   81.91  0.001534  ( 0.000188 -0.039163  0.000006)

* The epsilon (eps) is given for a Dirac delta lineshape.
** The dipole moment derivative (T) already includes vibrational overlap.

The first frequency considered to be a vibration is 7
The total number of vibrations considered is 41


--------------------------
THERMOCHEMISTRY AT 298.15K
--------------------------

Temperature         ... 298.15 K
Pressure            ... 1.00 atm
Total Mass          ... 166.03 AMU

Throughout the following assumptions are being made:
  (1) The electronic state is orbitally nondegenerate
  (2) There are no thermally accessible electronically excited states
  (3) Hindered rotations indicated by low frequency modes are not
      treated as such but are treated as vibrations and this may
      cause some error
  (4) All equations used are the standard statistical mechanics
      equations for an ideal gas
  (5) All vibrations are strictly harmonic

freq.      79.12  E(vib)   ...       0.49 
freq.     106.20  E(vib)   ...       0.45 
freq.     161.69  E(vib)   ...       0.39 
freq.     175.01  E(vib)   ...       0.38 
freq.     244.33  E(vib)   ...       0.31 
freq.     272.26  E(vib)   ...       0.29 
freq.     284.20  E(vib)   ...       0.28 
freq.     326.81  E(vib)   ...       0.24 
freq.     445.78  E(vib)   ...       0.17 
freq.     547.47  E(vib)   ...       0.12 
freq.     555.03  E(vib)   ...       0.12 
freq.     638.11  E(vib)   ...       0.09 
freq.     651.86  E(vib)   ...       0.08 
freq.     692.79  E(vib)   ...       0.07 
freq.     870.73  E(vib)   ...       0.04 
freq.     874.04  E(vib)   ...       0.04 
freq.    1101.62  E(vib)   ...       0.02 
freq.    1111.18  E(vib)   ...       0.01 
freq.    1136.97  E(vib)   ...       0.01 
freq.    1137.10  E(vib)   ...       0.01 
freq.    1142.94  E(vib)   ...       0.01 
freq.    1205.34  E(vib)   ...       0.01 
freq.    1226.89  E(vib)   ...       0.01 
freq.    1412.24  E(vib)   ...       0.00 
freq.    1425.76  E(vib)   ...       0.00 
freq.    1434.62  E(vib)   ...       0.00 
freq.    1438.29  E(vib)   ...       0.00 
freq.    1439.86  E(vib)   ...       0.00 
freq.    1450.33  E(vib)   ...       0.00 
freq.    1467.48  E(vib)   ...       0.00 
freq.    1494.11  E(vib)   ...       0.00 
freq.    1523.65  E(vib)   ...       0.00 
freq.    1655.00  E(vib)   ...       0.00 
freq.    1675.90  E(vib)   ...       0.00 
freq.    3104.12  E(vib)   ...       0.00 
freq.    3112.57  E(vib)   ...       0.00 
freq.    3226.51  E(vib)   ...       0.00 
freq.    3232.72  E(vib)   ...       0.00 
freq.    3238.61  E(vib)   ...       0.00 
freq.    3250.02  E(vib)   ...       0.00 
freq.    3297.54  E(vib)   ...       0.00 

------------
INNER ENERGY
------------

The inner energy is: U= E(el) + E(ZPE) + E(vib) + E(rot) + E(trans)
    E(el)   - is the total energy from the electronic structure calculation
              = E(kin-el) + E(nuc-el) + E(el-el) + E(nuc-nuc)
    E(ZPE)  - the the zero temperature vibrational energy from the frequency calculation
    E(vib)  - the the finite temperature correction to E(ZPE) due to population
              of excited vibrational states
    E(rot)  - is the rotational thermal energy
    E(trans)- is the translational thermal energy

Summary of contributions to the inner energy U:
Electronic energy                ...  -1223.90634308 Eh
Zero point energy                ...      0.12271758 Eh      77.01 kcal/mol
Thermal vibrational correction   ...      0.00585862 Eh       3.68 kcal/mol
Thermal rotational correction    ...      0.00141627 Eh       0.89 kcal/mol
Thermal translational correction ...      0.00141627 Eh       0.89 kcal/mol
-----------------------------------------------------------------------
Total thermal energy                  -1223.77493434 Eh


Summary of corrections to the electronic energy:
(perhaps to be used in another calculation)
Total thermal correction                  0.00869117 Eh       5.45 kcal/mol
Non-thermal (ZPE) correction              0.12271758 Eh      77.01 kcal/mol
-----------------------------------------------------------------------
Total correction                          0.13140875 Eh      82.46 kcal/mol


--------
ENTHALPY
--------

The enthalpy is H = U + kB*T
                kB is Boltzmann's constant
Total free energy                 ...  -1223.77493434 Eh 
Thermal Enthalpy correction       ...      0.00094421 Eh       0.59 kcal/mol
-----------------------------------------------------------------------
Total Enthalpy                    ...  -1223.77399013 Eh


Note: Only C1 symmetry has been detected, increase convergence thresholds 
      if your molecule has a higher symmetry. Symmetry factor of 1.0 is   
      used for the rotational entropy correction. 
 

Note: Rotational entropy computed according to Herzberg 
Infrared and Raman Spectra, Chapter V,1, Van Nostrand Reinhold, 1945 
Point Group:  C1, Symmetry Number:   1  
Rotational constants in cm-1:     0.050528     0.036660     0.021422 

Vibrational entropy computed according to the QRRHO of S. Grimme
Chem.Eur.J. 2012 18 9955


-------
ENTROPY
-------

The entropy contributions are T*S = T*(S(el)+S(vib)+S(rot)+S(trans))
     S(el)   - electronic entropy
     S(vib)  - vibrational entropy
     S(rot)  - rotational entropy
     S(trans)- translational entropy
The entropies will be listed as multiplied by the temperature to get
units of energy

Electronic entropy                ...      0.00000000 Eh      0.00 kcal/mol
Vibrational entropy               ...      0.01009082 Eh      6.33 kcal/mol
Rotational entropy                ...      0.01429528 Eh      8.97 kcal/mol
Translational entropy             ...      0.01958930 Eh     12.29 kcal/mol
-----------------------------------------------------------------------
Final entropy term                ...      0.04397540 Eh     27.59 kcal/mol

In case the symmetry of your molecule has not been determined correctly
or in case you have a reason to use a different symmetry number we print 
out the resulting rotational entropy values for sn=1,12 :
 --------------------------------------------------------
|  sn= 1 | S(rot)=       0.01429528 Eh      8.97 kcal/mol|
|  sn= 2 | S(rot)=       0.01364082 Eh      8.56 kcal/mol|
|  sn= 3 | S(rot)=       0.01325799 Eh      8.32 kcal/mol|
|  sn= 4 | S(rot)=       0.01298636 Eh      8.15 kcal/mol|
|  sn= 5 | S(rot)=       0.01277568 Eh      8.02 kcal/mol|
|  sn= 6 | S(rot)=       0.01260353 Eh      7.91 kcal/mol|
|  sn= 7 | S(rot)=       0.01245798 Eh      7.82 kcal/mol|
|  sn= 8 | S(rot)=       0.01233191 Eh      7.74 kcal/mol|
|  sn= 9 | S(rot)=       0.01222070 Eh      7.67 kcal/mol|
|  sn=10 | S(rot)=       0.01212122 Eh      7.61 kcal/mol|
|  sn=11 | S(rot)=       0.01203123 Eh      7.55 kcal/mol|
|  sn=12 | S(rot)=       0.01194907 Eh      7.50 kcal/mol|
 --------------------------------------------------------


-------------------
GIBBS FREE ENERGY
-------------------

The Gibbs free energy is G = H - T*S

Total enthalpy                    ...  -1223.77399013 Eh 
Total entropy correction          ...     -0.04397540 Eh    -27.59 kcal/mol
-----------------------------------------------------------------------
Final Gibbs free energy         ...  -1223.81796552 Eh

For completeness - the Gibbs free energy minus the electronic energy
G-E(el)                           ...      0.08837756 Eh     55.46 kcal/mol


Timings for individual modules:

Sum of individual times         ...     1404.296 sec (=  23.405 min)
GTO integral calculation        ...        1.437 sec (=   0.024 min)   0.1 %
SCF iterations                  ...      693.918 sec (=  11.565 min)  49.4 %
SCF Gradient evaluation         ...      177.287 sec (=   2.955 min)  12.6 %
Geometry relaxation             ...        0.211 sec (=   0.004 min)   0.0 %
Analytical frequency calculation...      531.444 sec (=   8.857 min)  37.8 %
                             ****ORCA TERMINATED NORMALLY****
TOTAL RUN TIME: 0 days 0 hours 23 minutes 24 seconds 986 msec
