
                                 *****************
                                 * O   R   C   A *
                                 *****************

                                            #,                                       
                                            ###                                      
                                            ####                                     
                                            #####                                    
                                            ######                                   
                                           ########,                                 
                                     ,,################,,,,,                         
                               ,,#################################,,                 
                          ,,##########################################,,             
                       ,#########################################, ''#####,          
                    ,#############################################,,   '####,        
                  ,##################################################,,,,####,       
                ,###########''''           ''''###############################       
              ,#####''   ,,,,##########,,,,          '''####'''          '####       
            ,##' ,,,,###########################,,,                        '##       
           ' ,,###''''                  '''############,,,                           
         ,,##''                                '''############,,,,        ,,,,,,###''
      ,#''                                            '''#######################'''  
     '                                                          ''''####''''         
             ,#######,   #######,   ,#######,      ##                                
            ,#'     '#,  ##    ##  ,#'     '#,    #''#        ######   ,####,        
            ##       ##  ##   ,#'  ##            #'  '#       #        #'  '#        
            ##       ##  #######   ##           ,######,      #####,   #    #        
            '#,     ,#'  ##    ##  '#,     ,#' ,#      #,         ##   #,  ,#        
             '#######'   ##     ##  '#######'  #'      '#     #####' # '####'        



                  #######################################################
                  #                        -***-                        #
                  #          Department of theory and spectroscopy      #
                  #    Directorship and core code : Frank Neese         #
                  #        Max Planck Institute fuer Kohlenforschung    #
                  #                Kaiser Wilhelm Platz 1               #
                  #                 D-45470 Muelheim/Ruhr               #
                  #                      Germany                        #
                  #                                                     #
                  #                  All rights reserved                #
                  #                        -***-                        #
                  #######################################################


                         Program Version 5.0.4 -  RELEASE  -


 With contributions from (in alphabetic order):
   Daniel Aravena         : Magnetic Suceptibility
   Michael Atanasov       : Ab Initio Ligand Field Theory (pilot matlab implementation)
   Alexander A. Auer      : GIAO ZORA, VPT2 properties, NMR spectrum
   Ute Becker             : Parallelization
   Giovanni Bistoni       : ED, misc. LED, open-shell LED, HFLD
   Martin Brehm           : Molecular dynamics
   Dmytro Bykov           : SCF Hessian
   Vijay G. Chilkuri      : MRCI spin determinant printing, contributions to CSF-ICE
   Dipayan Datta          : RHF DLPNO-CCSD density
   Achintya Kumar Dutta   : EOM-CC, STEOM-CC
   Dmitry Ganyushin       : Spin-Orbit,Spin-Spin,Magnetic field MRCI
   Miquel Garcia          : C-PCM and meta-GGA Hessian, CC/C-PCM, Gaussian charge scheme
   Yang Guo               : DLPNO-NEVPT2, F12-NEVPT2, CIM, IAO-localization
   Andreas Hansen         : Spin unrestricted coupled pair/coupled cluster methods
   Benjamin Helmich-Paris : MC-RPA, TRAH-SCF, COSX integrals
   Lee Huntington         : MR-EOM, pCC
   Robert Izsak           : Overlap fitted RIJCOSX, COSX-SCS-MP3, EOM
   Marcus Kettner         : VPT2
   Christian Kollmar      : KDIIS, OOCD, Brueckner-CCSD(T), CCSD density, CASPT2, CASPT2-K
   Simone Kossmann        : Meta GGA functionals, TD-DFT gradient, OOMP2, MP2 Hessian
   Martin Krupicka        : Initial AUTO-CI
   Lucas Lang             : DCDCAS
   Marvin Lechner         : AUTO-CI (C++ implementation), FIC-MRCC
   Dagmar Lenk            : GEPOL surface, SMD
   Dimitrios Liakos       : Extrapolation schemes; Compound Job, initial MDCI parallelization
   Dimitrios Manganas     : Further ROCIS development; embedding schemes
   Dimitrios Pantazis     : SARC Basis sets
   Anastasios Papadopoulos: AUTO-CI, single reference methods and gradients
   Taras Petrenko         : DFT Hessian,TD-DFT gradient, ASA, ECA, R-Raman, ABS, FL, XAS/XES, NRVS
   Peter Pinski           : DLPNO-MP2, DLPNO-MP2 Gradient
   Christoph Reimann      : Effective Core Potentials
   Marius Retegan         : Local ZFS, SOC
   Christoph Riplinger    : Optimizer, TS searches, QM/MM, DLPNO-CCSD(T), (RO)-DLPNO pert. Triples
   Tobias Risthaus        : Range-separated hybrids, TD-DFT gradient, RPA, STAB
   Michael Roemelt        : Original ROCIS implementation
   Masaaki Saitow         : Open-shell DLPNO-CCSD energy and density
   Barbara Sandhoefer     : DKH picture change effects
   Avijit Sen             : IP-ROCIS
   Kantharuban Sivalingam : CASSCF convergence, NEVPT2, FIC-MRCI
   Bernardo de Souza      : ESD, SOC TD-DFT
   Georgi Stoychev        : AutoAux, RI-MP2 NMR, DLPNO-MP2 response
   Willem Van den Heuvel  : Paramagnetic NMR
   Boris Wezisla          : Elementary symmetry handling
   Frank Wennmohs         : Technical directorship


 We gratefully acknowledge several colleagues who have allowed us to
 interface, adapt or use parts of their codes:
   Stefan Grimme, W. Hujo, H. Kruse, P. Pracht,  : VdW corrections, initial TS optimization,
                  C. Bannwarth, S. Ehlert          DFT functionals, gCP, sTDA/sTD-DF
   Ed Valeev, F. Pavosevic, A. Kumar             : LibInt (2-el integral package), F12 methods
   Garnet Chan, S. Sharma, J. Yang, R. Olivares  : DMRG
   Ulf Ekstrom                                   : XCFun DFT Library
   Mihaly Kallay                                 : mrcc  (arbitrary order and MRCC methods)
   Jiri Pittner, Ondrej Demel                    : Mk-CCSD
   Frank Weinhold                                : gennbo (NPA and NBO analysis)
   Christopher J. Cramer and Donald G. Truhlar   : smd solvation model
   Lars Goerigk                                  : TD-DFT with DH, B97 family of functionals
   V. Asgeirsson, H. Jonsson                     : NEB implementation
   FAccTs GmbH                                   : IRC, NEB, NEB-TS, DLPNO-Multilevel, CI-OPT
                                                   MM, QMMM, 2- and 3-layer-ONIOM, Crystal-QMMM,
                                                   LR-CPCM, SF, NACMEs, symmetry and pop. for TD-DFT,
                                                   nearIR, NL-DFT gradient (VV10), updates on ESD,
                                                   ML-optimized integration grids
   S Lehtola, MJT Oliveira, MAL Marques          : LibXC Library
   Liviu Ungur et al                             : ANISO software


 Your calculation uses the libint2 library for the computation of 2-el integrals
 For citations please refer to: http://libint.valeyev.net

 Your ORCA version has been built with support for libXC version: 5.1.0
 For citations please refer to: https://tddft.org/programs/libxc/

 This ORCA versions uses:
   CBLAS   interface :  Fast vector & matrix operations
   LAPACKE interface :  Fast linear algebra routines
   SCALAPACK package :  Parallel linear algebra routines
   Shared memory     :  Shared parallel matrices
   BLAS/LAPACK       :  OpenBLAS 0.3.15  USE64BITINT DYNAMIC_ARCH NO_AFFINITY SkylakeX SINGLE_THREADED
        Core in use  :  SkylakeX
   Copyright (c) 2011-2014, The OpenBLAS Project




***************************************
The coordinates will be read from file: 4_deprot_aq_6.xyz
***************************************


Your calculation utilizes the atom-pairwise dispersion correction
based on tight binding partial charges (D4)
Cite in your paper:
E.Caldeweyher, C.Bannwarth, S.Grimme, J.Chem.Phys., (2017), 147, 034112.
E.Caldeweyher, S.Ehlert, A.Hansen, H.Neugebauer, S.Grimme, J.Chem.Phys., (2018), in progress.
   

XCFun DFT library Copyright 2009-2010 Ulf Ekstrom and contributors.
See http://admol.org/xcfun for more information.
This is free software; see the source code for copying conditions.
There is ABSOLUTELY NO WARRANTY; not even for MERCHANTABILITY or FITNESS FOR A PARTICULAR PURPOSE.
For details see the documentation.
Scientific users of this library should cite U. Ekstrom, L. Visscher, R. Bast, A. J. Thorvaldsen and K. Ruud;
J.Chem.Theor.Comp. 2010, DOI: 10.1021/ct100117s
XCFun Version 0.99 

================================================================================

----- Orbital basis set information -----
Your calculation utilizes the basis: def2-SVP
   F. Weigend and R. Ahlrichs, Phys. Chem. Chem. Phys. 7, 3297 (2005).

----- AuxJ basis set information -----
Your calculation utilizes the auxiliary basis: def2/J
   F. Weigend, Phys. Chem. Chem. Phys. 8, 1057 (2006).

================================================================================
                                        WARNINGS
                       Please study these warnings very carefully!
================================================================================


WARNING: Geometry Optimization
  ===> : Switching off AutoStart
         For restart on a previous wavefunction, please use MOREAD

INFO   : the flag for use of the SHARK integral package has been found!

================================================================================
                                       INPUT FILE
================================================================================
NAME = 4_deprot_aq_6.inp
|  1> # ORCA 5.0.4 - /users/bwb16179/postgrad/2024_03/DFT_Crest_Conformers/Opt/deprot/4_deprot_aq_6.inp # write input file
|  2> # Basic Mode
|  3> #
|  4> ! Opt Freq wB97X Def2-SVP D4 SlowConv TightSCF Defgrid2 Def2/J RIJCOSX CPCM(Water)
|  5> 
|  6> 
|  7> 
|  8> %maxcore 4500
|  9> 
| 10> %geom
| 11> Maxiter 150
| 12> END
| 13> 
| 14> * xyzfile 0 1 4_deprot_aq_6.xyz
| 15> 
| 16>                          ****END OF INPUT****
================================================================================

                       *****************************
                       * Geometry Optimization Run *
                       *****************************

Geometry optimization settings:
Update method            Update   .... BFGS
Choice of coordinates    CoordSys .... Z-matrix Internals
Initial Hessian          InHess   .... Almoef's Model

Convergence Tolerances:
Energy Change            TolE     ....  5.0000e-06 Eh
Max. Gradient            TolMAXG  ....  3.0000e-04 Eh/bohr
RMS Gradient             TolRMSG  ....  1.0000e-04 Eh/bohr
Max. Displacement        TolMAXD  ....  4.0000e-03 bohr
RMS Displacement         TolRMSD  ....  2.0000e-03 bohr
Strict Convergence                ....  False
------------------------------------------------------------------------------
                        ORCA OPTIMIZATION COORDINATE SETUP
------------------------------------------------------------------------------

The optimization will be done in new redundant internal coordinates
Making redundant internal coordinates   ...  (new redundants) done
Evaluating the initial hessian          ...  (Almloef) done
Evaluating the coordinates              ...  done
Calculating the B-matrix                .... done
Calculating the G-matrix                .... done
Diagonalizing the G-matrix              .... done
Small eigenvalue found = 1.245e-02
Small eigenvalue found = 2.172e-02
The first mode is                       ....   65
The number of degrees of freedom        ....   75

    -----------------------------------------------------------------
                    Redundant Internal Coordinates


    -----------------------------------------------------------------
         Definition                    Initial Value    Approx d2E/dq
    -----------------------------------------------------------------
      1. B(C   1,N   0)                  1.3578         0.629904   
      2. B(N   2,C   1)                  1.3578         0.629944   
      3. B(C   3,N   2)                  1.3722         0.597425   
      4. B(C   4,C   3)                  1.3521         0.718066   
      5. B(C   4,N   0)                  1.3722         0.597471   
      6. B(C   5,N   0)                  1.4443         0.458414   
      7. B(C   6,N   2)                  1.4443         0.458408   
      8. B(C   7,C   5)                  1.5262         0.378830   
      9. B(H   8,C   5)                  1.0983         0.349275   
     10. B(C   9,C   5)                  1.5302         0.373293   
     11. B(H  10,C   6)                  1.0983         0.349257   
     12. B(C  11,C   6)                  1.5302         0.373261   
     13. B(C  12,C   6)                  1.5262         0.378874   
     14. B(H  13,C   3)                  1.0717         0.385090   
     15. B(H  14,C   4)                  1.0717         0.385088   
     16. B(H  15,C   9)                  1.0883         0.362383   
     17. B(H  16,C   9)                  1.0870         0.364032   
     18. B(H  17,C   9)                  1.0868         0.364342   
     19. B(H  18,C   7)                  1.0874         0.363567   
     20. B(H  19,C   7)                  1.0867         0.364504   
     21. B(H  20,C   7)                  1.0861         0.365338   
     22. B(H  21,C  12)                  1.0861         0.365351   
     23. B(H  22,C  12)                  1.0874         0.363580   
     24. B(H  23,C  12)                  1.0867         0.364503   
     25. B(H  24,C  11)                  1.0868         0.364340   
     26. B(H  25,C  11)                  1.0883         0.362378   
     27. B(H  26,C  11)                  1.0871         0.364023   
     28. A(C   1,N   0,C   5)          123.6947         0.407129   
     29. A(C   4,N   0,C   5)          124.3596         0.403345   
     30. A(C   1,N   0,C   4)          111.8736         0.426788   
     31. A(N   0,C   1,N   2)          103.3224         0.430859   
     32. A(C   1,N   2,C   6)          123.7093         0.407132   
     33. A(C   1,N   2,C   3)          111.8729         0.426787   
     34. A(C   3,N   2,C   6)          124.3446         0.403339   
     35. A(N   2,C   3,C   4)          106.4644         0.439834   
     36. A(C   4,C   3,H  13)          130.7982         0.366002   
     37. A(N   2,C   3,H  13)          122.7370         0.352521   
     38. A(N   0,C   4,H  14)          122.7375         0.352525   
     39. A(C   3,C   4,H  14)          130.7980         0.366002   
     40. A(N   0,C   4,C   3)          106.4642         0.439840   
     41. A(H   8,C   5,C   9)          109.1374         0.322659   
     42. A(C   7,C   5,C   9)          110.9529         0.364173   
     43. A(N   0,C   5,C   9)          109.6982         0.373945   
     44. A(C   7,C   5,H   8)          109.5305         0.323439   
     45. A(N   0,C   5,H   8)          107.5484         0.331764   
     46. A(N   0,C   5,C   7)          109.9039         0.374897   
     47. A(H  10,C   6,C  11)          109.1318         0.322652   
     48. A(N   2,C   6,C  11)          109.6992         0.373939   
     49. A(C  11,C   6,C  12)          110.9540         0.364175   
     50. A(H  10,C   6,C  12)          109.5293         0.323442   
     51. A(N   2,C   6,C  12)          109.9085         0.374903   
     52. A(N   2,C   6,H  10)          107.5481         0.331761   
     53. A(H  19,C   7,H  20)          109.5594         0.292058   
     54. A(H  18,C   7,H  20)          108.4828         0.291940   
     55. A(C   5,C   7,H  20)          109.1444         0.325837   
     56. A(H  18,C   7,H  19)          108.9161         0.291835   
     57. A(C   5,C   7,H  19)          110.3258         0.325714   
     58. A(C   5,C   7,H  18)          110.3826         0.325577   
     59. A(H  16,C   9,H  17)          109.1752         0.291873   
     60. A(H  15,C   9,H  17)          108.7380         0.291665   
     61. A(C   5,C   9,H  17)          110.4450         0.324903   
     62. A(H  15,C   9,H  16)          108.6450         0.291626   
     63. A(C   5,C   9,H  16)          109.3569         0.324858   
     64. A(C   5,C   9,H  15)          110.4451         0.324615   
     65. A(H  25,C  11,H  26)          108.6449         0.291624   
     66. A(H  24,C  11,H  26)          109.1716         0.291872   
     67. A(H  24,C  11,H  25)          108.7372         0.291664   
     68. A(C   6,C  11,H  25)          110.4457         0.324610   
     69. A(C   6,C  11,H  24)          110.4440         0.324898   
     70. A(C   6,C  11,H  26)          109.3618         0.324852   
     71. A(H  22,C  12,H  23)          108.9182         0.291836   
     72. A(H  21,C  12,H  23)          109.5616         0.292060   
     73. A(C   6,C  12,H  23)          110.3238         0.325720   
     74. A(H  21,C  12,H  22)          108.4792         0.291943   
     75. A(C   6,C  12,H  22)          110.3809         0.325585   
     76. A(C   6,C  12,H  21)          109.1473         0.325845   
     77. D(N   2,C   1,N   0,C   4)     -0.1620         0.029179   
     78. D(N   2,C   1,N   0,C   5)   -177.1893         0.029179   
     79. D(C   3,N   2,C   1,N   0)     -0.1703         0.029183   
     80. D(C   6,N   2,C   1,N   0)   -177.1749         0.029183   
     81. D(H  13,C   3,N   2,C   6)     -2.7898         0.028742   
     82. D(C   4,C   3,N   2,C   1)      0.4365         0.028742   
     83. D(H  13,C   3,N   2,C   1)   -179.7718         0.028742   
     84. D(C   4,C   3,N   2,C   6)    177.4186         0.028742   
     85. D(H  14,C   4,C   3,N   2)    179.7189         0.036476   
     86. D(H  14,C   4,N   0,C   5)     -2.7679         0.028747   
     87. D(N   0,C   4,C   3,N   2)     -0.5066         0.036476   
     88. D(N   0,C   4,C   3,H  13)    179.7250         0.036476   
     89. D(C   3,C   4,N   0,C   5)    177.4350         0.028747   
     90. D(C   3,C   4,N   0,C   1)      0.4311         0.028747   
     91. D(H  14,C   4,C   3,H  13)     -0.0496         0.036476   
     92. D(H  14,C   4,N   0,C   1)   -179.7718         0.028747   
     93. D(H   8,C   5,N   0,C   4)     18.2654         0.017936   
     94. D(C   9,C   5,N   0,C   4)   -100.3169         0.017936   
     95. D(H   8,C   5,N   0,C   1)   -165.0768         0.017936   
     96. D(C   9,C   5,N   0,C   1)     76.3408         0.017936   
     97. D(C   7,C   5,N   0,C   4)    137.4351         0.017936   
     98. D(C   7,C   5,N   0,C   1)    -45.9071         0.017936   
     99. D(C  12,C   6,N   2,C   3)    137.7138         0.017936   
    100. D(C  11,C   6,N   2,C   3)   -100.0331         0.017936   
    101. D(C  11,C   6,N   2,C   1)     76.5998         0.017936   
    102. D(C  12,C   6,N   2,C   1)    -45.6534         0.017936   
    103. D(H  10,C   6,N   2,C   3)     18.5430         0.017936   
    104. D(H  10,C   6,N   2,C   1)   -164.8241         0.017936   
    105. D(H  18,C   7,C   5,H   8)     57.8947         0.011442   
    106. D(H  18,C   7,C   5,N   0)    -60.0536         0.011442   
    107. D(H  18,C   7,C   5,C   9)    178.4459         0.011442   
    108. D(H  20,C   7,C   5,C   9)    -62.4120         0.011442   
    109. D(H  20,C   7,C   5,H   8)    177.0368         0.011442   
    110. D(H  20,C   7,C   5,N   0)     59.0885         0.011442   
    111. D(H  19,C   7,C   5,C   9)     58.0195         0.011442   
    112. D(H  19,C   7,C   5,H   8)    -62.5317         0.011442   
    113. D(H  19,C   7,C   5,N   0)    179.5200         0.011442   
    114. D(H  17,C   9,C   5,H   8)     61.1844         0.011128   
    115. D(H  17,C   9,C   5,C   7)    -59.5993         0.011128   
    116. D(H  17,C   9,C   5,N   0)    178.7796         0.011128   
    117. D(H  16,C   9,C   5,H   8)   -178.6496         0.011128   
    118. D(H  16,C   9,C   5,C   7)     60.5667         0.011128   
    119. D(H  16,C   9,C   5,N   0)    -61.0544         0.011128   
    120. D(H  15,C   9,C   5,H   8)    -59.1376         0.011128   
    121. D(H  15,C   9,C   5,C   7)   -179.9214         0.011128   
    122. D(H  15,C   9,C   5,N   0)     58.4575         0.011128   
    123. D(H  26,C  11,C   6,H  10)   -178.6703         0.011126   
    124. D(H  26,C  11,C   6,N   2)    -61.0781         0.011126   
    125. D(H  25,C  11,C   6,C  12)   -179.9344         0.011126   
    126. D(H  25,C  11,C   6,H  10)    -59.1550         0.011126   
    127. D(H  25,C  11,C   6,N   2)     58.4372         0.011126   
    128. D(H  24,C  11,C   6,C  12)    -59.6137         0.011126   
    129. D(H  24,C  11,C   6,H  10)     61.1657         0.011126   
    130. D(H  26,C  11,C   6,C  12)     60.5503         0.011126   
    131. D(H  24,C  11,C   6,N   2)    178.7579         0.011126   
    132. D(H  23,C  12,C   6,N   2)    179.5330         0.011444   
    133. D(H  22,C  12,C   6,C  11)    178.4540         0.011444   
    134. D(H  22,C  12,C   6,H  10)     57.9099         0.011444   
    135. D(H  22,C  12,C   6,N   2)    -60.0402         0.011444   
    136. D(H  21,C  12,C   6,C  11)    -62.4075         0.011444   
    137. D(H  21,C  12,C   6,H  10)    177.0483         0.011444   
    138. D(H  23,C  12,C   6,H  10)    -62.5169         0.011444   
    139. D(H  21,C  12,C   6,N   2)     59.0982         0.011444   
    140. D(H  23,C  12,C   6,C  11)     58.0273         0.011444   
    -----------------------------------------------------------------

Number of atoms                         .... 27
Number of degrees of freedom            .... 140

         *************************************************************
         *                GEOMETRY OPTIMIZATION CYCLE   1            *
         *************************************************************
---------------------------------
CARTESIAN COORDINATES (ANGSTROEM)
---------------------------------
  N     -1.062965    0.074169    0.396227
  C     -0.000135   -0.008071   -0.444728
  N      1.062607   -0.062473    0.398570
  C      0.674654   -0.011997    1.713812
  C     -0.675140    0.067374    1.712436
  C     -2.436863    0.096108   -0.048631
  C      2.436671   -0.098810   -0.044842
  C     -2.590274    1.069934   -1.213709
  H     -3.052955    0.433670    0.795622
  C     -2.870439   -1.314379   -0.453683
  H      3.051993   -0.412777    0.809041
  C      2.872216    1.299006   -0.489826
  C      2.589508   -1.105752   -1.181455
  H      1.373697   -0.039331    2.525729
  H     -1.374257    0.121552    2.522942
  H     -2.759061   -2.001306    0.383025
  H     -2.246881   -1.661466   -1.273665
  H     -3.910055   -1.315690   -0.770473
  H     -2.305802    2.073964   -0.908063
  H     -3.620358    1.085521   -1.559513
  H     -1.938885    0.759593   -2.025452
  H      1.939030   -0.817979   -2.002180
  H      2.303483   -2.100227   -0.847375
  H      3.619799   -1.132568   -1.525954
  H      3.912083    1.290021   -0.805672
  H      2.761012    2.009778    0.326751
  H      2.249771    1.623216   -1.319964

----------------------------
CARTESIAN COORDINATES (A.U.)
----------------------------
  NO LB      ZA    FRAG     MASS         X           Y           Z
   0 N     7.0000    0    14.007   -2.008713    0.140159    0.748761
   1 C     6.0000    0    12.011   -0.000254   -0.015252   -0.840414
   2 N     7.0000    0    14.007    2.008035   -0.118056    0.753188
   3 C     6.0000    0    12.011    1.274911   -0.022672    3.238636
   4 C     6.0000    0    12.011   -1.275829    0.127318    3.236035
   5 C     6.0000    0    12.011   -4.605004    0.181617   -0.091900
   6 C     6.0000    0    12.011    4.604640   -0.186723   -0.084738
   7 C     6.0000    0    12.011   -4.894908    2.021882   -2.293577
   8 H     1.0000    0     1.008   -5.769249    0.819518    1.503508
   9 C     6.0000    0    12.011   -5.424343   -2.483817   -0.857336
  10 H     1.0000    0     1.008    5.767431   -0.780035    1.528865
  11 C     6.0000    0    12.011    5.427702    2.454766   -0.925638
  12 C     6.0000    0    12.011    4.893460   -2.089569   -2.232626
  13 H     1.0000    0     1.008    2.595912   -0.074325    4.772937
  14 H     1.0000    0     1.008   -2.596970    0.229700    4.767670
  15 H     1.0000    0     1.008   -5.213870   -3.781921    0.723812
  16 H     1.0000    0     1.008   -4.245990   -3.139715   -2.406878
  17 H     1.0000    0     1.008   -7.388934   -2.486293   -1.455982
  18 H     1.0000    0     1.008   -4.357334    3.919225   -1.715991
  19 H     1.0000    0     1.008   -6.841485    2.051338   -2.947052
  20 H     1.0000    0     1.008   -3.663961    1.435423   -3.827549
  21 H     1.0000    0     1.008    3.664236   -1.545757   -3.783573
  22 H     1.0000    0     1.008    4.352951   -3.968855   -1.601307
  23 H     1.0000    0     1.008    6.840429   -2.140242   -2.883635
  24 H     1.0000    0     1.008    7.392766    2.437786   -1.522500
  25 H     1.0000    0     1.008    5.217557    3.797930    0.617469
  26 H     1.0000    0     1.008    4.251451    3.067434   -2.494371

--------------------------------
INTERNAL COORDINATES (ANGSTROEM)
--------------------------------
 N      0   0   0     0.000000000000     0.00000000     0.00000000
 C      1   0   0     1.357783944839     0.00000000     0.00000000
 N      2   1   0     1.357766384220   103.32244966     0.00000000
 C      3   2   1     1.372194387217   111.87285926   359.82968545
 C      4   3   2     1.352125878328   106.46443447     0.43650604
 C      1   2   3     1.444291111896   123.69471610   182.81073295
 C      3   2   1     1.444294477454   123.70931504   182.82508434
 C      6   1   2     1.526197166659   109.90387784   314.09285554
 H      6   1   2     1.098308290894   107.54837071   194.92321466
 C      6   1   2     1.530205417840   109.69815925    76.34083869
 H      7   3   2     1.098322291508   107.54810590   195.17587227
 C      7   3   2     1.530228941333   109.69921003    76.59976826
 C      7   3   2     1.526165745773   109.90854727   314.34662299
 H      4   3   2     1.071735949237   122.73696978   180.22815215
 H      5   4   3     1.071737474644   130.79797792   179.71891121
 H     10   6   1     1.088279613037   110.44506725    58.45753651
 H     10   6   1     1.087043586366   109.35690571   298.94557450
 H     10   6   1     1.086812273882   110.44504197   178.77958267
 H      8   6   1     1.087391832311   110.38260519   299.94638053
 H      8   6   1     1.086690895561   110.32575338   179.51997562
 H      8   6   1     1.086068773446   109.14441820    59.08853090
 H     13   7   3     1.086059376163   109.14734496    59.09822907
 H     13   7   3     1.087382366293   110.38087532   299.95977129
 H     13   7   3     1.086691873152   110.32384674   179.53303688
 H     12   7   3     1.086813204855   110.44395397   178.75789439
 H     12   7   3     1.088283606474   110.44567981    58.43718515
 H     12   7   3     1.087050394493   109.36178335   298.92191587

---------------------------
INTERNAL COORDINATES (A.U.)
---------------------------
 N      0   0   0     0.000000000000     0.00000000     0.00000000
 C      1   0   0     2.565839804781     0.00000000     0.00000000
 N      2   1   0     2.565806620021   103.32244966     0.00000000
 C      3   2   1     2.593071594343   111.87285926   359.82968545
 C      4   3   2     2.555147608627   106.46443447     0.43650604
 C      1   2   3     2.729314659140   123.69471610   182.81073295
 C      3   2   1     2.729321019124   123.70931504   182.82508434
 C      6   1   2     2.884094671353   109.90387784   314.09285554
 H      6   1   2     2.075501880404   107.54837071   194.92321466
 C      6   1   2     2.891669168360   109.69815925    76.34083869
 H      7   3   2     2.075528337730   107.54810590   195.17587227
 C      7   3   2     2.891713621320   109.69921003    76.59976826
 C      7   3   2     2.884035294483   109.90854727   314.34662299
 H      4   3   2     2.025287431937   122.73696978   180.22815215
 H      5   4   3     2.025290314538   130.79797792   179.71891121
 H     10   6   1     2.056550425770   110.44506725    58.45753651
 H     10   6   1     2.054214673866   109.35690571   298.94557450
 H     10   6   1     2.053777556620   110.44504197   178.77958267
 H      8   6   1     2.054872763331   110.38260519   299.94638053
 H      8   6   1     2.053548184836   110.32575338   179.51997562
 H      8   6   1     2.052372544417   109.14441820    59.08853090
 H     13   7   3     2.052354786125   109.14734496    59.09822907
 H     13   7   3     2.054854875150   110.38087532   299.95977129
 H     13   7   3     2.053550032216   110.32384674   179.53303688
 H     12   7   3     2.053779315905   110.44395397   178.75789439
 H     12   7   3     2.056557972271   110.44567981    58.43718515
 H     12   7   3     2.054227539363   109.36178335   298.92191587

---------------------
BASIS SET INFORMATION
---------------------
There are 3 groups of distinct atoms

 Group   1 Type N   : 7s4p1d contracted to 3s2p1d pattern {511/31/1}
 Group   2 Type C   : 7s4p1d contracted to 3s2p1d pattern {511/31/1}
 Group   3 Type H   : 4s1p contracted to 2s1p pattern {31/1}

Atom   0N    basis set group =>   1
Atom   1C    basis set group =>   2
Atom   2N    basis set group =>   1
Atom   3C    basis set group =>   2
Atom   4C    basis set group =>   2
Atom   5C    basis set group =>   2
Atom   6C    basis set group =>   2
Atom   7C    basis set group =>   2
Atom   8H    basis set group =>   3
Atom   9C    basis set group =>   2
Atom  10H    basis set group =>   3
Atom  11C    basis set group =>   2
Atom  12C    basis set group =>   2
Atom  13H    basis set group =>   3
Atom  14H    basis set group =>   3
Atom  15H    basis set group =>   3
Atom  16H    basis set group =>   3
Atom  17H    basis set group =>   3
Atom  18H    basis set group =>   3
Atom  19H    basis set group =>   3
Atom  20H    basis set group =>   3
Atom  21H    basis set group =>   3
Atom  22H    basis set group =>   3
Atom  23H    basis set group =>   3
Atom  24H    basis set group =>   3
Atom  25H    basis set group =>   3
Atom  26H    basis set group =>   3
---------------------------------
AUXILIARY/J BASIS SET INFORMATION
---------------------------------
There are 3 groups of distinct atoms

 Group   1 Type N   : 12s5p4d2f1g contracted to 6s4p3d1f1g pattern {711111/2111/211/2/1}
 Group   2 Type C   : 12s5p4d2f1g contracted to 6s4p3d1f1g pattern {711111/2111/211/2/1}
 Group   3 Type H   : 5s2p1d contracted to 3s1p1d pattern {311/2/1}

Atom   0N    basis set group =>   1
Atom   1C    basis set group =>   2
Atom   2N    basis set group =>   1
Atom   3C    basis set group =>   2
Atom   4C    basis set group =>   2
Atom   5C    basis set group =>   2
Atom   6C    basis set group =>   2
Atom   7C    basis set group =>   2
Atom   8H    basis set group =>   3
Atom   9C    basis set group =>   2
Atom  10H    basis set group =>   3
Atom  11C    basis set group =>   2
Atom  12C    basis set group =>   2
Atom  13H    basis set group =>   3
Atom  14H    basis set group =>   3
Atom  15H    basis set group =>   3
Atom  16H    basis set group =>   3
Atom  17H    basis set group =>   3
Atom  18H    basis set group =>   3
Atom  19H    basis set group =>   3
Atom  20H    basis set group =>   3
Atom  21H    basis set group =>   3
Atom  22H    basis set group =>   3
Atom  23H    basis set group =>   3
Atom  24H    basis set group =>   3
Atom  25H    basis set group =>   3
Atom  26H    basis set group =>   3
------------------------------------------------------------------------------
                           ORCA GTO INTEGRAL CALCULATION
                           -- RI-GTO INTEGRALS CHOSEN --
------------------------------------------------------------------------------
------------------------------------------------------------------------------
                   ___                                                        
                  /   \      - P O W E R E D   B Y -                         
                 /     \                                                     
                 |  |  |   _    _      __       _____    __    __             
                 |  |  |  | |  | |    /  \     |  _  \  |  |  /  |          
                  \  \/   | |  | |   /    \    | | | |  |  | /  /          
                 / \  \   | |__| |  /  /\  \   | |_| |  |  |/  /          
                |  |  |   |  __  | /  /__\  \  |    /   |      \           
                |  |  |   | |  | | |   __   |  |    \   |  |\   \          
                \     /   | |  | | |  |  |  |  | |\  \  |  | \   \       
                 \___/    |_|  |_| |__|  |__|  |_| \__\ |__|  \__/        
                                                                              
                      - O R C A' S   B I G   F R I E N D -                    
                                      &                                       
                       - I N T E G R A L  F E E D E R -                       
                                                                              
 v1 FN, 2020, v2 2021                                                         
------------------------------------------------------------------------------


Reading SHARK input file 4_deprot_aq_6.SHARKINP.tmp ... ok
----------------------
SHARK INTEGRAL PACKAGE
----------------------

Number of atoms                             ...     27
Number of basis functions                   ...    234
Number of shells                            ...    114
Maximum angular momentum                    ...      2
Integral batch strategy                     ... SHARK/LIBINT Hybrid
RI-J (if used) integral strategy            ... SPLIT-RIJ (Revised 2003 algorithm where possible)
Printlevel                                  ...      1
Contraction scheme used                     ... SEGMENTED contraction
Coulomb Range Separation                    ... NOT USED
Exchange Range Separation                   ... Long Range
   Mu parameter                             ...  0.300000
   Scaling (regular/separated)              ...  0.157706  0.842294
Finite Nucleus Model                        ... NOT USED
Auxiliary Coulomb fitting basis             ... AVAILABLE
   # of basis functions in Aux-J            ...    715
   # of shells in Aux-J                     ...    245
   Maximum angular momentum in Aux-J        ...      4
Auxiliary J/K fitting basis                 ... NOT available
Auxiliary Correlation fitting basis         ... NOT available
Auxiliary 'external' fitting basis          ... NOT available
Integral threshold                          ...     2.500000e-11
Primitive cut-off                           ...     2.500000e-12
Primitive pair pre-selection threshold      ...     2.500000e-12

Calculating pre-screening integrals         ... done (  0.1 sec) Dimension = 114
Organizing shell pair data                  ... done (  0.0 sec)
Shell pair information
Total number of shell pairs                 ...      6555
Shell pairs after pre-screening             ...      5772
Total number of primitive shell pairs       ...     22769
Primitive shell pairs kept                  ...     14171
          la=0 lb=0:   1941 shell pairs
          la=1 lb=0:   2164 shell pairs
          la=1 lb=1:    635 shell pairs
          la=2 lb=0:    627 shell pairs
          la=2 lb=1:    348 shell pairs
          la=2 lb=2:     57 shell pairs

Calculating one electron integrals          ... done (  0.0 sec)
Calculating RI/J V-Matrix + Cholesky decomp.... done (  0.0 sec)
Calculating Nuclear repulsion               ... done (  0.0 sec) ENN=    640.837620933635 Eh

SHARK setup successfully completed in   0.3 seconds

Maximum memory used throughout the entire GTOINT-calculation: 35.7 MB
-------------------------------------------------------------------------------
                                 ORCA SCF
-------------------------------------------------------------------------------

------------
SCF SETTINGS
------------
Hamiltonian:
 Density Functional     Method          .... DFT(GTOs)
 Exchange Functional    Exchange        .... WB97X
 Correlation Functional Correlation     .... WB97X
 Gradients option       PostSCFGGA      .... off
 Hybrid DFT is turned on
   Fraction HF Exchange ScalHFX         ....  0.157706
   Scaling of DF-GGA-X  ScalDFX         ....  0.000000
   Scaling of DF-GGA-C  ScalDFC         ....  1.000000
   Scaling of DF-LDA-C  ScalLDAC        ....  1.000000
   Perturbative correction              ....  0.000000
   Density functional embedding theory  .... OFF
 Long-range corrected/Screened/Range-Separated Hybrid DFT is turned on
   Amount of maximum screened exact exchange              ....  0.842294
   Range separation parameter mu (erf(mu*r12)/r12)        ....  0.300000
 RI-approximation to the Coulomb term is turned on
   Number of AuxJ basis functions       .... 715
   RIJ-COSX (HFX calculated with COS-X)).... on


General Settings:
 Integral files         IntName         .... 4_deprot_aq_6
 Hartree-Fock type      HFTyp           .... RHF
 Total Charge           Charge          ....    0
 Multiplicity           Mult            ....    1
 Number of Electrons    NEL             ....   84
 Basis Dimension        Dim             ....  234
 Nuclear Repulsion      ENuc            ....    640.8376209336 Eh

Convergence Acceleration:
 DIIS                   CNVDIIS         .... on
   Start iteration      DIISMaxIt       ....     0
   Startup error        DIISStart       ....  0.200000
   # of expansion vecs  DIISMaxEq       ....     5
   Bias factor          DIISBfac        ....   1.050
   Max. coefficient     DIISMaxC        ....  10.000
 Trust-Rad. Augm. Hess. CNVTRAH         .... auto
   Auto Start mean grad. ratio tolernc. ....  1.125000
   Auto Start start iteration           ....    20
   Auto Start num. interpolation iter.  ....    10
   Max. Number of Micro iterations      ....    16
   Max. Number of Macro iterations      .... Maxiter - #DIIS iter
   Number of Davidson start vectors     ....     2
   Converg. threshold I  (grad. norm)   ....   1.000e-05
   Converg. threshold II (energy diff.) ....   1.000e-08
   Grad. Scal. Fac. for Micro threshold ....   0.100
   Minimum threshold for Micro iter.    ....   0.010
   NR start threshold (gradient norm)   ....   0.001
   Initial trust radius                 ....   0.400
   Minimum AH scaling param. (alpha)    ....   1.000
   Maximum AH scaling param. (alpha)    .... 1000.000
   Orbital update algorithm             .... Taylor
   White noise on init. David. guess    .... on
   Maximum white noise                  ....   0.010
   Quad. conv. algorithm                .... NR
 SOSCF                  CNVSOSCF        .... on
   Start iteration      SOSCFMaxIt      ....   150
   Startup grad/error   SOSCFStart      ....  0.001000
 Level Shifting         CNVShift        .... on
   Level shift para.    LevelShift      ....    0.2500
   Turn off err/grad.   ShiftErr        ....    0.0000
 Zerner damping         CNVZerner       .... off
 Static damping         CNVDamp         .... on
   Fraction old density DampFac         ....    0.8500
   Max. Damping (<1)    DampMax         ....    0.9800
   Min. Damping (>=0)   DampMin         ....    0.0000
   Turn off err/grad.   DampErr         ....    0.0300
 Fernandez-Rico         CNVRico         .... off

SCF Procedure:
 Maximum # iterations   MaxIter         ....   125
 SCF integral mode      SCFMode         .... Direct
   Integral package                     .... SHARK and LIBINT hybrid scheme
 Reset frequency        DirectResetFreq ....    20
 Integral Threshold     Thresh          ....  2.500e-11 Eh
 Primitive CutOff       TCut            ....  2.500e-12 Eh

Convergence Tolerance:
 Convergence Check Mode ConvCheckMode   .... Total+1el-Energy
 Convergence forced     ConvForced      .... 0
 Energy Change          TolE            ....  1.000e-08 Eh
 1-El. energy change                    ....  1.000e-05 Eh
 Orbital Gradient       TolG            ....  1.000e-05
 Orbital Rotation angle TolX            ....  1.000e-05
 DIIS Error             TolErr          ....  5.000e-07


Diagonalization of the overlap matrix:
Smallest eigenvalue                        ... 1.418e-03
Time for diagonalization                   ...    0.009 sec
Threshold for overlap eigenvalues          ... 1.000e-08
Number of eigenvalues below threshold      ... 0
Time for construction of square roots      ...    0.004 sec
Total time needed                          ...    0.014 sec

Time for model grid setup =    0.457 sec

------------------------------
INITIAL GUESS: MODEL POTENTIAL
------------------------------
Loading Hartree-Fock densities                     ... done
Calculating cut-offs                               ... done
Initializing the effective Hamiltonian             ... done
Setting up the integral package (SHARK)            ... done
Starting the Coulomb interaction                   ... done (   0.5 sec)
Reading the grid                                   ... done
Mapping shells                                     ... done
Starting the XC term evaluation                    ... done (   0.5 sec)
  promolecular density results
     # of electrons  =     83.997088855
     EX              =    -63.901696551
     EC              =     -2.782280998
     EX+EC           =    -66.683977549
Transforming the Hamiltonian                       ... done (   0.0 sec)
Diagonalizing the Hamiltonian                      ... done (   0.0 sec)
Back transforming the eigenvectors                 ... done (   0.0 sec)
Now organizing SCF variables                       ... done
                      ------------------
                      INITIAL GUESS DONE (   1.5 sec)
                      ------------------
-------------------
DFT GRID GENERATION
-------------------

General Integration Accuracy     IntAcc      ... 4.388
Radial Grid Type                 RadialGrid  ... OptM3 with GC (2021)
Angular Grid (max. ang.)         AngularGrid ... 4 (Lebedev-302)
Angular grid pruning method      GridPruning ... 4 (adaptive)
Weight generation scheme         WeightScheme... Becke
Basis function cutoff            BFCut       ... 1.0000e-11
Integration weight cutoff        WCut        ... 1.0000e-14
Angular grids for H and He will be reduced by one unit
Partially contracted basis set               ... off
Rotationally invariant grid construction     ... off

Total number of grid points                  ...   116993
Total number of batches                      ...     1845
Average number of points per batch           ...       63
Average number of grid points per atom       ...     4333
Time for grid setup =    1.711 sec

--------------------
COSX GRID GENERATION
--------------------

GRIDX 1
-------
General Integration Accuracy     IntAcc      ... 3.816
Radial Grid Type                 RadialGrid  ... OptM3 with GC (2021)
Angular Grid (max. ang.)         AngularGrid ... 1 (Lebedev-50)
Angular grid pruning method      GridPruning ... 4 (adaptive)
Weight generation scheme         WeightScheme... Becke
Basis function cutoff            BFCut       ... 1.0000e-11
Integration weight cutoff        WCut        ... 1.0000e-14
Angular grids for H and He will be reduced by one unit
Partially contracted basis set               ... on
Rotationally invariant grid construction     ... off

Total number of grid points                  ...    14950
Total number of batches                      ...      249
Average number of points per batch           ...       60
Average number of grid points per atom       ...      554
UseSFitting                                  ... on

GRIDX 2
-------
General Integration Accuracy     IntAcc      ... 4.020
Radial Grid Type                 RadialGrid  ... OptM3 with GC (2021)
Angular Grid (max. ang.)         AngularGrid ... 2 (Lebedev-110)
Angular grid pruning method      GridPruning ... 4 (adaptive)
Weight generation scheme         WeightScheme... Becke
Basis function cutoff            BFCut       ... 1.0000e-11
Integration weight cutoff        WCut        ... 1.0000e-14
Angular grids for H and He will be reduced by one unit
Partially contracted basis set               ... on
Rotationally invariant grid construction     ... off

Total number of grid points                  ...    31405
Total number of batches                      ...      507
Average number of points per batch           ...       61
Average number of grid points per atom       ...     1163
UseSFitting                                  ... on

GRIDX 3
-------
General Integration Accuracy     IntAcc      ... 4.338
Radial Grid Type                 RadialGrid  ... OptM3 with GC (2021)
Angular Grid (max. ang.)         AngularGrid ... 3 (Lebedev-194)
Angular grid pruning method      GridPruning ... 4 (adaptive)
Weight generation scheme         WeightScheme... Becke
Basis function cutoff            BFCut       ... 1.0000e-11
Integration weight cutoff        WCut        ... 1.0000e-14
Angular grids for H and He will be reduced by one unit
Partially contracted basis set               ... on
Rotationally invariant grid construction     ... off

Total number of grid points                  ...    68497
Total number of batches                      ...     1085
Average number of points per batch           ...       63
Average number of grid points per atom       ...     2537
UseSFitting                                  ... on

Time for X-Grid setup             =    2.199 sec


--------------------
CPCM SOLVATION MODEL
--------------------
CPCM parameters:
  Epsilon                                         ...      80.4000
  Refrac                                          ...       1.3300
  Rsolv                                           ...       1.3000
  Surface type                                    ... GAUSSIAN VDW
  Epsilon function type                           ...         CPCM
Radii:
 Radius for N  used is    3.5149 Bohr (=   1.8600 Ang.)
 Radius for C  used is    3.8550 Bohr (=   2.0400 Ang.)
 Radius for H  used is    2.4944 Bohr (=   1.3200 Ang.)
Calculating surface                               ...        done! (  0.0s)
GEPOL surface points                              ...         1456
GEPOL Volume                                      ...    1413.6845
GEPOL Surface-area                                ...     784.1112
Calculating surface distance matrix               ...        done! (  0.0s)
Performing Cholesky decomposition & store         ...        done! (  0.1s)
Overall time for CPCM initialization              ...                 0.1s
--------------
SCF ITERATIONS
--------------
ITER       Energy         Delta-E        Max-DP      RMS-DP      [F,P]     Damp
               ***  Starting incremental Fock matrix formation  ***
  0   -461.3619674228   0.000000000000 0.03615352  0.00073536  0.1561059 0.8500
  1   -461.4154608230  -0.053493400152 0.03841241  0.00070292  0.1257248 0.8500
                               ***Turning on DIIS***
  2   -461.4563785045  -0.040917681560 0.03369389  0.00057747  0.0964831 0.8500
  3   -461.4868758470  -0.030497342429 0.02728529  0.00041089  0.0731735 0.8500
  4   -461.5104221331  -0.023546286115 0.02254195  0.00031313  0.0582849 0.8500
  5   -461.5289715132  -0.018549380095 0.01904254  0.00025575  0.0482146 0.8500
  6   -461.5440331675  -0.015061654282 0.01624640  0.00021525  0.0405676 0.8500
  7   -461.5564806333  -0.012447465857 0.01399645  0.00018508  0.0343672 0.8500
  8   -461.5668774504  -0.010396817029 0.08046469  0.00106185  0.0290716 0.0000
  9   -461.6227072179  -0.055829767578 0.00149527  0.00004036  0.0012331 0.0000
                      *** Initiating the SOSCF procedure ***
                           *** Shutting down DIIS ***
                      *** Re-Reading the Fockian *** 
                      *** Removing any level shift *** 
ITER      Energy       Delta-E        Grad      Rot      Max-DP    RMS-DP
 10   -461.62272945  -0.0000222323  0.000317  0.000317  0.000680  0.000019
               *** Restarting incremental Fock matrix formation ***
 11   -461.62280646  -0.0000770119  0.000227  0.000509  0.000454  0.000013
 12   -461.62280729  -0.0000008262  0.000070  0.000362  0.000286  0.000009
 13   -461.62280753  -0.0000002418  0.000028  0.000029  0.000158  0.000003
 14   -461.62280756  -0.0000000283  0.000005  0.000012  0.000074  0.000001
 15   -461.62280757  -0.0000000113  0.000004  0.000013  0.000016  0.000000
                  ***Gradient check signals convergence***
              ***Rediagonalizing the Fockian in SOSCF/NRSCF***

               *****************************************************
               *                     SUCCESS                       *
               *           SCF CONVERGED AFTER  16 CYCLES          *
               *****************************************************

Old exchange energy                            =    -21.383585434 Eh
New exchange energy                            =    -21.383552199 Eh
Exchange energy change after final integration =      0.000033235 Eh
Total energy after final integration           =   -461.622774339 Eh
Final COS-X integration done in                =    57.094 sec

----------------
TOTAL SCF ENERGY
----------------

Total Energy       :         -461.62277434 Eh          -12561.39430 eV

Components:
Nuclear Repulsion  :          640.83762093 Eh           17438.07820 eV
Electronic Energy  :        -1102.46039527 Eh          -29999.47250 eV
One Electron Energy:        -1893.38189263 Eh          -51521.54060 eV
Two Electron Energy:          790.92149735 Eh           21522.06810 eV
Max COSX asymmetry :            0.00000162 Eh               0.00004 eV
CPCM Dielectric    :           -0.01331421 Eh              -0.36230 eV

Virial components:
Potential Energy   :         -918.05661258 Eh          -24981.59047 eV
Kinetic Energy     :          456.43383824 Eh           12420.19617 eV
Virial Ratio       :            2.01136843


DFT components:
N(Alpha)           :       42.000014457069 electrons
N(Beta)            :       42.000014457069 electrons
N(Total)           :       84.000028914139 electrons
E(XC)              :      -47.164979739153 Eh       
DFET-embed. en.    :        0.000000000000 Eh       
CPCM Solvation Model Properties:
Surface-charge          :           -0.02604983
Charge-correction       :           -0.00036317 Eh              -0.00988 eV
Free-energy (cav+disp)  :  This term is not implemented in the current solvation scheme

---------------
SCF CONVERGENCE
---------------

  Last Energy change         ...   -4.2122e-09  Tolerance :   1.0000e-08
  Last MAX-Density change    ...    3.5527e-15  Tolerance :   1.0000e-07
  Last RMS-Density change    ...    4.1317e-17  Tolerance :   5.0000e-09
  Last Orbital Gradient      ...    5.8030e-07  Tolerance :   1.0000e-05
  Last Orbital Rotation      ...    1.3224e-06  Tolerance :   1.0000e-05

             **** THE GBW FILE WAS UPDATED (4_deprot_aq_6.gbw) ****
             **** DENSITY 4_deprot_aq_6.scfp WAS UPDATED ****
             **** ENERGY FILE WAS UPDATED (4_deprot_aq_6.en.tmp) ****
             **** THE GBW FILE WAS UPDATED (4_deprot_aq_6.gbw) ****
             **** DENSITY 4_deprot_aq_6.scfp WAS UPDATED ****
----------------
ORBITAL ENERGIES
----------------

  NO   OCC          E(Eh)            E(eV) 
   0   2.0000     -14.445686      -393.0871 
   1   2.0000     -14.445669      -393.0866 
   2   2.0000     -10.305935      -280.4388 
   3   2.0000     -10.305900      -280.4378 
   4   2.0000     -10.289565      -279.9933 
   5   2.0000     -10.288967      -279.9770 
   6   2.0000     -10.271565      -279.5035 
   7   2.0000     -10.255807      -279.0747 
   8   2.0000     -10.255789      -279.0742 
   9   2.0000     -10.253619      -279.0152 
  10   2.0000     -10.253605      -279.0148 
  11   2.0000      -1.152457       -31.3600 
  12   2.0000      -1.047475       -28.5033 
  13   2.0000      -0.937997       -25.5242 
  14   2.0000      -0.884598       -24.0711 
  15   2.0000      -0.858379       -23.3577 
  16   2.0000      -0.807704       -21.9787 
  17   2.0000      -0.806353       -21.9420 
  18   2.0000      -0.777959       -21.1693 
  19   2.0000      -0.725727       -19.7480 
  20   2.0000      -0.698066       -18.9953 
  21   2.0000      -0.654897       -17.8207 
  22   2.0000      -0.626377       -17.0446 
  23   2.0000      -0.584407       -15.9025 
  24   2.0000      -0.568273       -15.4635 
  25   2.0000      -0.567637       -15.4462 
  26   2.0000      -0.559931       -15.2365 
  27   2.0000      -0.538766       -14.6606 
  28   2.0000      -0.530345       -14.4314 
  29   2.0000      -0.526100       -14.3159 
  30   2.0000      -0.496886       -13.5209 
  31   2.0000      -0.490910       -13.3583 
  32   2.0000      -0.483465       -13.1558 
  33   2.0000      -0.479753       -13.0547 
  34   2.0000      -0.474225       -12.9043 
  35   2.0000      -0.454996       -12.3811 
  36   2.0000      -0.443392       -12.0653 
  37   2.0000      -0.441906       -12.0249 
  38   2.0000      -0.438291       -11.9265 
  39   2.0000      -0.369409       -10.0521 
  40   2.0000      -0.320532        -8.7221 
  41   2.0000      -0.316679        -8.6173 
  42   0.0000       0.125200         3.4069 
  43   0.0000       0.128932         3.5084 
  44   0.0000       0.153669         4.1816 
  45   0.0000       0.160805         4.3757 
  46   0.0000       0.180897         4.9225 
  47   0.0000       0.196841         5.3563 
  48   0.0000       0.199855         5.4383 
  49   0.0000       0.207510         5.6466 
  50   0.0000       0.214260         5.8303 
  51   0.0000       0.217280         5.9125 
  52   0.0000       0.220828         6.0090 
  53   0.0000       0.240893         6.5550 
  54   0.0000       0.243659         6.6303 
  55   0.0000       0.256289         6.9740 
  56   0.0000       0.260976         7.1015 
  57   0.0000       0.264351         7.1933 
  58   0.0000       0.275124         7.4865 
  59   0.0000       0.275735         7.5031 
  60   0.0000       0.277851         7.5607 
  61   0.0000       0.289792         7.8857 
  62   0.0000       0.290549         7.9062 
  63   0.0000       0.321594         8.7510 
  64   0.0000       0.333865         9.0849 
  65   0.0000       0.350592         9.5401 
  66   0.0000       0.358660         9.7596 
  67   0.0000       0.384295        10.4572 
  68   0.0000       0.388897        10.5824 
  69   0.0000       0.432489        11.7686 
  70   0.0000       0.468032        12.7358 
  71   0.0000       0.486651        13.2425 
  72   0.0000       0.499048        13.5798 
  73   0.0000       0.506077        13.7711 
  74   0.0000       0.515071        14.0158 
  75   0.0000       0.521069        14.1790 
  76   0.0000       0.529057        14.3964 
  77   0.0000       0.531659        14.4672 
  78   0.0000       0.575731        15.6664 
  79   0.0000       0.584000        15.8914 
  80   0.0000       0.605936        16.4883 
  81   0.0000       0.610340        16.6082 
  82   0.0000       0.636112        17.3095 
  83   0.0000       0.661099        17.9894 
  84   0.0000       0.664903        18.0929 
  85   0.0000       0.677299        18.4302 
  86   0.0000       0.691604        18.8195 
  87   0.0000       0.701811        19.0972 
  88   0.0000       0.707058        19.2400 
  89   0.0000       0.709949        19.3187 
  90   0.0000       0.735462        20.0129 
  91   0.0000       0.739392        20.1199 
  92   0.0000       0.750505        20.4223 
  93   0.0000       0.762616        20.7518 
  94   0.0000       0.766732        20.8638 
  95   0.0000       0.771491        20.9933 
  96   0.0000       0.774042        21.0628 
  97   0.0000       0.782333        21.2884 
  98   0.0000       0.784846        21.3568 
  99   0.0000       0.798691        21.7335 
 100   0.0000       0.801484        21.8095 
 101   0.0000       0.804604        21.8944 
 102   0.0000       0.808783        22.0081 
 103   0.0000       0.809771        22.0350 
 104   0.0000       0.818568        22.2744 
 105   0.0000       0.819706        22.3053 
 106   0.0000       0.822094        22.3703 
 107   0.0000       0.826095        22.4792 
 108   0.0000       0.834854        22.7175 
 109   0.0000       0.839121        22.8336 
 110   0.0000       0.857308        23.3285 
 111   0.0000       0.858405        23.3584 
 112   0.0000       0.869429        23.6584 
 113   0.0000       0.887396        24.1473 
 114   0.0000       0.906358        24.6633 
 115   0.0000       0.912768        24.8377 
 116   0.0000       1.001226        27.2448 
 117   0.0000       1.011353        27.5203 
 118   0.0000       1.066115        29.0105 
 119   0.0000       1.071607        29.1599 
 120   0.0000       1.103118        30.0174 
 121   0.0000       1.134657        30.8756 
 122   0.0000       1.175525        31.9877 
 123   0.0000       1.193222        32.4692 
 124   0.0000       1.198708        32.6185 
 125   0.0000       1.200862        32.6771 
 126   0.0000       1.244817        33.8732 
 127   0.0000       1.268008        34.5043 
 128   0.0000       1.303917        35.4814 
 129   0.0000       1.331924        36.2435 
 130   0.0000       1.333631        36.2899 
 131   0.0000       1.339879        36.4600 
 132   0.0000       1.351475        36.7755 
 133   0.0000       1.423919        38.7468 
 134   0.0000       1.438841        39.1529 
 135   0.0000       1.445613        39.3371 
 136   0.0000       1.485538        40.4235 
 137   0.0000       1.529724        41.6259 
 138   0.0000       1.560108        42.4527 
 139   0.0000       1.561864        42.5005 
 140   0.0000       1.594969        43.4013 
 141   0.0000       1.659508        45.1575 
 142   0.0000       1.659647        45.1613 
 143   0.0000       1.662729        45.2452 
 144   0.0000       1.673857        45.5480 
 145   0.0000       1.677990        45.6604 
 146   0.0000       1.688286        45.9406 
 147   0.0000       1.735795        47.2334 
 148   0.0000       1.749629        47.6098 
 149   0.0000       1.822680        49.5976 
 150   0.0000       1.829788        49.7911 
 151   0.0000       1.839375        50.0520 
 152   0.0000       1.840845        50.0919 
 153   0.0000       1.850678        50.3595 
 154   0.0000       1.891565        51.4721 
 155   0.0000       1.895352        51.5751 
 156   0.0000       1.898946        51.6730 
 157   0.0000       1.913291        52.0633 
 158   0.0000       1.926372        52.4193 
 159   0.0000       1.928338        52.4727 
 160   0.0000       1.940483        52.8032 
 161   0.0000       1.944661        52.9169 
 162   0.0000       1.954300        53.1792 
 163   0.0000       1.965647        53.4880 
 164   0.0000       1.973246        53.6948 
 165   0.0000       1.975717        53.7620 
 166   0.0000       1.984443        53.9994 
 167   0.0000       1.993456        54.2447 
 168   0.0000       2.002379        54.4875 
 169   0.0000       2.002541        54.4919 
 170   0.0000       2.011626        54.7391 
 171   0.0000       2.013008        54.7767 
 172   0.0000       2.043893        55.6172 
 173   0.0000       2.054975        55.9187 
 174   0.0000       2.064222        56.1703 
 175   0.0000       2.075821        56.4860 
 176   0.0000       2.078604        56.5617 
 177   0.0000       2.109576        57.4045 
 178   0.0000       2.115754        57.5726 
 179   0.0000       2.164382        58.8958 
 180   0.0000       2.164819        58.9077 
 181   0.0000       2.200220        59.8710 
 182   0.0000       2.224617        60.5349 
 183   0.0000       2.248513        61.1852 
 184   0.0000       2.267994        61.7153 
 185   0.0000       2.274941        61.9043 
 186   0.0000       2.336497        63.5793 
 187   0.0000       2.345845        63.8337 
 188   0.0000       2.388203        64.9863 
 189   0.0000       2.395965        65.1975 
 190   0.0000       2.396722        65.2181 
 191   0.0000       2.419650        65.8420 
 192   0.0000       2.473177        67.2986 
 193   0.0000       2.494863        67.8887 
 194   0.0000       2.500044        68.0297 
 195   0.0000       2.509332        68.2824 
 196   0.0000       2.525174        68.7135 
 197   0.0000       2.528950        68.8162 
 198   0.0000       2.537011        69.0356 
 199   0.0000       2.584133        70.3178 
 200   0.0000       2.623107        71.3784 
 201   0.0000       2.626342        71.4664 
 202   0.0000       2.632856        71.6437 
 203   0.0000       2.637085        71.7587 
 204   0.0000       2.691619        73.2427 
 205   0.0000       2.709008        73.7159 
 206   0.0000       2.716403        73.9171 
 207   0.0000       2.732997        74.3686 
 208   0.0000       2.825412        76.8834 
 209   0.0000       2.829899        77.0055 
 210   0.0000       2.835422        77.1557 
 211   0.0000       2.856590        77.7318 
 212   0.0000       2.872723        78.1708 
 213   0.0000       2.905846        79.0721 
 214   0.0000       2.972598        80.8885 
 215   0.0000       2.979432        81.0745 
 216   0.0000       3.005713        81.7896 
 217   0.0000       3.007451        81.8369 
 218   0.0000       3.015883        82.0663 
 219   0.0000       3.025759        82.3351 
 220   0.0000       3.028014        82.3964 
 221   0.0000       3.048548        82.9552 
 222   0.0000       3.050403        83.0057 
 223   0.0000       3.096224        84.2525 
 224   0.0000       3.099218        84.3340 
 225   0.0000       3.131527        85.2132 
 226   0.0000       3.144546        85.5675 
 227   0.0000       3.166297        86.1593 
 228   0.0000       3.167776        86.1996 
 229   0.0000       3.202700        87.1499 
 230   0.0000       3.319439        90.3265 
 231   0.0000       3.485378        94.8420 
 232   0.0000       3.489014        94.9409 
 233   0.0000       3.691157       100.4415 

                    ********************************
                    * MULLIKEN POPULATION ANALYSIS *
                    ********************************

-----------------------
MULLIKEN ATOMIC CHARGES
-----------------------
   0 N :   -0.203247
   1 C :   -0.190019
   2 N :   -0.203205
   3 C :    0.020992
   4 C :    0.021107
   5 C :   -0.018141
   6 C :   -0.018260
   7 C :    0.011985
   8 H :    0.042227
   9 C :    0.016408
  10 H :    0.042205
  11 C :    0.016460
  12 C :    0.012051
  13 H :    0.050573
  14 H :    0.050609
  15 H :    0.030382
  16 H :    0.021707
  17 H :    0.037116
  18 H :    0.029311
  19 H :    0.033950
  20 H :    0.021630
  21 H :    0.021676
  22 H :    0.029279
  23 H :    0.033940
  24 H :    0.037140
  25 H :    0.030390
  26 H :    0.021734
Sum of atomic charges:   -0.0000000

--------------------------------
MULLIKEN REDUCED ORBITAL CHARGES
--------------------------------
  0 N s       :     3.386819  s :     3.386819
      pz      :     1.116366  p :     3.783348
      px      :     1.162037
      py      :     1.504945
      dz2     :     0.008648  d :     0.033080
      dxz     :     0.009102
      dyz     :     0.005941
      dx2y2   :     0.005212
      dxy     :     0.004178
  1 C s       :     3.606874  s :     3.606874
      pz      :     1.150287  p :     2.518387
      px      :     0.654888
      py      :     0.713211
      dz2     :     0.008454  d :     0.064759
      dxz     :     0.027710
      dyz     :     0.009675
      dx2y2   :     0.007330
      dxy     :     0.011589
  2 N s       :     3.386824  s :     3.386824
      pz      :     1.116245  p :     3.783300
      px      :     1.161987
      py      :     1.505068
      dz2     :     0.008629  d :     0.033081
      dxz     :     0.009111
      dyz     :     0.005962
      dx2y2   :     0.005210
      dxy     :     0.004169
  3 C s       :     3.145154  s :     3.145154
      pz      :     0.803000  p :     2.785322
      px      :     0.901704
      py      :     1.080618
      dz2     :     0.014551  d :     0.048532
      dxz     :     0.013112
      dyz     :     0.008047
      dx2y2   :     0.004900
      dxy     :     0.007922
  4 C s       :     3.145066  s :     3.145066
      pz      :     0.802641  p :     2.785289
      px      :     0.901784
      py      :     1.080864
      dz2     :     0.014568  d :     0.048539
      dxz     :     0.013100
      dyz     :     0.008066
      dx2y2   :     0.004869
      dxy     :     0.007936
  5 C s       :     3.088433  s :     3.088433
      pz      :     1.027576  p :     2.872233
      px      :     0.814001
      py      :     1.030655
      dz2     :     0.008879  d :     0.057475
      dxz     :     0.011867
      dyz     :     0.010421
      dx2y2   :     0.015732
      dxy     :     0.010576
  6 C s       :     3.088329  s :     3.088329
      pz      :     1.027868  p :     2.872449
      px      :     0.813954
      py      :     1.030627
      dz2     :     0.008818  d :     0.057482
      dxz     :     0.011896
      dyz     :     0.010422
      dx2y2   :     0.015799
      dxy     :     0.010547
  7 C s       :     2.983555  s :     2.983555
      pz      :     0.990700  p :     2.977722
      px      :     1.006911
      py      :     0.980112
      dz2     :     0.005097  d :     0.026738
      dxz     :     0.005832
      dyz     :     0.006066
      dx2y2   :     0.007680
      dxy     :     0.002063
  8 H s       :     0.937020  s :     0.937020
      pz      :     0.009887  p :     0.020753
      px      :     0.006281
      py      :     0.004584
  9 C s       :     2.985973  s :     2.985973
      pz      :     1.014991  p :     2.970859
      px      :     1.000907
      py      :     0.954961
      dz2     :     0.003600  d :     0.026760
      dxz     :     0.004777
      dyz     :     0.008079
      dx2y2   :     0.007493
      dxy     :     0.002810
 10 H s       :     0.937042  s :     0.937042
      pz      :     0.010048  p :     0.020752
      px      :     0.006272
      py      :     0.004432
 11 C s       :     2.985928  s :     2.985928
      pz      :     1.014046  p :     2.970848
      px      :     1.000856
      py      :     0.955945
      dz2     :     0.003528  d :     0.026764
      dxz     :     0.004868
      dyz     :     0.008127
      dx2y2   :     0.007529
      dxy     :     0.002713
 12 C s       :     2.983448  s :     2.983448
      pz      :     0.993147  p :     2.977758
      px      :     1.006882
      py      :     0.977730
      dz2     :     0.004929  d :     0.026743
      dxz     :     0.005859
      dyz     :     0.006214
      dx2y2   :     0.007707
      dxy     :     0.002034
 13 H s       :     0.924644  s :     0.924644
      pz      :     0.010770  p :     0.024782
      px      :     0.008634
      py      :     0.005378
 14 H s       :     0.924611  s :     0.924611
      pz      :     0.010739  p :     0.024780
      px      :     0.008635
      py      :     0.005407
 15 H s       :     0.945450  s :     0.945450
      pz      :     0.010973  p :     0.024168
      px      :     0.004993
      py      :     0.008202
 16 H s       :     0.953877  s :     0.953877
      pz      :     0.010871  p :     0.024416
      px      :     0.008513
      py      :     0.005031
 17 H s       :     0.938484  s :     0.938484
      pz      :     0.005870  p :     0.024399
      px      :     0.014503
      py      :     0.004026
 18 H s       :     0.946534  s :     0.946534
      pz      :     0.005064  p :     0.024156
      px      :     0.005731
      py      :     0.013361
 19 H s       :     0.941710  s :     0.941710
      pz      :     0.005531  p :     0.024340
      px      :     0.014292
      py      :     0.004517
 20 H s       :     0.953448  s :     0.953448
      pz      :     0.009997  p :     0.024923
      px      :     0.009531
      py      :     0.005394
 21 H s       :     0.953399  s :     0.953399
      pz      :     0.010156  p :     0.024925
      px      :     0.009525
      py      :     0.005243
 22 H s       :     0.946563  s :     0.946563
      pz      :     0.005255  p :     0.024158
      px      :     0.005739
      py      :     0.013164
 23 H s       :     0.941720  s :     0.941720
      pz      :     0.005556  p :     0.024340
      px      :     0.014296
      py      :     0.004488
 24 H s       :     0.938460  s :     0.938460
      pz      :     0.005850  p :     0.024400
      px      :     0.014508
      py      :     0.004041
 25 H s       :     0.945442  s :     0.945442
      pz      :     0.010664  p :     0.024168
      px      :     0.004991
      py      :     0.008513
 26 H s       :     0.953855  s :     0.953855
      pz      :     0.011002  p :     0.024411
      px      :     0.008499
      py      :     0.004911


                     *******************************
                     * LOEWDIN POPULATION ANALYSIS *
                     *******************************

----------------------
LOEWDIN ATOMIC CHARGES
----------------------
   0 N :    0.043956
   1 C :   -0.300590
   2 N :    0.043954
   3 C :   -0.036178
   4 C :   -0.036102
   5 C :    0.029872
   6 C :    0.029849
   7 C :   -0.054790
   8 H :    0.031733
   9 C :   -0.054825
  10 H :    0.031723
  11 C :   -0.054828
  12 C :   -0.054785
  13 H :    0.035165
  14 H :    0.035181
  15 H :    0.026321
  16 H :    0.023171
  17 H :    0.030438
  18 H :    0.026021
  19 H :    0.029119
  20 H :    0.020238
  21 H :    0.020236
  22 H :    0.026009
  23 H :    0.029123
  24 H :    0.030456
  25 H :    0.026328
  26 H :    0.023205

-------------------------------
LOEWDIN REDUCED ORBITAL CHARGES
-------------------------------
  0 N s       :     3.056798  s :     3.056798
      pz      :     1.198664  p :     3.821182
      px      :     1.197906
      py      :     1.424613
      dz2     :     0.022668  d :     0.078063
      dxz     :     0.025263
      dyz     :     0.011474
      dx2y2   :     0.011113
      dxy     :     0.007545
  1 C s       :     3.187024  s :     3.187024
      pz      :     1.379941  p :     2.973291
      px      :     0.826739
      py      :     0.766611
      dz2     :     0.013965  d :     0.140275
      dxz     :     0.064997
      dyz     :     0.013843
      dx2y2   :     0.022179
      dxy     :     0.025292
  2 N s       :     3.056813  s :     3.056813
      pz      :     1.198742  p :     3.821167
      px      :     1.197885
      py      :     1.424540
      dz2     :     0.022639  d :     0.078066
      dxz     :     0.025280
      dyz     :     0.011506
      dx2y2   :     0.011115
      dxy     :     0.007526
  3 C s       :     2.852925  s :     2.852925
      pz      :     0.940314  p :     3.061305
      px      :     1.054623
      py      :     1.066368
      dz2     :     0.039125  d :     0.121948
      dxz     :     0.036396
      dyz     :     0.016265
      dx2y2   :     0.014066
      dxy     :     0.016096
  4 C s       :     2.852930  s :     2.852930
      pz      :     0.940094  p :     3.061212
      px      :     1.054645
      py      :     1.066473
      dz2     :     0.039189  d :     0.121961
      dxz     :     0.036365
      dyz     :     0.016294
      dx2y2   :     0.013984
      dxy     :     0.016129
  5 C s       :     2.829574  s :     2.829574
      pz      :     1.052227  p :     3.008045
      px      :     0.901257
      py      :     1.054561
      dz2     :     0.019335  d :     0.132509
      dxz     :     0.028254
      dyz     :     0.025173
      dx2y2   :     0.036919
      dxy     :     0.022828
  6 C s       :     2.829566  s :     2.829566
      pz      :     1.052538  p :     3.008067
      px      :     0.901211
      py      :     1.054317
      dz2     :     0.019005  d :     0.132519
      dxz     :     0.028402
      dyz     :     0.025375
      dx2y2   :     0.037050
      dxy     :     0.022688
  7 C s       :     2.830317  s :     2.830317
      pz      :     1.043337  p :     3.153027
      px      :     1.069786
      py      :     1.039903
      dz2     :     0.012585  d :     0.071446
      dxz     :     0.015448
      dyz     :     0.017452
      dx2y2   :     0.020758
      dxy     :     0.005205
  8 H s       :     0.903013  s :     0.903013
      pz      :     0.029297  p :     0.065253
      px      :     0.019489
      py      :     0.016468
  9 C s       :     2.833128  s :     2.833128
      pz      :     1.066558  p :     3.150556
      px      :     1.065772
      py      :     1.018226
      dz2     :     0.009656  d :     0.071142
      dxz     :     0.012693
      dyz     :     0.020592
      dx2y2   :     0.020755
      dxy     :     0.007446
 10 H s       :     0.903024  s :     0.903024
      pz      :     0.029681  p :     0.065253
      px      :     0.019465
      py      :     0.016107
 11 C s       :     2.833135  s :     2.833135
      pz      :     1.065862  p :     3.150551
      px      :     1.065733
      py      :     1.018956
      dz2     :     0.009367  d :     0.071142
      dxz     :     0.012940
      dyz     :     0.020822
      dx2y2   :     0.020826
      dxy     :     0.007187
 12 C s       :     2.830287  s :     2.830287
      pz      :     1.045183  p :     3.153044
      px      :     1.069785
      py      :     1.038076
      dz2     :     0.012073  d :     0.071454
      dxz     :     0.015530
      dyz     :     0.017866
      dx2y2   :     0.020866
      dxy     :     0.005120
 13 H s       :     0.890584  s :     0.890584
      pz      :     0.031678  p :     0.074251
      px      :     0.024813
      py      :     0.017760
 14 H s       :     0.890571  s :     0.890571
      pz      :     0.031601  p :     0.074247
      px      :     0.024816
      py      :     0.017830
 15 H s       :     0.906532  s :     0.906532
      pz      :     0.029174  p :     0.067147
      px      :     0.013103
      py      :     0.024870
 16 H s       :     0.908767  s :     0.908767
      pz      :     0.029337  p :     0.068062
      px      :     0.022505
      py      :     0.016221
 17 H s       :     0.902233  s :     0.902233
      pz      :     0.015553  p :     0.067329
      px      :     0.038738
      py      :     0.013038
 18 H s       :     0.906775  s :     0.906775
      pz      :     0.015317  p :     0.067204
      px      :     0.014786
      py      :     0.037101
 19 H s       :     0.903526  s :     0.903526
      pz      :     0.016503  p :     0.067355
      px      :     0.038025
      py      :     0.012826
 20 H s       :     0.909753  s :     0.909753
      pz      :     0.029252  p :     0.070009
      px      :     0.025192
      py      :     0.015564
 21 H s       :     0.909746  s :     0.909746
      pz      :     0.029607  p :     0.070018
      px      :     0.025173
      py      :     0.015239
 22 H s       :     0.906786  s :     0.906786
      pz      :     0.015730  p :     0.067205
      px      :     0.014807
      py      :     0.036667
 23 H s       :     0.903523  s :     0.903523
      pz      :     0.016484  p :     0.067355
      px      :     0.038035
      py      :     0.012835
 24 H s       :     0.902215  s :     0.902215
      pz      :     0.015549  p :     0.067329
      px      :     0.038753
      py      :     0.013026
 25 H s       :     0.906525  s :     0.906525
      pz      :     0.028386  p :     0.067147
      px      :     0.013103
      py      :     0.025659
 26 H s       :     0.908743  s :     0.908743
      pz      :     0.029758  p :     0.068052
      px      :     0.022462
      py      :     0.015831


                      *****************************
                      * MAYER POPULATION ANALYSIS *
                      *****************************

  NA   - Mulliken gross atomic population
  ZA   - Total nuclear charge
  QA   - Mulliken gross atomic charge
  VA   - Mayer's total valence
  BVA  - Mayer's bonded valence
  FA   - Mayer's free valence

  ATOM       NA         ZA         QA         VA         BVA        FA
  0 N      7.2032     7.0000    -0.2032     3.3370     3.3370     0.0000
  1 C      6.1900     6.0000    -0.1900     2.7542     2.7542     0.0000
  2 N      7.2032     7.0000    -0.2032     3.3371     3.3371    -0.0000
  3 C      5.9790     6.0000     0.0210     3.8406     3.8406    -0.0000
  4 C      5.9789     6.0000     0.0211     3.8406     3.8406     0.0000
  5 C      6.0181     6.0000    -0.0181     4.0926     4.0926    -0.0000
  6 C      6.0183     6.0000    -0.0183     4.0928     4.0928     0.0000
  7 C      5.9880     6.0000     0.0120     3.9456     3.9456     0.0000
  8 H      0.9578     1.0000     0.0422     0.9779     0.9779    -0.0000
  9 C      5.9836     6.0000     0.0164     3.9510     3.9510    -0.0000
 10 H      0.9578     1.0000     0.0422     0.9779     0.9779    -0.0000
 11 C      5.9835     6.0000     0.0165     3.9510     3.9510     0.0000
 12 C      5.9879     6.0000     0.0121     3.9456     3.9456    -0.0000
 13 H      0.9494     1.0000     0.0506     1.0005     1.0005    -0.0000
 14 H      0.9494     1.0000     0.0506     1.0004     1.0004     0.0000
 15 H      0.9696     1.0000     0.0304     0.9960     0.9960    -0.0000
 16 H      0.9783     1.0000     0.0217     1.0136     1.0136    -0.0000
 17 H      0.9629     1.0000     0.0371     0.9944     0.9944    -0.0000
 18 H      0.9707     1.0000     0.0293     0.9960     0.9960     0.0000
 19 H      0.9660     1.0000     0.0340     0.9935     0.9935     0.0000
 20 H      0.9784     1.0000     0.0216     1.0316     1.0316     0.0000
 21 H      0.9783     1.0000     0.0217     1.0316     1.0316     0.0000
 22 H      0.9707     1.0000     0.0293     0.9960     0.9960     0.0000
 23 H      0.9661     1.0000     0.0339     0.9935     0.9935     0.0000
 24 H      0.9629     1.0000     0.0371     0.9944     0.9944    -0.0000
 25 H      0.9696     1.0000     0.0304     0.9961     0.9961    -0.0000
 26 H      0.9783     1.0000     0.0217     1.0135     1.0135    -0.0000

  Mayer bond orders larger than 0.100000
B(  0-N ,  1-C ) :   1.2466 B(  0-N ,  4-C ) :   1.1422 B(  0-N ,  5-C ) :   0.9062 
B(  1-C ,  2-N ) :   1.2468 B(  2-N ,  3-C ) :   1.1421 B(  2-N ,  6-C ) :   0.9062 
B(  3-C ,  4-C ) :   1.6009 B(  3-C , 13-H ) :   0.9947 B(  4-C , 14-H ) :   0.9947 
B(  5-C ,  7-C ) :   1.0672 B(  5-C ,  8-H ) :   0.9458 B(  5-C ,  9-C ) :   1.0710 
B(  6-C , 10-H ) :   0.9458 B(  6-C , 11-C ) :   1.0710 B(  6-C , 12-C ) :   1.0673 
B(  7-C , 18-H ) :   0.9697 B(  7-C , 19-H ) :   0.9709 B(  7-C , 20-H ) :   0.9591 
B(  9-C , 15-H ) :   0.9683 B(  9-C , 16-H ) :   0.9642 B(  9-C , 17-H ) :   0.9736 
B( 11-C , 24-H ) :   0.9736 B( 11-C , 25-H ) :   0.9683 B( 11-C , 26-H ) :   0.9642 
B( 12-C , 21-H ) :   0.9591 B( 12-C , 22-H ) :   0.9697 B( 12-C , 23-H ) :   0.9709 


-------
TIMINGS
-------

Total SCF time: 0 days 0 hours 6 min 38 sec 

Total time                  ....     398.591 sec
Sum of individual times     ....     398.043 sec  ( 99.9%)

Fock matrix formation       ....     392.428 sec  ( 98.5%)
  Split-RI-J                ....      15.088 sec  (  3.8% of F)
  Chain of spheres X        ....     319.670 sec  ( 81.5% of F)
  XC integration            ....      33.432 sec  (  8.5% of F)
[...]
     70       0.007105   0.012553  -0.003533  -0.011733   0.000175   0.011267
     71       0.037319   0.068919  -0.019631  -0.110001   0.001732   0.098537
     72       0.246281  -0.164600   0.052367  -0.586210   0.009953  -0.310197
     73       0.003953  -0.003037   0.000868  -0.000175  -0.000002  -0.000460
     74      -0.055412   0.037178  -0.012005   0.150172  -0.002527   0.079916
     75       0.127660  -0.083276   0.024075  -0.013022   0.000623  -0.002070
     76      -0.534511   0.348800  -0.101127   0.089858  -0.003126   0.023215
     77      -0.346704   0.226190  -0.065622   0.061889  -0.002089   0.017013
     78      -0.231394   0.147727  -0.040344  -0.258683   0.003302  -0.147850
     79       0.016337  -0.011829   0.003294   0.011695  -0.000140   0.008257
     80      -0.346518   0.221514  -0.060334  -0.409963   0.005264  -0.234405
                 78         79         80    
      0      -0.000210   0.000387   0.000926
      1      -0.000014   0.000016   0.000064
      2      -0.000166   0.000688   0.002682
      3      -0.000001  -0.001819   0.000001
      4       0.000041   0.000012   0.000024
      5       0.000151   0.000000   0.000956
      6       0.000215   0.000386  -0.000927
      7      -0.000034  -0.000021   0.000076
      8      -0.000173  -0.000683   0.002684
      9       0.000249   0.039377  -0.050447
     10       0.000002   0.001010  -0.000938
     11       0.000125   0.047619  -0.047589
     12      -0.000246   0.039467   0.050396
     13       0.000003  -0.001504  -0.001567
     14       0.000124  -0.047671  -0.047488
     15       0.004612   0.000486   0.000279
     16      -0.000062  -0.000008  -0.000009
     17      -0.006270  -0.000503  -0.000395
     18      -0.004696   0.000483  -0.000277
     19      -0.000070   0.000004  -0.000006
     20      -0.006382   0.000498  -0.000391
     21       0.042635   0.000082  -0.000008
     22       0.002104   0.000011  -0.000002
     23      -0.012565  -0.000014  -0.000050
     24      -0.044151  -0.004455  -0.003258
     25       0.000853   0.000055   0.000041
     26       0.069096   0.004445   0.002722
     27       0.044549   0.000078  -0.000012
     28      -0.001297  -0.000008   0.000004
     29      -0.015802  -0.000015  -0.000053
     30       0.044926  -0.004410   0.003229
     31       0.000724  -0.000018   0.000014
     32       0.070342  -0.004383   0.002676
     33      -0.039473   0.000080   0.000008
     34       0.002075  -0.000012  -0.000002
     35      -0.012145   0.000013  -0.000050
     36      -0.049638   0.000078   0.000011
     37      -0.001515   0.000008   0.000004
     38      -0.016567   0.000015  -0.000052
     39      -0.001263  -0.462909   0.467751
     40      -0.000028  -0.011120   0.010987
     41      -0.001141  -0.530052   0.526341
     42       0.001221  -0.463735  -0.467132
     43      -0.000056   0.016908   0.016787
     44      -0.001097   0.530611   0.525257
     45       0.002229   0.000014   0.000059
     46       0.008177   0.000132  -0.000069
     47      -0.007898  -0.000136   0.000029
     48      -0.183207  -0.000467  -0.000362
     49       0.015080   0.000213   0.000167
     50       0.290360   0.000937   0.000718
     51      -0.354521  -0.001631  -0.000622
     52      -0.004741  -0.000344  -0.000252
     53      -0.090861  -0.000575  -0.000264
     54      -0.002851   0.000003   0.000046
     55      -0.026648  -0.000156   0.000025
     56      -0.019570  -0.000163  -0.000013
     57      -0.345817  -0.001645  -0.000631
     58       0.005871   0.000349   0.000244
     59      -0.088121  -0.000578  -0.000271
     60      -0.163777  -0.000471  -0.000347
     61      -0.007390  -0.000190  -0.000148
     62       0.260786   0.000947   0.000689
     63       0.198319  -0.000465   0.000360
     64       0.014138  -0.000208   0.000163
     65       0.316543  -0.000935   0.000713
     66       0.000187   0.000011  -0.000060
     67       0.018678  -0.000137  -0.000064
     68      -0.015367   0.000141   0.000026
     69       0.397852  -0.001633   0.000622
     70      -0.011517   0.000370  -0.000261
     71      -0.100232   0.000570  -0.000262
     72       0.319111  -0.001642   0.000633
     73       0.000528  -0.000323   0.000236
     74      -0.082271   0.000581  -0.000274
     75       0.001082   0.000005  -0.000046
     76      -0.019587   0.000158   0.000025
     77      -0.014710   0.000161  -0.000012
     78       0.154513  -0.000465   0.000346
     79      -0.008690   0.000194  -0.000151
     80       0.244959  -0.000938   0.000690


-----------
IR SPECTRUM
-----------

 Mode   freq       eps      Int      T**2         TX        TY        TZ
       cm**-1   L/(mol*cm) km/mol    a.u.
----------------------------------------------------------------------------
  6:     43.83   0.002242   11.33  0.015960  ( 0.000937  0.126302 -0.002603)
  7:     53.43   0.000001    0.01  0.000007  (-0.000102 -0.002559  0.000089)
  8:     90.32   0.001100    5.56  0.003800  ( 0.000607  0.061627 -0.001468)
  9:    149.67   0.000288    1.46  0.000601  ( 0.000058 -0.000314  0.024523)
 10:    175.72   0.000000    0.00  0.000000  (-0.000447 -0.000052 -0.000118)
 11:    260.48   0.000021    0.11  0.000025  ( 0.000266  0.004987 -0.000137)
 12:    260.83   0.000004    0.02  0.000005  (-0.001773 -0.001217  0.000296)
 13:    276.86   0.000763    3.86  0.000860  ( 0.029309 -0.000941  0.000103)
 14:    291.05   0.000002    0.01  0.000002  ( 0.000430  0.000101 -0.001406)
 15:    316.97   0.000382    1.93  0.000376  (-0.000260 -0.000770  0.019364)
 16:    330.99   0.001241    6.27  0.001170  ( 0.034203  0.000388  0.000141)
 17:    346.57   0.000478    2.42  0.000431  ( 0.020753 -0.000243 -0.000035)
 18:    403.73   0.003943   19.93  0.003048  ( 0.000182  0.055193 -0.001135)
 19:    456.63   0.000000    0.00  0.000000  ( 0.000314 -0.000007 -0.000067)
 20:    487.68   0.000122    0.62  0.000078  (-0.000013  0.000325  0.008834)
 21:    529.94   0.000045    0.23  0.000027  (-0.005160  0.000074 -0.000013)
 22:    614.87   0.000493    2.49  0.000250  (-0.000001  0.000572  0.015804)
 23:    670.95   0.000000    0.00  0.000000  (-0.000009 -0.000166 -0.000007)
 24:    683.52   0.003210   16.22  0.001465  (-0.000324 -0.038269  0.000921)
 25:    723.20   0.002660   13.44  0.001148  (-0.033875  0.000479 -0.000014)
 26:    744.31   0.014130   71.41  0.005924  (-0.000404 -0.076936  0.002198)
 27:    876.08   0.000000    0.00  0.000000  ( 0.000190 -0.000048  0.000013)
 28:    911.47   0.000006    0.03  0.000002  ( 0.000058  0.000376  0.001422)
 29:    921.98   0.001538    7.77  0.000521  ( 0.022814  0.000208 -0.000003)
 30:    934.48   0.000064    0.32  0.000021  ( 0.000855  0.004535 -0.000016)
 31:    934.72   0.000943    4.77  0.000315  ( 0.000411 -0.017737  0.000341)
 32:    963.41   0.000003    0.02  0.000001  ( 0.000175 -0.001035  0.000036)
 33:    964.11   0.000222    1.12  0.000072  ( 0.000139 -0.008482  0.000005)
 34:   1012.37   0.004294   21.70  0.001324  (-0.036383  0.000144  0.000017)
 35:   1023.99   0.000288    1.46  0.000088  ( 0.000005 -0.000103  0.009375)
 36:   1089.15   0.004915   24.84  0.001408  (-0.000002 -0.001663 -0.037492)
 37:   1119.69   0.000661    3.34  0.000184  ( 0.000029  0.000375  0.013571)
 38:   1145.90   0.010568   53.41  0.002878  (-0.053645  0.000485  0.000029)
 39:   1160.93   0.004535   22.92  0.001219  (-0.034909  0.000508 -0.000064)
 40:   1171.40   0.003248   16.41  0.000865  ( 0.000922  0.029395 -0.000553)
 41:   1171.50   0.000120    0.61  0.000032  (-0.000814  0.005582 -0.000283)
 42:   1191.19   0.001012    5.12  0.000265  ( 0.000046 -0.000287  0.016283)
 43:   1226.60   0.008423   42.57  0.002143  ( 0.046290 -0.000335  0.000006)
 44:   1327.03   0.014294   72.24  0.003361  (-0.057976  0.000309 -0.000018)
 45:   1333.31   0.000011    0.05  0.000003  ( 0.000016 -0.000025  0.001589)
 46:   1349.45   0.000005    0.02  0.000001  (-0.000416  0.000961 -0.000036)
 47:   1349.47   0.000017    0.09  0.000004  (-0.000008 -0.001995  0.000114)
 48:   1394.62   0.000510    2.58  0.000114  (-0.010624 -0.000899  0.000647)
 49:   1395.75   0.002356   11.91  0.000527  ( 0.000256  0.000738  0.022939)
 50:   1401.97   0.000184    0.93  0.000041  (-0.000205 -0.006383 -0.000304)
 51:   1402.06   0.008921   45.08  0.001986  ( 0.000033 -0.044553  0.000732)
 52:   1414.13   0.003537   17.87  0.000781  (-0.000005 -0.000582 -0.027932)
 53:   1435.23   0.006811   34.42  0.001481  ( 0.038482 -0.000358 -0.000045)
 54:   1447.87   0.000168    0.85  0.000036  (-0.000088  0.005948 -0.000881)
 55:   1447.90   0.000079    0.40  0.000017  (-0.001094 -0.003631  0.001657)
 56:   1452.32   0.010121   51.15  0.002175  ( 0.000467  0.000808  0.046624)
 57:   1455.54   0.000099    0.50  0.000021  (-0.001771  0.004142  0.001004)
 58:   1455.56   0.000072    0.36  0.000015  ( 0.001822 -0.003121  0.001514)
 59:   1458.57   0.006300   31.84  0.001348  (-0.036709 -0.000039  0.000534)
 60:   1468.79   0.000004    0.02  0.000001  (-0.000140 -0.000377 -0.000851)
 61:   1474.87   0.013421   67.82  0.002840  ( 0.053288 -0.000319  0.000032)
 62:   1483.47   0.002287   11.56  0.000481  ( 0.021934 -0.000231  0.000000)
 63:   1494.42   0.004316   21.81  0.000901  (-0.000007  0.000558  0.030016)
 64:   1648.48   0.000382    1.93  0.000072  (-0.000007 -0.000061  0.008499)
 65:   3065.98   0.006588   33.29  0.000671  (-0.001128 -0.025815  0.001688)
 66:   3066.01   0.004526   22.87  0.000461  ( 0.000705 -0.021424  0.001086)
 67:   3068.70   0.001648    8.33  0.000168  (-0.012935  0.000511  0.000142)
 68:   3068.79   0.002845   14.38  0.000289  (-0.000169 -0.003442 -0.016657)
 69:   3107.57   0.004076   20.60  0.000409  (-0.020230  0.000095 -0.000031)
 70:   3107.72   0.004983   25.18  0.000500  (-0.000039  0.000089  0.022368)
 71:   3171.24   0.005245   26.51  0.000516  (-0.000810 -0.021447 -0.007452)
 72:   3171.29   0.002411   12.18  0.000237  (-0.000582  0.015076  0.003095)
 73:   3172.34   0.003436   17.36  0.000338  ( 0.007855  0.001710 -0.016534)
 74:   3172.40   0.008703   43.98  0.000856  ( 0.004524 -0.006106  0.028256)
 75:   3173.58   0.000244    1.23  0.000024  ( 0.004219 -0.002469 -0.000334)
 76:   3173.67   0.000157    0.79  0.000015  ( 0.001782  0.002057  0.002835)
 77:   3177.02   0.019277   97.42  0.001894  ( 0.043514  0.000083 -0.000262)
 78:   3177.23   0.001585    8.01  0.000156  (-0.000472  0.000414 -0.012461)
 79:   3281.10   0.001348    6.81  0.000128  (-0.011321  0.000081  0.000006)
 80:   3302.01   0.000137    0.69  0.000013  ( 0.000004  0.000164  0.003594)

* The epsilon (eps) is given for a Dirac delta lineshape.
** The dipole moment derivative (T) already includes vibrational overlap.

The first frequency considered to be a vibration is 6
The total number of vibrations considered is 75


--------------------------
THERMOCHEMISTRY AT 298.15K
--------------------------

Temperature         ... 298.15 K
Pressure            ... 1.00 atm
Total Mass          ... 152.24 AMU

Throughout the following assumptions are being made:
  (1) The electronic state is orbitally nondegenerate
  (2) There are no thermally accessible electronically excited states
  (3) Hindered rotations indicated by low frequency modes are not
      treated as such but are treated as vibrations and this may
      cause some error
  (4) All equations used are the standard statistical mechanics
      equations for an ideal gas
  (5) All vibrations are strictly harmonic

freq.      43.83  E(vib)   ...       0.53 
freq.      53.43  E(vib)   ...       0.52 
freq.      90.32  E(vib)   ...       0.47 
freq.     149.67  E(vib)   ...       0.40 
freq.     175.72  E(vib)   ...       0.38 
freq.     260.48  E(vib)   ...       0.30 
freq.     260.83  E(vib)   ...       0.30 
freq.     276.86  E(vib)   ...       0.28 
freq.     291.05  E(vib)   ...       0.27 
freq.     316.97  E(vib)   ...       0.25 
freq.     330.99  E(vib)   ...       0.24 
freq.     346.57  E(vib)   ...       0.23 
freq.     403.73  E(vib)   ...       0.19 
freq.     456.63  E(vib)   ...       0.16 
freq.     487.68  E(vib)   ...       0.15 
freq.     529.94  E(vib)   ...       0.13 
freq.     614.87  E(vib)   ...       0.10 
freq.     670.95  E(vib)   ...       0.08 
freq.     683.52  E(vib)   ...       0.07 
freq.     723.20  E(vib)   ...       0.07 
freq.     744.31  E(vib)   ...       0.06 
freq.     876.08  E(vib)   ...       0.04 
freq.     911.47  E(vib)   ...       0.03 
freq.     921.98  E(vib)   ...       0.03 
freq.     934.48  E(vib)   ...       0.03 
freq.     934.72  E(vib)   ...       0.03 
freq.     963.41  E(vib)   ...       0.03 
freq.     964.11  E(vib)   ...       0.03 
freq.    1012.37  E(vib)   ...       0.02 
freq.    1023.99  E(vib)   ...       0.02 
freq.    1089.15  E(vib)   ...       0.02 
freq.    1119.69  E(vib)   ...       0.01 
freq.    1145.90  E(vib)   ...       0.01 
freq.    1160.93  E(vib)   ...       0.01 
freq.    1171.40  E(vib)   ...       0.01 
freq.    1171.50  E(vib)   ...       0.01 
freq.    1191.19  E(vib)   ...       0.01 
freq.    1226.60  E(vib)   ...       0.01 
freq.    1327.03  E(vib)   ...       0.01 
freq.    1333.31  E(vib)   ...       0.01 
freq.    1349.45  E(vib)   ...       0.01 
freq.    1349.47  E(vib)   ...       0.01 
freq.    1394.62  E(vib)   ...       0.00 
freq.    1395.75  E(vib)   ...       0.00 
freq.    1401.97  E(vib)   ...       0.00 
freq.    1402.06  E(vib)   ...       0.00 
freq.    1414.13  E(vib)   ...       0.00 
freq.    1435.23  E(vib)   ...       0.00 
freq.    1447.87  E(vib)   ...       0.00 
freq.    1447.90  E(vib)   ...       0.00 
freq.    1452.32  E(vib)   ...       0.00 
freq.    1455.54  E(vib)   ...       0.00 
freq.    1455.56  E(vib)   ...       0.00 
freq.    1458.57  E(vib)   ...       0.00 
freq.    1468.79  E(vib)   ...       0.00 
freq.    1474.87  E(vib)   ...       0.00 
freq.    1483.47  E(vib)   ...       0.00 
freq.    1494.42  E(vib)   ...       0.00 
freq.    1648.48  E(vib)   ...       0.00 
freq.    3065.98  E(vib)   ...       0.00 
freq.    3066.01  E(vib)   ...       0.00 
freq.    3068.70  E(vib)   ...       0.00 
freq.    3068.79  E(vib)   ...       0.00 
freq.    3107.57  E(vib)   ...       0.00 
freq.    3107.72  E(vib)   ...       0.00 
freq.    3171.24  E(vib)   ...       0.00 
freq.    3171.29  E(vib)   ...       0.00 
freq.    3172.34  E(vib)   ...       0.00 
freq.    3172.40  E(vib)   ...       0.00 
freq.    3173.58  E(vib)   ...       0.00 
freq.    3173.67  E(vib)   ...       0.00 
freq.    3177.02  E(vib)   ...       0.00 
freq.    3177.23  E(vib)   ...       0.00 
freq.    3281.10  E(vib)   ...       0.00 
freq.    3302.01  E(vib)   ...       0.00 

------------
INNER ENERGY
------------

The inner energy is: U= E(el) + E(ZPE) + E(vib) + E(rot) + E(trans)
    E(el)   - is the total energy from the electronic structure calculation
              = E(kin-el) + E(nuc-el) + E(el-el) + E(nuc-nuc)
    E(ZPE)  - the the zero temperature vibrational energy from the frequency calculation
    E(vib)  - the the finite temperature correction to E(ZPE) due to population
              of excited vibrational states
    E(rot)  - is the rotational thermal energy
    E(trans)- is the translational thermal energy

Summary of contributions to the inner energy U:
Electronic energy                ...   -461.63188342 Eh
Zero point energy                ...      0.24211909 Eh     151.93 kcal/mol
Thermal vibrational correction   ...      0.00895066 Eh       5.62 kcal/mol
Thermal rotational correction    ...      0.00141627 Eh       0.89 kcal/mol
Thermal translational correction ...      0.00141627 Eh       0.89 kcal/mol
-----------------------------------------------------------------------
Total thermal energy                   -461.37798113 Eh


Summary of corrections to the electronic energy:
(perhaps to be used in another calculation)
Total thermal correction                  0.01178320 Eh       7.39 kcal/mol
Non-thermal (ZPE) correction              0.24211909 Eh     151.93 kcal/mol
-----------------------------------------------------------------------
Total correction                          0.25390229 Eh     159.33 kcal/mol


--------
ENTHALPY
--------

The enthalpy is H = U + kB*T
                kB is Boltzmann's constant
Total free energy                 ...   -461.37798113 Eh 
Thermal Enthalpy correction       ...      0.00094421 Eh       0.59 kcal/mol
-----------------------------------------------------------------------
Total Enthalpy                    ...   -461.37703692 Eh


Note: Only C1 symmetry has been detected, increase convergence thresholds 
      if your molecule has a higher symmetry. Symmetry factor of 1.0 is   
      used for the rotational entropy correction. 
 

Note: Rotational entropy computed according to Herzberg 
Infrared and Raman Spectra, Chapter V,1, Van Nostrand Reinhold, 1945 
Point Group:  C1, Symmetry Number:   1  
Rotational constants in cm-1:     0.066678     0.021080     0.020227 

Vibrational entropy computed according to the QRRHO of S. Grimme
Chem.Eur.J. 2012 18 9955


-------
ENTROPY
-------

The entropy contributions are T*S = T*(S(el)+S(vib)+S(rot)+S(trans))
     S(el)   - electronic entropy
     S(vib)  - vibrational entropy
     S(rot)  - rotational entropy
     S(trans)- translational entropy
The entropies will be listed as multiplied by the temperature to get
units of energy

Electronic entropy                ...      0.00000000 Eh      0.00 kcal/mol
Vibrational entropy               ...      0.01524629 Eh      9.57 kcal/mol
Rotational entropy                ...      0.01445269 Eh      9.07 kcal/mol
Translational entropy             ...      0.01946649 Eh     12.22 kcal/mol
-----------------------------------------------------------------------
Final entropy term                ...      0.04916547 Eh     30.85 kcal/mol

In case the symmetry of your molecule has not been determined correctly
or in case you have a reason to use a different symmetry number we print 
out the resulting rotational entropy values for sn=1,12 :
 --------------------------------------------------------
|  sn= 1 | S(rot)=       0.01445269 Eh      9.07 kcal/mol|
|  sn= 2 | S(rot)=       0.01379823 Eh      8.66 kcal/mol|
|  sn= 3 | S(rot)=       0.01341540 Eh      8.42 kcal/mol|
|  sn= 4 | S(rot)=       0.01314377 Eh      8.25 kcal/mol|
|  sn= 5 | S(rot)=       0.01293309 Eh      8.12 kcal/mol|
|  sn= 6 | S(rot)=       0.01276094 Eh      8.01 kcal/mol|
|  sn= 7 | S(rot)=       0.01261540 Eh      7.92 kcal/mol|
|  sn= 8 | S(rot)=       0.01248932 Eh      7.84 kcal/mol|
|  sn= 9 | S(rot)=       0.01237811 Eh      7.77 kcal/mol|
|  sn=10 | S(rot)=       0.01227863 Eh      7.70 kcal/mol|
|  sn=11 | S(rot)=       0.01218864 Eh      7.65 kcal/mol|
|  sn=12 | S(rot)=       0.01210649 Eh      7.60 kcal/mol|
 --------------------------------------------------------


-------------------
GIBBS FREE ENERGY
-------------------

The Gibbs free energy is G = H - T*S

Total enthalpy                    ...   -461.37703692 Eh 
Total entropy correction          ...     -0.04916547 Eh    -30.85 kcal/mol
-----------------------------------------------------------------------
Final Gibbs free energy         ...   -461.42620239 Eh

For completeness - the Gibbs free energy minus the electronic energy
G-E(el)                           ...      0.20568103 Eh    129.07 kcal/mol


Timings for individual modules:

Sum of individual times         ...     5629.925 sec (=  93.832 min)
GTO integral calculation        ...        3.832 sec (=   0.064 min)   0.1 %
SCF iterations                  ...     3340.891 sec (=  55.682 min)  59.3 %
SCF Gradient evaluation         ...      879.000 sec (=  14.650 min)  15.6 %
Geometry relaxation             ...        0.897 sec (=   0.015 min)   0.0 %
Analytical frequency calculation...     1405.305 sec (=  23.422 min)  25.0 %
                             ****ORCA TERMINATED NORMALLY****
TOTAL RUN TIME: 0 days 1 hours 33 minutes 51 seconds 609 msec
