
                                 *****************
                                 * O   R   C   A *
                                 *****************

                                            #,                                       
                                            ###                                      
                                            ####                                     
                                            #####                                    
                                            ######                                   
                                           ########,                                 
                                     ,,################,,,,,                         
                               ,,#################################,,                 
                          ,,##########################################,,             
                       ,#########################################, ''#####,          
                    ,#############################################,,   '####,        
                  ,##################################################,,,,####,       
                ,###########''''           ''''###############################       
              ,#####''   ,,,,##########,,,,          '''####'''          '####       
            ,##' ,,,,###########################,,,                        '##       
           ' ,,###''''                  '''############,,,                           
         ,,##''                                '''############,,,,        ,,,,,,###''
      ,#''                                            '''#######################'''  
     '                                                          ''''####''''         
             ,#######,   #######,   ,#######,      ##                                
            ,#'     '#,  ##    ##  ,#'     '#,    #''#        ######   ,####,        
            ##       ##  ##   ,#'  ##            #'  '#       #        #'  '#        
            ##       ##  #######   ##           ,######,      #####,   #    #        
            '#,     ,#'  ##    ##  '#,     ,#' ,#      #,         ##   #,  ,#        
             '#######'   ##     ##  '#######'  #'      '#     #####' # '####'        



                  #######################################################
                  #                        -***-                        #
                  #          Department of theory and spectroscopy      #
                  #    Directorship and core code : Frank Neese         #
                  #        Max Planck Institute fuer Kohlenforschung    #
                  #                Kaiser Wilhelm Platz 1               #
                  #                 D-45470 Muelheim/Ruhr               #
                  #                      Germany                        #
                  #                                                     #
                  #                  All rights reserved                #
                  #                        -***-                        #
                  #######################################################


                         Program Version 5.0.4 -  RELEASE  -


 With contributions from (in alphabetic order):
   Daniel Aravena         : Magnetic Suceptibility
   Michael Atanasov       : Ab Initio Ligand Field Theory (pilot matlab implementation)
   Alexander A. Auer      : GIAO ZORA, VPT2 properties, NMR spectrum
   Ute Becker             : Parallelization
   Giovanni Bistoni       : ED, misc. LED, open-shell LED, HFLD
   Martin Brehm           : Molecular dynamics
   Dmytro Bykov           : SCF Hessian
   Vijay G. Chilkuri      : MRCI spin determinant printing, contributions to CSF-ICE
   Dipayan Datta          : RHF DLPNO-CCSD density
   Achintya Kumar Dutta   : EOM-CC, STEOM-CC
   Dmitry Ganyushin       : Spin-Orbit,Spin-Spin,Magnetic field MRCI
   Miquel Garcia          : C-PCM and meta-GGA Hessian, CC/C-PCM, Gaussian charge scheme
   Yang Guo               : DLPNO-NEVPT2, F12-NEVPT2, CIM, IAO-localization
   Andreas Hansen         : Spin unrestricted coupled pair/coupled cluster methods
   Benjamin Helmich-Paris : MC-RPA, TRAH-SCF, COSX integrals
   Lee Huntington         : MR-EOM, pCC
   Robert Izsak           : Overlap fitted RIJCOSX, COSX-SCS-MP3, EOM
   Marcus Kettner         : VPT2
   Christian Kollmar      : KDIIS, OOCD, Brueckner-CCSD(T), CCSD density, CASPT2, CASPT2-K
   Simone Kossmann        : Meta GGA functionals, TD-DFT gradient, OOMP2, MP2 Hessian
   Martin Krupicka        : Initial AUTO-CI
   Lucas Lang             : DCDCAS
   Marvin Lechner         : AUTO-CI (C++ implementation), FIC-MRCC
   Dagmar Lenk            : GEPOL surface, SMD
   Dimitrios Liakos       : Extrapolation schemes; Compound Job, initial MDCI parallelization
   Dimitrios Manganas     : Further ROCIS development; embedding schemes
   Dimitrios Pantazis     : SARC Basis sets
   Anastasios Papadopoulos: AUTO-CI, single reference methods and gradients
   Taras Petrenko         : DFT Hessian,TD-DFT gradient, ASA, ECA, R-Raman, ABS, FL, XAS/XES, NRVS
   Peter Pinski           : DLPNO-MP2, DLPNO-MP2 Gradient
   Christoph Reimann      : Effective Core Potentials
   Marius Retegan         : Local ZFS, SOC
   Christoph Riplinger    : Optimizer, TS searches, QM/MM, DLPNO-CCSD(T), (RO)-DLPNO pert. Triples
   Tobias Risthaus        : Range-separated hybrids, TD-DFT gradient, RPA, STAB
   Michael Roemelt        : Original ROCIS implementation
   Masaaki Saitow         : Open-shell DLPNO-CCSD energy and density
   Barbara Sandhoefer     : DKH picture change effects
   Avijit Sen             : IP-ROCIS
   Kantharuban Sivalingam : CASSCF convergence, NEVPT2, FIC-MRCI
   Bernardo de Souza      : ESD, SOC TD-DFT
   Georgi Stoychev        : AutoAux, RI-MP2 NMR, DLPNO-MP2 response
   Willem Van den Heuvel  : Paramagnetic NMR
   Boris Wezisla          : Elementary symmetry handling
   Frank Wennmohs         : Technical directorship


 We gratefully acknowledge several colleagues who have allowed us to
 interface, adapt or use parts of their codes:
   Stefan Grimme, W. Hujo, H. Kruse, P. Pracht,  : VdW corrections, initial TS optimization,
                  C. Bannwarth, S. Ehlert          DFT functionals, gCP, sTDA/sTD-DF
   Ed Valeev, F. Pavosevic, A. Kumar             : LibInt (2-el integral package), F12 methods
   Garnet Chan, S. Sharma, J. Yang, R. Olivares  : DMRG
   Ulf Ekstrom                                   : XCFun DFT Library
   Mihaly Kallay                                 : mrcc  (arbitrary order and MRCC methods)
   Jiri Pittner, Ondrej Demel                    : Mk-CCSD
   Frank Weinhold                                : gennbo (NPA and NBO analysis)
   Christopher J. Cramer and Donald G. Truhlar   : smd solvation model
   Lars Goerigk                                  : TD-DFT with DH, B97 family of functionals
   V. Asgeirsson, H. Jonsson                     : NEB implementation
   FAccTs GmbH                                   : IRC, NEB, NEB-TS, DLPNO-Multilevel, CI-OPT
                                                   MM, QMMM, 2- and 3-layer-ONIOM, Crystal-QMMM,
                                                   LR-CPCM, SF, NACMEs, symmetry and pop. for TD-DFT,
                                                   nearIR, NL-DFT gradient (VV10), updates on ESD,
                                                   ML-optimized integration grids
   S Lehtola, MJT Oliveira, MAL Marques          : LibXC Library
   Liviu Ungur et al                             : ANISO software


 Your calculation uses the libint2 library for the computation of 2-el integrals
 For citations please refer to: http://libint.valeyev.net

 Your ORCA version has been built with support for libXC version: 5.1.0
 For citations please refer to: https://tddft.org/programs/libxc/

 This ORCA versions uses:
   CBLAS   interface :  Fast vector & matrix operations
   LAPACKE interface :  Fast linear algebra routines
   SCALAPACK package :  Parallel linear algebra routines
   Shared memory     :  Shared parallel matrices
   BLAS/LAPACK       :  OpenBLAS 0.3.15  USE64BITINT DYNAMIC_ARCH NO_AFFINITY SkylakeX SINGLE_THREADED
        Core in use  :  SkylakeX
   Copyright (c) 2011-2014, The OpenBLAS Project




***************************************
The coordinates will be read from file: 4_deprot_aq_9.xyz
***************************************


Your calculation utilizes the atom-pairwise dispersion correction
based on tight binding partial charges (D4)
Cite in your paper:
E.Caldeweyher, C.Bannwarth, S.Grimme, J.Chem.Phys., (2017), 147, 034112.
E.Caldeweyher, S.Ehlert, A.Hansen, H.Neugebauer, S.Grimme, J.Chem.Phys., (2018), in progress.
   

XCFun DFT library Copyright 2009-2010 Ulf Ekstrom and contributors.
See http://admol.org/xcfun for more information.
This is free software; see the source code for copying conditions.
There is ABSOLUTELY NO WARRANTY; not even for MERCHANTABILITY or FITNESS FOR A PARTICULAR PURPOSE.
For details see the documentation.
Scientific users of this library should cite U. Ekstrom, L. Visscher, R. Bast, A. J. Thorvaldsen and K. Ruud;
J.Chem.Theor.Comp. 2010, DOI: 10.1021/ct100117s
XCFun Version 0.99 

================================================================================

----- Orbital basis set information -----
Your calculation utilizes the basis: def2-SVP
   F. Weigend and R. Ahlrichs, Phys. Chem. Chem. Phys. 7, 3297 (2005).

----- AuxJ basis set information -----
Your calculation utilizes the auxiliary basis: def2/J
   F. Weigend, Phys. Chem. Chem. Phys. 8, 1057 (2006).

================================================================================
                                        WARNINGS
                       Please study these warnings very carefully!
================================================================================


WARNING: Geometry Optimization
  ===> : Switching off AutoStart
         For restart on a previous wavefunction, please use MOREAD

INFO   : the flag for use of the SHARK integral package has been found!

================================================================================
                                       INPUT FILE
================================================================================
NAME = 4_deprot_aq_9.inp
|  1> # ORCA 5.0.4 - /users/bwb16179/postgrad/2024_03/DFT_Crest_Conformers/Opt/deprot/4_deprot_aq_9.inp # write input file
|  2> # Basic Mode
|  3> #
|  4> ! Opt Freq wB97X Def2-SVP D4 SlowConv TightSCF Defgrid2 Def2/J RIJCOSX CPCM(Water)
|  5> 
|  6> 
|  7> 
|  8> %maxcore 4500
|  9> 
| 10> %geom
| 11> Maxiter 150
| 12> END
| 13> 
| 14> * xyzfile 0 1 4_deprot_aq_9.xyz
| 15> 
| 16>                          ****END OF INPUT****
================================================================================

                       *****************************
                       * Geometry Optimization Run *
                       *****************************

Geometry optimization settings:
Update method            Update   .... BFGS
Choice of coordinates    CoordSys .... Z-matrix Internals
Initial Hessian          InHess   .... Almoef's Model

Convergence Tolerances:
Energy Change            TolE     ....  5.0000e-06 Eh
Max. Gradient            TolMAXG  ....  3.0000e-04 Eh/bohr
RMS Gradient             TolRMSG  ....  1.0000e-04 Eh/bohr
Max. Displacement        TolMAXD  ....  4.0000e-03 bohr
RMS Displacement         TolRMSD  ....  2.0000e-03 bohr
Strict Convergence                ....  False
------------------------------------------------------------------------------
                        ORCA OPTIMIZATION COORDINATE SETUP
------------------------------------------------------------------------------

The optimization will be done in new redundant internal coordinates
Making redundant internal coordinates   ...  (new redundants) done
Evaluating the initial hessian          ...  (Almloef) done
Evaluating the coordinates              ...  done
Calculating the B-matrix                .... done
Calculating the G-matrix                .... done
Diagonalizing the G-matrix              .... done
Small eigenvalue found = 1.155e-02
Small eigenvalue found = 2.514e-02
The first mode is                       ....   65
The number of degrees of freedom        ....   75

    -----------------------------------------------------------------
                    Redundant Internal Coordinates


    -----------------------------------------------------------------
         Definition                    Initial Value    Approx d2E/dq
    -----------------------------------------------------------------
      1. B(C   1,N   0)                  1.3570         0.631777   
      2. B(N   2,C   1)                  1.3595         0.625888   
      3. B(C   3,N   2)                  1.3736         0.594400   
      4. B(C   4,C   3)                  1.3527         0.716544   
      5. B(C   4,N   0)                  1.3703         0.601590   
      6. B(C   5,N   0)                  1.4441         0.458672   
      7. B(C   6,N   2)                  1.4505         0.448052   
      8. B(C   7,C   5)                  1.5279         0.376505   
      9. B(H   8,C   5)                  1.0979         0.349813   
     10. B(C   9,C   5)                  1.5287         0.375317   
     11. B(H  10,C   6)                  1.1012         0.345541   
     12. B(C  11,C   6)                  1.5283         0.375883   
     13. B(C  12,C   6)                  1.5263         0.378684   
     14. B(H  13,C   3)                  1.0696         0.388119   
     15. B(H  14,C   4)                  1.0719         0.384877   
     16. B(H  15,C   9)                  1.0880         0.362817   
     17. B(H  16,C   9)                  1.0866         0.364562   
     18. B(H  17,C   9)                  1.0867         0.364505   
     19. B(H  18,C   7)                  1.0865         0.364781   
     20. B(H  19,C   7)                  1.0878         0.363027   
     21. B(H  20,C   7)                  1.0867         0.364479   
     22. B(H  21,C  12)                  1.0883         0.362298   
     23. B(H  22,C  12)                  1.0876         0.363265   
     24. B(H  23,C  12)                  1.0871         0.363912   
     25. B(H  24,C  11)                  1.0875         0.363420   
     26. B(H  25,C  11)                  1.0867         0.364495   
     27. B(H  26,C  11)                  1.0857         0.365808   
     28. A(C   1,N   0,C   5)          123.2553         0.407383   
     29. A(C   4,N   0,C   5)          124.9753         0.403874   
     30. A(C   1,N   0,C   4)          111.7648         0.427542   
     31. A(N   0,C   1,N   2)          103.5770         0.430589   
     32. A(C   1,N   2,C   6)          121.9962         0.405029   
     33. A(C   1,N   2,C   3)          111.5508         0.425907   
     34. A(C   3,N   2,C   6)          126.4081         0.401358   
     35. A(N   2,C   3,C   4)          106.5214         0.439263   
     36. A(C   4,C   3,H  13)          129.4781         0.366361   
     37. A(N   2,C   3,H  13)          124.0004         0.352686   
     38. A(N   0,C   4,H  14)          122.8631         0.352903   
     39. A(C   3,C   4,H  14)          130.5528         0.365835   
     40. A(N   0,C   4,C   3)          106.5841         0.440218   
     41. A(H   8,C   5,C   9)          109.3993         0.323026   
     42. A(C   7,C   5,C   9)          110.9170         0.364127   
     43. A(N   0,C   5,C   9)          109.6827         0.374331   
     44. A(C   7,C   5,H   8)          109.4742         0.323194   
     45. A(N   0,C   5,H   8)          107.5488         0.331880   
     46. A(N   0,C   5,C   7)          109.7524         0.374535   
     47. A(H  10,C   6,C  11)          108.3926         0.322456   
     48. A(N   2,C   6,C  11)          109.0928         0.372919   
     49. A(C  11,C   6,C  12)          110.4855         0.364580   
     50. A(H  10,C   6,C  12)          108.6327         0.322849   
     51. A(N   2,C   6,C  12)          112.1538         0.373396   
     52. A(N   2,C   6,H  10)          107.9799         0.329925   
     53. A(H  19,C   7,H  20)          108.8256         0.291764   
     54. A(H  18,C   7,H  20)          109.4312         0.291985   
     55. A(C   5,C   7,H  20)          110.4268         0.325381   
     56. A(H  18,C   7,H  19)          108.5968         0.291801   
     57. A(C   5,C   7,H  19)          110.4334         0.325168   
     58. A(C   5,C   7,H  18)          109.0961         0.325425   
     59. A(H  16,C   9,H  17)          109.3591         0.291961   
     60. A(H  15,C   9,H  17)          108.7952         0.291740   
     61. A(C   5,C   9,H  17)          110.4590         0.325216   
     62. A(H  15,C   9,H  16)          108.6279         0.291747   
     63. A(C   5,C   9,H  16)          109.1372         0.325224   
     64. A(C   5,C   9,H  15)          110.4303         0.324968   
     65. A(H  25,C  11,H  26)          109.5965         0.292116   
     66. A(H  24,C  11,H  26)          108.5173         0.291980   
     67. A(H  24,C  11,H  25)          109.0155         0.291815   
     68. A(C   6,C  11,H  25)          110.2835         0.325295   
     69. A(C   6,C  11,H  24)          110.0605         0.325137   
     70. A(C   6,C  11,H  26)          109.3396         0.325487   
     71. A(H  22,C  12,H  23)          107.9816         0.291722   
     72. A(H  21,C  12,H  23)          108.4654         0.291600   
     73. A(C   6,C  12,H  23)          109.2252         0.325607   
     74. A(H  21,C  12,H  22)          109.0920         0.291518   
     75. A(C   6,C  12,H  22)          111.5582         0.325511   
     76. A(C   6,C  12,H  21)          110.4357         0.325369   
     77. D(N   2,C   1,N   0,C   4)      0.1966         0.029366   
     78. D(N   2,C   1,N   0,C   5)   -179.0487         0.029366   
     79. D(C   3,N   2,C   1,N   0)     -0.4021         0.028781   
     80. D(C   6,N   2,C   1,N   0)   -178.1104         0.028781   
     81. D(H  13,C   3,N   2,C   6)     -2.0033         0.028431   
     82. D(C   4,C   3,N   2,C   1)      0.4619         0.028431   
     83. D(H  13,C   3,N   2,C   1)   -179.5882         0.028431   
     84. D(C   4,C   3,N   2,C   6)    178.0468         0.028431   
     85. D(H  14,C   4,C   3,N   2)    179.6500         0.036308   
     86. D(H  14,C   4,N   0,C   5)     -0.6629         0.029173   
     87. D(N   0,C   4,C   3,N   2)     -0.3154         0.036308   
     88. D(N   0,C   4,C   3,H  13)    179.7384         0.036308   
     89. D(C   3,C   4,N   0,C   5)    179.3058         0.029173   
     90. D(C   3,C   4,N   0,C   1)      0.0760         0.029173   
     91. D(H  14,C   4,C   3,H  13)     -0.2962         0.036308   
     92. D(H  14,C   4,N   0,C   1)   -179.8928         0.029173   
     93. D(H   8,C   5,N   0,C   4)      3.4640         0.017957   
     94. D(C   9,C   5,N   0,C   4)   -115.4241         0.017957   
     95. D(H   8,C   5,N   0,C   1)   -177.3914         0.017957   
     96. D(C   9,C   5,N   0,C   1)     63.7205         0.017957   
     97. D(C   7,C   5,N   0,C   4)    122.4810         0.017957   
     98. D(C   7,C   5,N   0,C   1)    -58.3743         0.017957   
     99. D(C  12,C   6,N   2,C   3)     19.3270         0.017124   
    100. D(C  11,C   6,N   2,C   3)    142.0648         0.017124   
    101. D(C  11,C   6,N   2,C   1)    -40.5840         0.017124   
    102. D(C  12,C   6,N   2,C   1)   -163.3217         0.017124   
    103. D(H  10,C   6,N   2,C   3)   -100.3304         0.017124   
    104. D(H  10,C   6,N   2,C   1)     77.0208         0.017124   
    105. D(H  18,C   7,C   5,H   8)    176.9997         0.011309   
    106. D(H  18,C   7,C   5,N   0)     59.1739         0.011309   
    107. D(H  18,C   7,C   5,C   9)    -62.1824         0.011309   
    108. D(H  20,C   7,C   5,C   9)     58.1229         0.011309   
    109. D(H  20,C   7,C   5,H   8)    -62.6950         0.011309   
    110. D(H  20,C   7,C   5,N   0)    179.4792         0.011309   
    111. D(H  19,C   7,C   5,C   9)    178.5349         0.011309   
    112. D(H  19,C   7,C   5,H   8)     57.7169         0.011309   
    113. D(H  19,C   7,C   5,N   0)    -60.1088         0.011309   
    114. D(H  17,C   9,C   5,H   8)     62.3635         0.011242   
    115. D(H  17,C   9,C   5,C   7)    -58.4987         0.011242   
    116. D(H  17,C   9,C   5,N   0)   -179.8959         0.011242   
    117. D(H  16,C   9,C   5,H   8)   -177.3741         0.011242   
    118. D(H  16,C   9,C   5,C   7)     61.7637         0.011242   
    119. D(H  16,C   9,C   5,N   0)    -59.6336         0.011242   
    120. D(H  15,C   9,C   5,H   8)    -58.0294         0.011242   
    121. D(H  15,C   9,C   5,C   7)   -178.8916         0.011242   
    122. D(H  15,C   9,C   5,N   0)     59.7111         0.011242   
    123. D(H  26,C  11,C   6,H  10)    -64.2420         0.011274   
    124. D(H  26,C  11,C   6,N   2)     53.1022         0.011274   
    125. D(H  25,C  11,C   6,C  12)    -62.5915         0.011274   
    126. D(H  25,C  11,C   6,H  10)     56.3329         0.011274   
    127. D(H  25,C  11,C   6,N   2)    173.6770         0.011274   
    128. D(H  24,C  11,C   6,C  12)     57.7238         0.011274   
    129. D(H  24,C  11,C   6,H  10)    176.6482         0.011274   
    130. D(H  26,C  11,C   6,C  12)    176.8337         0.011274   
    131. D(H  24,C  11,C   6,N   2)    -66.0077         0.011274   
    132. D(H  23,C  12,C   6,N   2)    174.5103         0.011433   
    133. D(H  22,C  12,C   6,C  11)    171.8595         0.011433   
    134. D(H  22,C  12,C   6,H  10)     53.0811         0.011433   
    135. D(H  22,C  12,C   6,N   2)    -66.1941         0.011433   
    136. D(H  21,C  12,C   6,C  11)    -66.6391         0.011433   
    137. D(H  21,C  12,C   6,H  10)    174.5825         0.011433   
    138. D(H  23,C  12,C   6,H  10)    -66.2145         0.011433   
    139. D(H  21,C  12,C   6,N   2)     55.3073         0.011433   
    140. D(H  23,C  12,C   6,C  11)     52.5639         0.011433   
    -----------------------------------------------------------------

Number of atoms                         .... 27
Number of degrees of freedom            .... 140

         *************************************************************
         *                GEOMETRY OPTIMIZATION CYCLE   1            *
         *************************************************************
---------------------------------
CARTESIAN COORDINATES (ANGSTROEM)
---------------------------------
  N     -1.111625   -0.295463   -0.192385
  C     -0.102249    0.343285    0.451466
  N      1.012000   -0.306546    0.021958
  C      0.700069   -1.319571   -0.851650
  C     -0.645534   -1.307880   -0.989567
  C     -2.500251    0.075644   -0.052626
  C      2.336138    0.037353    0.504020
  C     -2.913321   -0.013592    1.415641
  H     -3.093708   -0.634226   -0.643604
  C     -2.712442    1.489343   -0.594342
  H      2.452244   -0.389530    1.512487
  C      2.451094    1.557809    0.607807
  C      3.438035   -0.521717   -0.392008
  H      1.424642   -1.962174   -1.305638
  H     -1.290953   -1.927285   -1.580087
  H     -2.434379    1.539157   -1.644981
  H     -2.087814    2.181982   -0.036761
  H     -3.754013    1.782373   -0.493561
  H     -2.286348    0.652074    2.002362
  H     -2.783496   -1.028241    1.785686
  H     -3.954920    0.272490    1.534662
  H      3.295059   -0.193645   -1.419830
  H      3.461572   -1.608758   -0.365564
  H      4.401397   -0.156623   -0.044878
  H      2.399340    2.004276   -0.382470
  H      3.394368    1.833501    1.071639
  H      1.627302    1.940929    1.202258

----------------------------
CARTESIAN COORDINATES (A.U.)
----------------------------
  NO LB      ZA    FRAG     MASS         X           Y           Z
   0 N     7.0000    0    14.007   -2.100667   -0.558343   -0.363554
   1 C     6.0000    0    12.011   -0.193222    0.648714    0.853147
   2 N     7.0000    0    14.007    1.912403   -0.579288    0.041495
   3 C     6.0000    0    12.011    1.322939   -2.493628   -1.609385
   4 C     6.0000    0    12.011   -1.219883   -2.471535   -1.870011
   5 C     6.0000    0    12.011   -4.724789    0.142946   -0.099449
   6 C     6.0000    0    12.011    4.414662    0.070587    0.952459
   7 C     6.0000    0    12.011   -5.505379   -0.025685    2.675173
   8 H     1.0000    0     1.008   -5.846261   -1.198513   -1.216235
   9 C     6.0000    0    12.011   -5.125772    2.814451   -1.123143
  10 H     1.0000    0     1.008    4.634069   -0.736105    2.858187
  11 C     6.0000    0    12.011    4.631896    2.943832    1.148590
  12 C     6.0000    0    12.011    6.496944   -0.985902   -0.740787
  13 H     1.0000    0     1.008    2.692184   -3.707971   -2.467299
  14 H     1.0000    0     1.008   -2.439547   -3.642040   -2.985932
  15 H     1.0000    0     1.008   -4.600309    2.908586   -3.108564
  16 H     1.0000    0     1.008   -3.945397    4.123348   -0.069469
  17 H     1.0000    0     1.008   -7.094057    3.368196   -0.932695
  18 H     1.0000    0     1.008   -4.320571    1.232241    3.783915
  19 H     1.0000    0     1.008   -5.260046   -1.943094    3.374458
  20 H     1.0000    0     1.008   -7.473717    0.514932    2.900090
  21 H     1.0000    0     1.008    6.226759   -0.365936   -2.683090
  22 H     1.0000    0     1.008    6.541423   -3.040112   -0.690816
  23 H     1.0000    0     1.008    8.317435   -0.295976   -0.084807
  24 H     1.0000    0     1.008    4.534095    3.787533   -0.722764
  25 H     1.0000    0     1.008    6.414425    3.464814    2.025104
  26 H     1.0000    0     1.008    3.075154    3.667824    2.271939

--------------------------------
INTERNAL COORDINATES (ANGSTROEM)
--------------------------------
 N      0   0   0     0.000000000000     0.00000000     0.00000000
 C      1   0   0     1.356975381153     0.00000000     0.00000000
 N      2   1   0     1.359524804920   103.57699692     0.00000000
 C      3   2   1     1.373575954630   111.55076762   359.59785133
 C      4   3   2     1.352703412055   106.52142383     0.46187130
 C      1   2   3     1.444137489054   123.25527617   180.95128899
 C      3   2   1     1.450514489444   121.99616367   181.88962718
 C      6   1   2     1.527873432008   109.75242588   301.62566726
 H      6   1   2     1.097889697833   107.54881697   182.60862625
 C      6   1   2     1.528733741474   109.68267765    63.72053107
 H      7   3   2     1.101234134899   107.97991531    77.02083893
 C      7   3   2     1.528323462464   109.09283306   319.41602118
 C      7   3   2     1.526302580508   112.15383545   196.67826969
 H      4   3   2     1.069602983172   124.00040638   180.41179381
 H      5   4   3     1.071886261011   130.55280562   179.65003284
 H     10   6   1     1.087953737887   110.43034090    59.71108271
 H     10   6   1     1.086648024490   109.13720243   300.36640912
 H     10   6   1     1.086689993689   110.45904352   180.10406824
 H      8   6   1     1.086484471825   109.09606907    59.17391607
 H      8   6   1     1.087796649383   110.43344922   299.89117142
 H      8   6   1     1.086709597549   110.42675365   179.47918389
 H     13   7   3     1.088343482198   110.43570703    55.30732359
 H     13   7   3     1.087617629443   111.55823067   293.80587341
 H     13   7   3     1.087133863650   109.22516052   174.51032140
 H     12   7   3     1.087502175913   110.06050559   293.99232595
 H     12   7   3     1.086697438403   110.28351051   173.67698753
 H     12   7   3     1.085719174090   109.33956725    53.10215691

---------------------------
INTERNAL COORDINATES (A.U.)
---------------------------
 N      0   0   0     0.000000000000     0.00000000     0.00000000
 C      1   0   0     2.564311840852     0.00000000     0.00000000
 N      2   1   0     2.569129553571   103.57699692     0.00000000
 C      3   2   1     2.595682378390   111.55076762   359.59785133
 C      4   3   2     2.556238989205   106.52142383     0.46187130
 C      1   2   3     2.729024354040   123.25527617   180.95128899
 C      3   2   1     2.741075138333   121.99616367   181.88962718
 C      6   1   2     2.887262353790   109.75242588   301.62566726
 H      6   1   2     2.074710854158   107.54881697   182.60862625
 C      6   1   2     2.888888103072   109.68267765    63.72053107
 H      7   3   2     2.081030924284   107.97991531    77.02083893
 C      7   3   2     2.888112788104   109.09283306   319.41602118
 C      7   3   2     2.884293874658   112.15383545   196.67826969
 H      4   3   2     2.021256710220   124.00040638   180.41179381
 H      5   4   3     2.025571480024   130.55280562   179.65003284
 H     10   6   1     2.055934610982   110.43034090    59.71108271
 H     10   6   1     2.053467170252   109.13720243   300.36640912
 H     10   6   1     2.053546480545   110.45904352   180.10406824
 H      8   6   1     2.053158100507   109.09606907    59.17391607
 H      8   6   1     2.055637756731   110.43344922   299.89117142
 H      8   6   1     2.053583526471   110.42675365   179.47918389
 H     13   7   3     2.056671120992   110.43570703    55.30732359
 H     13   7   3     2.055299458072   111.55823067   293.80587341
 H     13   7   3     2.054385273209   109.22516052   174.51032140
 H     12   7   3     2.055081282519   110.06050559   293.99232595
 H     12   7   3     2.053560549016   110.28351051   173.67698753
 H     12   7   3     2.051711897377   109.33956725    53.10215691

---------------------
BASIS SET INFORMATION
---------------------
There are 3 groups of distinct atoms

 Group   1 Type N   : 7s4p1d contracted to 3s2p1d pattern {511/31/1}
 Group   2 Type C   : 7s4p1d contracted to 3s2p1d pattern {511/31/1}
 Group   3 Type H   : 4s1p contracted to 2s1p pattern {31/1}

Atom   0N    basis set group =>   1
Atom   1C    basis set group =>   2
Atom   2N    basis set group =>   1
Atom   3C    basis set group =>   2
Atom   4C    basis set group =>   2
Atom   5C    basis set group =>   2
Atom   6C    basis set group =>   2
Atom   7C    basis set group =>   2
Atom   8H    basis set group =>   3
Atom   9C    basis set group =>   2
Atom  10H    basis set group =>   3
Atom  11C    basis set group =>   2
Atom  12C    basis set group =>   2
Atom  13H    basis set group =>   3
Atom  14H    basis set group =>   3
Atom  15H    basis set group =>   3
Atom  16H    basis set group =>   3
Atom  17H    basis set group =>   3
Atom  18H    basis set group =>   3
Atom  19H    basis set group =>   3
Atom  20H    basis set group =>   3
Atom  21H    basis set group =>   3
Atom  22H    basis set group =>   3
Atom  23H    basis set group =>   3
Atom  24H    basis set group =>   3
Atom  25H    basis set group =>   3
Atom  26H    basis set group =>   3
---------------------------------
AUXILIARY/J BASIS SET INFORMATION
---------------------------------
There are 3 groups of distinct atoms

 Group   1 Type N   : 12s5p4d2f1g contracted to 6s4p3d1f1g pattern {711111/2111/211/2/1}
 Group   2 Type C   : 12s5p4d2f1g contracted to 6s4p3d1f1g pattern {711111/2111/211/2/1}
 Group   3 Type H   : 5s2p1d contracted to 3s1p1d pattern {311/2/1}

Atom   0N    basis set group =>   1
Atom   1C    basis set group =>   2
Atom   2N    basis set group =>   1
Atom   3C    basis set group =>   2
Atom   4C    basis set group =>   2
Atom   5C    basis set group =>   2
Atom   6C    basis set group =>   2
Atom   7C    basis set group =>   2
Atom   8H    basis set group =>   3
Atom   9C    basis set group =>   2
Atom  10H    basis set group =>   3
Atom  11C    basis set group =>   2
Atom  12C    basis set group =>   2
Atom  13H    basis set group =>   3
Atom  14H    basis set group =>   3
Atom  15H    basis set group =>   3
Atom  16H    basis set group =>   3
Atom  17H    basis set group =>   3
Atom  18H    basis set group =>   3
Atom  19H    basis set group =>   3
Atom  20H    basis set group =>   3
Atom  21H    basis set group =>   3
Atom  22H    basis set group =>   3
Atom  23H    basis set group =>   3
Atom  24H    basis set group =>   3
Atom  25H    basis set group =>   3
Atom  26H    basis set group =>   3
------------------------------------------------------------------------------
                           ORCA GTO INTEGRAL CALCULATION
                           -- RI-GTO INTEGRALS CHOSEN --
------------------------------------------------------------------------------
------------------------------------------------------------------------------
                   ___                                                        
                  /   \      - P O W E R E D   B Y -                         
                 /     \                                                     
                 |  |  |   _    _      __       _____    __    __             
                 |  |  |  | |  | |    /  \     |  _  \  |  |  /  |          
                  \  \/   | |  | |   /    \    | | | |  |  | /  /          
                 / \  \   | |__| |  /  /\  \   | |_| |  |  |/  /          
                |  |  |   |  __  | /  /__\  \  |    /   |      \           
                |  |  |   | |  | | |   __   |  |    \   |  |\   \          
                \     /   | |  | | |  |  |  |  | |\  \  |  | \   \       
                 \___/    |_|  |_| |__|  |__|  |_| \__\ |__|  \__/        
                                                                              
                      - O R C A' S   B I G   F R I E N D -                    
                                      &                                       
                       - I N T E G R A L  F E E D E R -                       
                                                                              
 v1 FN, 2020, v2 2021                                                         
------------------------------------------------------------------------------


Reading SHARK input file 4_deprot_aq_9.SHARKINP.tmp ... ok
----------------------
SHARK INTEGRAL PACKAGE
----------------------

Number of atoms                             ...     27
Number of basis functions                   ...    234
Number of shells                            ...    114
Maximum angular momentum                    ...      2
Integral batch strategy                     ... SHARK/LIBINT Hybrid
RI-J (if used) integral strategy            ... SPLIT-RIJ (Revised 2003 algorithm where possible)
Printlevel                                  ...      1
Contraction scheme used                     ... SEGMENTED contraction
Coulomb Range Separation                    ... NOT USED
Exchange Range Separation                   ... Long Range
   Mu parameter                             ...  0.300000
   Scaling (regular/separated)              ...  0.157706  0.842294
Finite Nucleus Model                        ... NOT USED
Auxiliary Coulomb fitting basis             ... AVAILABLE
   # of basis functions in Aux-J            ...    715
   # of shells in Aux-J                     ...    245
   Maximum angular momentum in Aux-J        ...      4
Auxiliary J/K fitting basis                 ... NOT available
Auxiliary Correlation fitting basis         ... NOT available
Auxiliary 'external' fitting basis          ... NOT available
Integral threshold                          ...     2.500000e-11
Primitive cut-off                           ...     2.500000e-12
Primitive pair pre-selection threshold      ...     2.500000e-12

Calculating pre-screening integrals         ... done (  0.0 sec) Dimension = 114
Organizing shell pair data                  ... done (  0.0 sec)
Shell pair information
Total number of shell pairs                 ...      6555
Shell pairs after pre-screening             ...      5737
Total number of primitive shell pairs       ...     22769
Primitive shell pairs kept                  ...     14120
          la=0 lb=0:   1933 shell pairs
          la=1 lb=0:   2152 shell pairs
          la=1 lb=1:    627 shell pairs
          la=2 lb=0:    619 shell pairs
          la=2 lb=1:    349 shell pairs
          la=2 lb=2:     57 shell pairs

Calculating one electron integrals          ... done (  0.0 sec)
Calculating RI/J V-Matrix + Cholesky decomp.... done (  0.0 sec)
Calculating Nuclear repulsion               ... done (  0.0 sec) ENN=    639.341220103624 Eh

SHARK setup successfully completed in   0.3 seconds

Maximum memory used throughout the entire GTOINT-calculation: 35.5 MB
-------------------------------------------------------------------------------
                                 ORCA SCF
-------------------------------------------------------------------------------

------------
SCF SETTINGS
------------
Hamiltonian:
 Density Functional     Method          .... DFT(GTOs)
 Exchange Functional    Exchange        .... WB97X
 Correlation Functional Correlation     .... WB97X
 Gradients option       PostSCFGGA      .... off
 Hybrid DFT is turned on
   Fraction HF Exchange ScalHFX         ....  0.157706
   Scaling of DF-GGA-X  ScalDFX         ....  0.000000
   Scaling of DF-GGA-C  ScalDFC         ....  1.000000
   Scaling of DF-LDA-C  ScalLDAC        ....  1.000000
   Perturbative correction              ....  0.000000
   Density functional embedding theory  .... OFF
 Long-range corrected/Screened/Range-Separated Hybrid DFT is turned on
   Amount of maximum screened exact exchange              ....  0.842294
   Range separation parameter mu (erf(mu*r12)/r12)        ....  0.300000
 RI-approximation to the Coulomb term is turned on
   Number of AuxJ basis functions       .... 715
   RIJ-COSX (HFX calculated with COS-X)).... on


General Settings:
 Integral files         IntName         .... 4_deprot_aq_9
 Hartree-Fock type      HFTyp           .... RHF
 Total Charge           Charge          ....    0
 Multiplicity           Mult            ....    1
 Number of Electrons    NEL             ....   84
 Basis Dimension        Dim             ....  234
 Nuclear Repulsion      ENuc            ....    639.3412201036 Eh

Convergence Acceleration:
 DIIS                   CNVDIIS         .... on
   Start iteration      DIISMaxIt       ....     0
   Startup error        DIISStart       ....  0.200000
   # of expansion vecs  DIISMaxEq       ....     5
   Bias factor          DIISBfac        ....   1.050
   Max. coefficient     DIISMaxC        ....  10.000
 Trust-Rad. Augm. Hess. CNVTRAH         .... auto
   Auto Start mean grad. ratio tolernc. ....  1.125000
   Auto Start start iteration           ....    20
   Auto Start num. interpolation iter.  ....    10
   Max. Number of Micro iterations      ....    16
   Max. Number of Macro iterations      .... Maxiter - #DIIS iter
   Number of Davidson start vectors     ....     2
   Converg. threshold I  (grad. norm)   ....   1.000e-05
   Converg. threshold II (energy diff.) ....   1.000e-08
   Grad. Scal. Fac. for Micro threshold ....   0.100
   Minimum threshold for Micro iter.    ....   0.010
   NR start threshold (gradient norm)   ....   0.001
   Initial trust radius                 ....   0.400
   Minimum AH scaling param. (alpha)    ....   1.000
   Maximum AH scaling param. (alpha)    .... 1000.000
   Orbital update algorithm             .... Taylor
   White noise on init. David. guess    .... on
   Maximum white noise                  ....   0.010
   Quad. conv. algorithm                .... NR
 SOSCF                  CNVSOSCF        .... on
   Start iteration      SOSCFMaxIt      ....   150
   Startup grad/error   SOSCFStart      ....  0.001000
 Level Shifting         CNVShift        .... on
   Level shift para.    LevelShift      ....    0.2500
   Turn off err/grad.   ShiftErr        ....    0.0000
 Zerner damping         CNVZerner       .... off
 Static damping         CNVDamp         .... on
   Fraction old density DampFac         ....    0.8500
   Max. Damping (<1)    DampMax         ....    0.9800
   Min. Damping (>=0)   DampMin         ....    0.0000
   Turn off err/grad.   DampErr         ....    0.0300
 Fernandez-Rico         CNVRico         .... off

SCF Procedure:
 Maximum # iterations   MaxIter         ....   125
 SCF integral mode      SCFMode         .... Direct
   Integral package                     .... SHARK and LIBINT hybrid scheme
 Reset frequency        DirectResetFreq ....    20
 Integral Threshold     Thresh          ....  2.500e-11 Eh
 Primitive CutOff       TCut            ....  2.500e-12 Eh

Convergence Tolerance:
 Convergence Check Mode ConvCheckMode   .... Total+1el-Energy
 Convergence forced     ConvForced      .... 0
 Energy Change          TolE            ....  1.000e-08 Eh
 1-El. energy change                    ....  1.000e-05 Eh
 Orbital Gradient       TolG            ....  1.000e-05
 Orbital Rotation angle TolX            ....  1.000e-05
 DIIS Error             TolErr          ....  5.000e-07


Diagonalization of the overlap matrix:
Smallest eigenvalue                        ... 1.309e-03
Time for diagonalization                   ...    0.009 sec
Threshold for overlap eigenvalues          ... 1.000e-08
Number of eigenvalues below threshold      ... 0
Time for construction of square roots      ...    0.011 sec
Total time needed                          ...    0.021 sec

Time for model grid setup =    0.458 sec

------------------------------
INITIAL GUESS: MODEL POTENTIAL
------------------------------
Loading Hartree-Fock densities                     ... done
Calculating cut-offs                               ... done
Initializing the effective Hamiltonian             ... done
Setting up the integral package (SHARK)            ... done
Starting the Coulomb interaction                   ... done (   0.5 sec)
Reading the grid                                   ... done
Mapping shells                                     ... done
Starting the XC term evaluation                    ... done (   0.5 sec)
  promolecular density results
     # of electrons  =     83.990357702
     EX              =    -63.902219247
     EC              =     -2.784337215
     EX+EC           =    -66.686556463
Transforming the Hamiltonian                       ... done (   0.0 sec)
Diagonalizing the Hamiltonian                      ... done (   0.0 sec)
Back transforming the eigenvectors                 ... done (   0.0 sec)
Now organizing SCF variables                       ... done
                      ------------------
                      INITIAL GUESS DONE (   1.5 sec)
                      ------------------
-------------------
DFT GRID GENERATION
-------------------

General Integration Accuracy     IntAcc      ... 4.388
Radial Grid Type                 RadialGrid  ... OptM3 with GC (2021)
Angular Grid (max. ang.)         AngularGrid ... 4 (Lebedev-302)
Angular grid pruning method      GridPruning ... 4 (adaptive)
Weight generation scheme         WeightScheme... Becke
Basis function cutoff            BFCut       ... 1.0000e-11
Integration weight cutoff        WCut        ... 1.0000e-14
Angular grids for H and He will be reduced by one unit
Partially contracted basis set               ... off
Rotationally invariant grid construction     ... off

Total number of grid points                  ...   116963
Total number of batches                      ...     1844
Average number of points per batch           ...       63
Average number of grid points per atom       ...     4332
Time for grid setup =    1.685 sec

--------------------
COSX GRID GENERATION
--------------------

GRIDX 1
-------
General Integration Accuracy     IntAcc      ... 3.816
Radial Grid Type                 RadialGrid  ... OptM3 with GC (2021)
Angular Grid (max. ang.)         AngularGrid ... 1 (Lebedev-50)
Angular grid pruning method      GridPruning ... 4 (adaptive)
Weight generation scheme         WeightScheme... Becke
Basis function cutoff            BFCut       ... 1.0000e-11
Integration weight cutoff        WCut        ... 1.0000e-14
Angular grids for H and He will be reduced by one unit
Partially contracted basis set               ... on
Rotationally invariant grid construction     ... off

Total number of grid points                  ...    14943
Total number of batches                      ...      248
Average number of points per batch           ...       60
Average number of grid points per atom       ...      553
UseSFitting                                  ... on

GRIDX 2
-------
General Integration Accuracy     IntAcc      ... 4.020
Radial Grid Type                 RadialGrid  ... OptM3 with GC (2021)
Angular Grid (max. ang.)         AngularGrid ... 2 (Lebedev-110)
Angular grid pruning method      GridPruning ... 4 (adaptive)
Weight generation scheme         WeightScheme... Becke
Basis function cutoff            BFCut       ... 1.0000e-11
Integration weight cutoff        WCut        ... 1.0000e-14
Angular grids for H and He will be reduced by one unit
Partially contracted basis set               ... on
Rotationally invariant grid construction     ... off

Total number of grid points                  ...    31397
Total number of batches                      ...      506
Average number of points per batch           ...       62
Average number of grid points per atom       ...     1163
UseSFitting                                  ... on

GRIDX 3
-------
General Integration Accuracy     IntAcc      ... 4.338
Radial Grid Type                 RadialGrid  ... OptM3 with GC (2021)
Angular Grid (max. ang.)         AngularGrid ... 3 (Lebedev-194)
Angular grid pruning method      GridPruning ... 4 (adaptive)
Weight generation scheme         WeightScheme... Becke
Basis function cutoff            BFCut       ... 1.0000e-11
Integration weight cutoff        WCut        ... 1.0000e-14
Angular grids for H and He will be reduced by one unit
Partially contracted basis set               ... on
Rotationally invariant grid construction     ... off

Total number of grid points                  ...    68489
Total number of batches                      ...     1084
Average number of points per batch           ...       63
Average number of grid points per atom       ...     2537
UseSFitting                                  ... on

Time for X-Grid setup             =    2.177 sec


--------------------
CPCM SOLVATION MODEL
--------------------
CPCM parameters:
  Epsilon                                         ...      80.4000
  Refrac                                          ...       1.3300
  Rsolv                                           ...       1.3000
  Surface type                                    ... GAUSSIAN VDW
  Epsilon function type                           ...         CPCM
Radii:
 Radius for N  used is    3.5149 Bohr (=   1.8600 Ang.)
 Radius for C  used is    3.8550 Bohr (=   2.0400 Ang.)
 Radius for H  used is    2.4944 Bohr (=   1.3200 Ang.)
Calculating surface                               ...        done! (  0.0s)
GEPOL surface points                              ...         1432
GEPOL Volume                                      ...    1426.3911
GEPOL Surface-area                                ...     786.2604
Calculating surface distance matrix               ...        done! (  0.0s)
Performing Cholesky decomposition & store         ...        done! (  0.1s)
Overall time for CPCM initialization              ...                 0.1s
--------------
SCF ITERATIONS
--------------
ITER       Energy         Delta-E        Max-DP      RMS-DP      [F,P]     Damp
               ***  Starting incremental Fock matrix formation  ***
  0   -461.3609939164   0.000000000000 0.03688408  0.00073824  0.1603953 0.8500
  1   -461.4139827569  -0.052988840469 0.03944114  0.00070626  0.1294617 0.8500
                               ***Turning on DIIS***
  2   -461.4545491693  -0.040566412438 0.03472134  0.00058140  0.0996230 0.8500
  3   -461.4848150094  -0.030265840061 0.02823436  0.00041615  0.0757163 0.8500
  4   -461.5081949491  -0.023379939664 0.02331222  0.00031852  0.0603977 0.8500
  5   -461.5266193487  -0.018424399694 0.01964344  0.00026071  0.0500050 0.8500
  6   -461.5415818662  -0.014962517478 0.01672101  0.00021967  0.0420960 0.8500
  7   -461.5539483328  -0.012366466549 0.01437165  0.00018900  0.0356744 0.8500
  8   -461.5642778352  -0.010329502406 0.01238212  0.00016275  0.0301862 0.8500
  9   -461.5729302961  -0.008652460899 0.07097396  0.00093037  0.0254909 0.0000
 10   -461.6197594117  -0.046829115585 0.00134670  0.00003261  0.0011754 0.0000
                      *** Initiating the SOSCF procedure ***
                           *** Shutting down DIIS ***
                      *** Re-Reading the Fockian *** 
                      *** Removing any level shift *** 
ITER      Energy       Delta-E        Grad      Rot      Max-DP    RMS-DP
 11   -461.61977556  -0.0000161527  0.000245  0.000245  0.000471  0.000016
               *** Restarting incremental Fock matrix formation ***
 12   -461.61973791   0.0000376592  0.000159  0.000361  0.000448  0.000012
 13   -461.61973851  -0.0000006062  0.000056  0.000274  0.000290  0.000009
 14   -461.61973862  -0.0000001057  0.000025  0.000024  0.000078  0.000002
 15   -461.61973865  -0.0000000361  0.000004  0.000005  0.000044  0.000001
                  ***Gradient check signals convergence***
              ***Rediagonalizing the Fockian in SOSCF/NRSCF***

               *****************************************************
               *                     SUCCESS                       *
               *           SCF CONVERGED AFTER  16 CYCLES          *
               *****************************************************

Old exchange energy                            =    -21.383457294 Eh
New exchange energy                            =    -21.383503122 Eh
Exchange energy change after final integration =     -0.000045828 Eh
Total energy after final integration           =   -461.619784492 Eh
Final COS-X integration done in                =    56.967 sec

----------------
TOTAL SCF ENERGY
----------------

Total Energy       :         -461.61978449 Eh          -12561.31294 eV

Components:
Nuclear Repulsion  :          639.34122010 Eh           17397.35906 eV
Electronic Energy  :        -1100.96100460 Eh          -29958.67200 eV
One Electron Energy:        -1890.33175179 Eh          -51438.54205 eV
Two Electron Energy:          789.37074719 Eh           21479.87005 eV
Max COSX asymmetry :            0.00000423 Eh               0.00011 eV
CPCM Dielectric    :           -0.01307749 Eh              -0.35586 eV

Virial components:
Potential Energy   :         -918.05732809 Eh          -24981.60994 eV
Kinetic Energy     :          456.43754360 Eh           12420.29700 eV
Virial Ratio       :            2.01135367


DFT components:
N(Alpha)           :       42.000024663440 electrons
N(Beta)            :       42.000024663440 electrons
N(Total)           :       84.000049326879 electrons
E(XC)              :      -47.166365564645 Eh       
DFET-embed. en.    :        0.000000000000 Eh       
CPCM Solvation Model Properties:
Surface-charge          :           -0.02637560
Charge-correction       :           -0.00036844 Eh              -0.01003 eV
Free-energy (cav+disp)  :  This term is not implemented in the current solvation scheme

---------------
SCF CONVERGENCE
---------------

  Last Energy change         ...   -1.1388e-08  Tolerance :   1.0000e-08
  Last MAX-Density change    ...    7.5495e-15  Tolerance :   1.0000e-07
  Last RMS-Density change    ...    5.4057e-17  Tolerance :   5.0000e-09
  Last Orbital Gradient      ...    2.1973e-06  Tolerance :   1.0000e-05
  Last Orbital Rotation      ...    4.8724e-06  Tolerance :   1.0000e-05

             **** THE GBW FILE WAS UPDATED (4_deprot_aq_9.gbw) ****
             **** DENSITY 4_deprot_aq_9.scfp WAS UPDATED ****
             **** ENERGY FILE WAS UPDATED (4_deprot_aq_9.en.tmp) ****
             **** THE GBW FILE WAS UPDATED (4_deprot_aq_9.gbw) ****
             **** DENSITY 4_deprot_aq_9.scfp WAS UPDATED ****
----------------
ORBITAL ENERGIES
----------------

  NO   OCC          E(Eh)            E(eV) 
   0   2.0000     -14.447588      -393.1389 
   1   2.0000     -14.445285      -393.0762 
   2   2.0000     -10.306631      -280.4577 
   3   2.0000     -10.305916      -280.4382 
   4   2.0000     -10.289401      -279.9888 
   5   2.0000     -10.288798      -279.9724 
   6   2.0000     -10.270459      -279.4734 
   7   2.0000     -10.260127      -279.1922 
   8   2.0000     -10.254699      -279.0445 
   9   2.0000     -10.254332      -279.0346 
  10   2.0000     -10.251709      -278.9632 
  11   2.0000      -1.152018       -31.3480 
  12   2.0000      -1.046987       -28.4900 
  13   2.0000      -0.937861       -25.5205 
  14   2.0000      -0.885158       -24.0864 
  15   2.0000      -0.861870       -23.4527 
  16   2.0000      -0.807987       -21.9865 
  17   2.0000      -0.806731       -21.9523 
  18   2.0000      -0.774098       -21.0643 
  19   2.0000      -0.729084       -19.8394 
  20   2.0000      -0.688397       -18.7322 
  21   2.0000      -0.657185       -17.8829 
  22   2.0000      -0.634326       -17.2609 
  23   2.0000      -0.591080       -16.0841 
  24   2.0000      -0.575429       -15.6582 
  25   2.0000      -0.562706       -15.3120 
  26   2.0000      -0.554272       -15.0825 
  27   2.0000      -0.546856       -14.8807 
  28   2.0000      -0.527605       -14.3569 
  29   2.0000      -0.508131       -13.8269 
  30   2.0000      -0.500850       -13.6288 
  31   2.0000      -0.490757       -13.3542 
  32   2.0000      -0.489972       -13.3328 
  33   2.0000      -0.479838       -13.0571 
  34   2.0000      -0.472021       -12.8444 
  35   2.0000      -0.457742       -12.4558 
  36   2.0000      -0.444830       -12.1044 
  37   2.0000      -0.441254       -12.0071 
  38   2.0000      -0.438043       -11.9198 
  39   2.0000      -0.370146       -10.0722 
  40   2.0000      -0.319653        -8.6982 
  41   2.0000      -0.315447        -8.5838 
  42   0.0000       0.122356         3.3295 
  43   0.0000       0.129896         3.5347 
  44   0.0000       0.156233         4.2513 
  45   0.0000       0.161329         4.3900 
  46   0.0000       0.184871         5.0306 
  47   0.0000       0.195646         5.3238 
  48   0.0000       0.201790         5.4910 
  49   0.0000       0.205590         5.5944 
  50   0.0000       0.211527         5.7559 
  51   0.0000       0.216376         5.8879 
  52   0.0000       0.222867         6.0645 
  53   0.0000       0.240690         6.5495 
  54   0.0000       0.245121         6.6701 
  55   0.0000       0.256404         6.9771 
  56   0.0000       0.261327         7.1111 
  57   0.0000       0.265115         7.2141 
  58   0.0000       0.276196         7.5157 
  59   0.0000       0.277459         7.5500 
  60   0.0000       0.279123         7.5953 
  61   0.0000       0.284394         7.7388 
  62   0.0000       0.309203         8.4138 
  63   0.0000       0.320063         8.7094 
  64   0.0000       0.331577         9.0227 
  65   0.0000       0.346610         9.4317 
  66   0.0000       0.358012         9.7420 
  67   0.0000       0.373492        10.1632 
  68   0.0000       0.399216        10.8632 
  69   0.0000       0.445269        12.1164 
  70   0.0000       0.456166        12.4129 
  71   0.0000       0.489182        13.3113 
  72   0.0000       0.496438        13.5088 
  73   0.0000       0.507691        13.8150 
  74   0.0000       0.517059        14.0699 
  75   0.0000       0.521979        14.2038 
  76   0.0000       0.525993        14.3130 
  77   0.0000       0.540431        14.7059 
  78   0.0000       0.572293        15.5729 
  79   0.0000       0.577807        15.7229 
  80   0.0000       0.605115        16.4660 
  81   0.0000       0.615678        16.7534 
  82   0.0000       0.635607        17.2957 
  83   0.0000       0.656271        17.8580 
  84   0.0000       0.668028        18.1780 
  85   0.0000       0.682866        18.5817 
  86   0.0000       0.690655        18.7937 
  87   0.0000       0.704849        19.1799 
  88   0.0000       0.714089        19.4314 
  89   0.0000       0.717704        19.5297 
  90   0.0000       0.738287        20.0898 
  91   0.0000       0.747606        20.3434 
  92   0.0000       0.750195        20.4138 
  93   0.0000       0.763037        20.7633 
  94   0.0000       0.769086        20.9279 
  95   0.0000       0.774893        21.0859 
  96   0.0000       0.780666        21.2430 
  97   0.0000       0.784526        21.3480 
  98   0.0000       0.786986        21.4150 
  99   0.0000       0.791434        21.5360 
 100   0.0000       0.804185        21.8830 
 101   0.0000       0.805295        21.9132 
 102   0.0000       0.808020        21.9873 
 103   0.0000       0.811894        22.0927 
 104   0.0000       0.819604        22.3026 
 105   0.0000       0.822501        22.3814 
 106   0.0000       0.826006        22.4768 
 107   0.0000       0.829565        22.5736 
 108   0.0000       0.840759        22.8782 
 109   0.0000       0.846297        23.0289 
 110   0.0000       0.847041        23.0492 
 111   0.0000       0.860465        23.4145 
 112   0.0000       0.865703        23.5570 
 113   0.0000       0.889497        24.2044 
 114   0.0000       0.919748        25.0276 
 115   0.0000       0.955042        25.9880 
 116   0.0000       1.006737        27.3947 
 117   0.0000       1.019985        27.7552 
 118   0.0000       1.054008        28.6810 
 119   0.0000       1.073564        29.2132 
 120   0.0000       1.115952        30.3666 
 121   0.0000       1.139778        31.0149 
 122   0.0000       1.154810        31.4240 
 123   0.0000       1.185878        32.2694 
 124   0.0000       1.193978        32.4898 
 125   0.0000       1.207991        32.8711 
 126   0.0000       1.243609        33.8403 
 127   0.0000       1.267534        34.4914 
 128   0.0000       1.310610        35.6635 
 129   0.0000       1.317294        35.8454 
 130   0.0000       1.338366        36.4188 
 131   0.0000       1.341463        36.5031 
 132   0.0000       1.368067        37.2270 
 133   0.0000       1.408541        38.3284 
 134   0.0000       1.418249        38.5925 
 135   0.0000       1.445496        39.3339 
 136   0.0000       1.480808        40.2948 
 137   0.0000       1.539692        41.8972 
 138   0.0000       1.551530        42.2193 
 139   0.0000       1.576734        42.9051 
 140   0.0000       1.594209        43.3806 
 141   0.0000       1.656443        45.0741 
 142   0.0000       1.662203        45.2308 
 143   0.0000       1.664313        45.2882 
 144   0.0000       1.674190        45.5570 
 145   0.0000       1.678647        45.6783 
 146   0.0000       1.704431        46.3799 
 147   0.0000       1.730296        47.0837 
 148   0.0000       1.756996        47.8103 
 149   0.0000       1.804579        49.1051 
 150   0.0000       1.821463        49.5645 
 151   0.0000       1.831632        49.8412 
 152   0.0000       1.842891        50.1476 
 153   0.0000       1.864307        50.7304 
 154   0.0000       1.883900        51.2635 
 155   0.0000       1.894747        51.5587 
 156   0.0000       1.899807        51.6964 
 157   0.0000       1.910042        51.9749 
 158   0.0000       1.925333        52.3910 
 159   0.0000       1.929393        52.5015 
 160   0.0000       1.933595        52.6158 
 161   0.0000       1.943625        52.8887 
 162   0.0000       1.954706        53.1903 
 163   0.0000       1.957339        53.2619 
 164   0.0000       1.962695        53.4076 
 165   0.0000       1.982947        53.9587 
 166   0.0000       1.997088        54.3435 
 167   0.0000       1.998197        54.3737 
 168   0.0000       2.001047        54.4513 
 169   0.0000       2.006865        54.6096 
 170   0.0000       2.010202        54.7004 
 171   0.0000       2.018687        54.9313 
 172   0.0000       2.051547        55.8254 
 173   0.0000       2.061417        56.0940 
 174   0.0000       2.068868        56.2968 
 175   0.0000       2.075992        56.4906 
 176   0.0000       2.093293        56.9614 
 177   0.0000       2.107663        57.3524 
 178   0.0000       2.125773        57.8452 
 179   0.0000       2.162614        58.8477 
 180   0.0000       2.183166        59.4070 
 181   0.0000       2.189822        59.5881 
 182   0.0000       2.221294        60.4445 
 183   0.0000       2.263184        61.5844 
 184   0.0000       2.274637        61.8960 
 185   0.0000       2.284281        62.1584 
 186   0.0000       2.314144        62.9711 
 187   0.0000       2.342839        63.7519 
 188   0.0000       2.365913        64.3798 
 189   0.0000       2.387649        64.9712 
 190   0.0000       2.402660        65.3797 
 191   0.0000       2.437143        66.3180 
 192   0.0000       2.470807        67.2341 
 193   0.0000       2.490794        67.7779 
 194   0.0000       2.499252        68.0081 
 195   0.0000       2.513766        68.4030 
 196   0.0000       2.516882        68.4878 
 197   0.0000       2.531850        68.8951 
 198   0.0000       2.548332        69.3436 
 199   0.0000       2.593834        70.5818 
 200   0.0000       2.622353        71.3579 
 201   0.0000       2.627998        71.5115 
 202   0.0000       2.630610        71.5825 
 203   0.0000       2.670885        72.6785 
 204   0.0000       2.689842        73.1943 
 205   0.0000       2.696336        73.3710 
 206   0.0000       2.720033        74.0159 
 207   0.0000       2.736360        74.4602 
 208   0.0000       2.828299        76.9619 
 209   0.0000       2.830137        77.0119 
 210   0.0000       2.833506        77.1036 
 211   0.0000       2.862167        77.8835 
 212   0.0000       2.878013        78.3147 
 213   0.0000       2.916882        79.3724 
 214   0.0000       2.936910        79.9174 
 215   0.0000       2.976403        80.9921 
 216   0.0000       2.980372        81.1000 
 217   0.0000       3.006887        81.8216 
 218   0.0000       3.017152        82.1009 
 219   0.0000       3.020216        82.1843 
 220   0.0000       3.043310        82.8127 
 221   0.0000       3.047783        82.9344 
 222   0.0000       3.060227        83.2730 
 223   0.0000       3.078857        83.7799 
 224   0.0000       3.095790        84.2407 
 225   0.0000       3.126396        85.0736 
 226   0.0000       3.158140        85.9374 
 227   0.0000       3.166351        86.1608 
 228   0.0000       3.180512        86.5461 
 229   0.0000       3.209105        87.3242 
 230   0.0000       3.326301        90.5132 
 231   0.0000       3.461710        94.1979 
 232   0.0000       3.493261        95.0565 
 233   0.0000       3.690996       100.4371 

                    ********************************
                    * MULLIKEN POPULATION ANALYSIS *
                    ********************************

-----------------------
MULLIKEN ATOMIC CHARGES
-----------------------
   0 N :   -0.199263
   1 C :   -0.187014
   2 N :   -0.212689
   3 C :    0.017829
   4 C :    0.022090
   5 C :   -0.013864
   6 C :    0.001300
   7 C :    0.012532
   8 H :    0.042731
   9 C :    0.013292
  10 H :    0.042443
  11 C :    0.007645
  12 C :   -0.018721
  13 H :    0.046919
  14 H :    0.050196
  15 H :    0.030297
  16 H :    0.020907
  17 H :    0.035522
  18 H :    0.019887
  19 H :    0.030245
  20 H :    0.035043
  21 H :    0.034792
  22 H :    0.046989
  23 H :    0.044401
  24 H :    0.020583
  25 H :    0.032177
  26 H :    0.023732
Sum of atomic charges:   -0.0000000

--------------------------------
MULLIKEN REDUCED ORBITAL CHARGES
--------------------------------
  0 N s       :     3.384610  s :     3.384610
      pz      :     1.344301  p :     3.781546
      px      :     1.163084
      py      :     1.274161
      dz2     :     0.006309  d :     0.033107
      dxz     :     0.006203
      dyz     :     0.003963
      dx2y2   :     0.009467
      dxy     :     0.007165
  1 C s       :     3.608711  s :     3.608711
      pz      :     0.895061  p :     2.513602
      px      :     0.655893
      py      :     0.962648
      dz2     :     0.009289  d :     0.064701
      dxz     :     0.017849
      dyz     :     0.008260
      dx2y2   :     0.008290
      dxy     :     0.021013
  2 N s       :     3.392135  s :     3.392135
      pz      :     1.336759  p :     3.787912
      px      :     1.170180
      py      :     1.280973
      dz2     :     0.006149  d :     0.032641
      dxz     :     0.006555
      dyz     :     0.004084
      dx2y2   :     0.009079
      dxy     :     0.006773
  3 C s       :     3.143068  s :     3.143068
      pz      :     0.968778  p :     2.790720
      px      :     0.905948
      py      :     0.915993
      dz2     :     0.008579  d :     0.048383
      dxz     :     0.009181
      dyz     :     0.009058
      dx2y2   :     0.010680
      dxy     :     0.010886
  4 C s       :     3.139298  s :     3.139298
      pz      :     0.969385  p :     2.789821
      px      :     0.903852
      py      :     0.916585
      dz2     :     0.006925  d :     0.048791
      dxz     :     0.010985
      dyz     :     0.008640
      dx2y2   :     0.011050
      dxy     :     0.011190
  5 C s       :     3.090102  s :     3.090102
      pz      :     1.034187  p :     2.866343
      px      :     0.808222
      py      :     1.023934
      dz2     :     0.011920  d :     0.057419
      dxz     :     0.010148
      dyz     :     0.010072
      dx2y2   :     0.013936
      dxy     :     0.011343
  6 C s       :     3.072597  s :     3.072597
      pz      :     1.022847  p :     2.868836
      px      :     0.826164
      py      :     1.019825
      dz2     :     0.010993  d :     0.057267
      dxz     :     0.011657
      dyz     :     0.008629
      dx2y2   :     0.015017
      dxy     :     0.010970
  7 C s       :     2.986061  s :     2.986061
      pz      :     0.953205  p :     2.974674
      px      :     1.001017
      py      :     1.020452
      dz2     :     0.006942  d :     0.026733
      dxz     :     0.004035
      dyz     :     0.006085
      dx2y2   :     0.006244
      dxy     :     0.003427
  8 H s       :     0.936480  s :     0.936480
      pz      :     0.006727  p :     0.020789
      px      :     0.006003
      py      :     0.008059
  9 C s       :     2.986590  s :     2.986590
      pz      :     1.005975  p :     2.973381
      px      :     1.007904
      py      :     0.959503
      dz2     :     0.007416  d :     0.026737
      dxz     :     0.002765
      dyz     :     0.005041
      dx2y2   :     0.006669
      dxy     :     0.004846
 10 H s       :     0.936977  s :     0.936977
      pz      :     0.013126  p :     0.020579
      px      :     0.002348
      py      :     0.005106
 11 C s       :     2.984069  s :     2.984069
      pz      :     1.019578  p :     2.981541
      px      :     1.015204
      py      :     0.946760
      dz2     :     0.004821  d :     0.026745
      dxz     :     0.005113
      dyz     :     0.005872
      dx2y2   :     0.007458
      dxy     :     0.003481
 12 C s       :     2.993326  s :     2.993326
      pz      :     0.997061  p :     2.998689
      px      :     0.987606
      py      :     1.014022
      dz2     :     0.007631  d :     0.026706
      dxz     :     0.005092
      dyz     :     0.002971
      dx2y2   :     0.007582
      dxy     :     0.003429
 13 H s       :     0.927882  s :     0.927882
      pz      :     0.006858  p :     0.025199
      px      :     0.009366
      py      :     0.008974
 14 H s       :     0.925043  s :     0.925043
      pz      :     0.008570  p :     0.024760
      px      :     0.007729
      py      :     0.008461
 15 H s       :     0.945564  s :     0.945564
      pz      :     0.014499  p :     0.024139
      px      :     0.005652
      py      :     0.003987
 16 H s       :     0.954429  s :     0.954429
      pz      :     0.007640  p :     0.024664
      px      :     0.008831
      py      :     0.008193
 17 H s       :     0.940094  s :     0.940094
      pz      :     0.004968  p :     0.024384
      px      :     0.014539
      py      :     0.004877
 18 H s       :     0.955355  s :     0.955355
      pz      :     0.006937  p :     0.024758
      px      :     0.008945
      py      :     0.008876
 19 H s       :     0.945620  s :     0.945620
      pz      :     0.005133  p :     0.024135
      px      :     0.005056
      py      :     0.013946
 20 H s       :     0.940585  s :     0.940585
      pz      :     0.004095  p :     0.024372
      px      :     0.014521
      py      :     0.005756
 21 H s       :     0.940973  s :     0.940973
      pz      :     0.014134  p :     0.024235
      px      :     0.004421
      py      :     0.005680
 22 H s       :     0.928649  s :     0.928649
      pz      :     0.004553  p :     0.024361
      px      :     0.004502
      py      :     0.015306
 23 H s       :     0.931103  s :     0.931103
      pz      :     0.005638  p :     0.024496
      px      :     0.012835
      py      :     0.006024
 24 H s       :     0.955197  s :     0.955197
      pz      :     0.013567  p :     0.024220
      px      :     0.005097
      py      :     0.005556
 25 H s       :     0.943551  s :     0.943551
      pz      :     0.006965  p :     0.024272
      px      :     0.012762
      py      :     0.004545
 26 H s       :     0.950912  s :     0.950912
      pz      :     0.007847  p :     0.025356
      px      :     0.012397
      py      :     0.005112


                     *******************************
                     * LOEWDIN POPULATION ANALYSIS *
                     *******************************

----------------------
LOEWDIN ATOMIC CHARGES
----------------------
   0 N :    0.045093
   1 C :   -0.295412
   2 N :    0.037656
   3 C :   -0.039018
   4 C :   -0.035929
   5 C :    0.030810
   6 C :    0.031733
   7 C :   -0.054856
   8 H :    0.031972
   9 C :   -0.054851
  10 H :    0.028930
  11 C :   -0.056500
  12 C :   -0.057049
  13 H :    0.033752
  14 H :    0.035101
  15 H :    0.026349
  16 H :    0.021592
  17 H :    0.029618
  18 H :    0.020775
  19 H :    0.026301
  20 H :    0.029469
  21 H :    0.029000
  22 H :    0.029341
  23 H :    0.037237
  24 H :    0.023944
  25 H :    0.027702
  26 H :    0.017242

-------------------------------
LOEWDIN REDUCED ORBITAL CHARGES
-------------------------------
  0 N s       :     3.055657  s :     3.055657
      pz      :     1.334301  p :     3.821024
      px      :     1.196602
      py      :     1.290121
      dz2     :     0.012886  d :     0.078225
      dxz     :     0.014966
      dyz     :     0.009994
      dx2y2   :     0.022159
      dxy     :     0.018220
  1 C s       :     3.185778  s :     3.185778
      pz      :     1.021894  p :     2.969524
      px      :     0.828726
      py      :     1.118904
      dz2     :     0.016936  d :     0.140109
      dxz     :     0.040980
      dyz     :     0.013340
      dx2y2   :     0.020594
      dxy     :     0.048260
  2 N s       :     3.059026  s :     3.059026
      pz      :     1.329384  p :     3.826260
      px      :     1.203626
      py      :     1.293249
      dz2     :     0.012603  d :     0.077058
      dxz     :     0.015075
      dyz     :     0.010198
      dx2y2   :     0.021614
      dxy     :     0.017569
  3 C s       :     2.850448  s :     2.850448
      pz      :     1.013453  p :     3.067081
      px      :     1.059186
      py      :     0.994442
      dz2     :     0.019548  d :     0.121489
      dxz     :     0.022123
      dyz     :     0.021984
      dx2y2   :     0.030156
      dxy     :     0.027678
  4 C s       :     2.852295  s :     2.852295
      pz      :     1.021348  p :     3.061093
      px      :     1.048546
      py      :     0.991198
      dz2     :     0.015346  d :     0.122541
      dxz     :     0.026933
      dyz     :     0.020763
      dx2y2   :     0.030901
      dxy     :     0.028597
  5 C s       :     2.829682  s :     2.829682
      pz      :     1.058114  p :     3.007160
      px      :     0.897405
      py      :     1.051641
      dz2     :     0.028610  d :     0.132349
      dxz     :     0.022872
      dyz     :     0.021565
      dx2y2   :     0.033467
      dxy     :     0.025835
  6 C s       :     2.829441  s :     2.829441
      pz      :     1.047306  p :     3.006924
      px      :     0.910773
      py      :     1.048846
      dz2     :     0.026099  d :     0.131902
      dxz     :     0.028371
      dyz     :     0.018201
      dx2y2   :     0.036354
      dxy     :     0.022876
  7 C s       :     2.831719  s :     2.831719
      pz      :     1.016539  p :     3.151823
      px      :     1.065600
      py      :     1.069684
      dz2     :     0.019635  d :     0.071315
      dxz     :     0.010823
      dyz     :     0.015096
      dx2y2   :     0.016742
      dxy     :     0.009019
  8 H s       :     0.902743  s :     0.902743
      pz      :     0.021736  p :     0.065285
      px      :     0.018755
      py      :     0.024795
  9 C s       :     2.832303  s :     2.832303
      pz      :     1.059511  p :     3.151289
      px      :     1.069465
      py      :     1.022313
      dz2     :     0.019531  d :     0.071259
      dxz     :     0.007235
      dyz     :     0.013481
      dx2y2   :     0.018385
      dxy     :     0.012625
 10 H s       :     0.905869  s :     0.905869
      pz      :     0.037616  p :     0.065202
      px      :     0.010315
      py      :     0.017270
 11 C s       :     2.832143  s :     2.832143
      pz      :     1.072947  p :     3.152926
      px      :     1.071420
      py      :     1.008559
      dz2     :     0.013113  d :     0.071431
      dxz     :     0.013844
      dyz     :     0.014188
      dx2y2   :     0.021162
      dxy     :     0.009123
 12 C s       :     2.829423  s :     2.829423
      pz      :     1.052340  p :     3.156616
      px      :     1.043547
      py      :     1.060729
      dz2     :     0.019491  d :     0.071009
      dxz     :     0.014123
      dyz     :     0.007722
      dx2y2   :     0.020362
      dxy     :     0.009311
 13 H s       :     0.890515  s :     0.890515
      pz      :     0.021804  p :     0.075734
      px      :     0.026866
      py      :     0.027063
 14 H s       :     0.890743  s :     0.890743
      pz      :     0.025937  p :     0.074156
      px      :     0.022477
      py      :     0.025741
 15 H s       :     0.906489  s :     0.906489
      pz      :     0.039135  p :     0.067162
      px      :     0.014659
      py      :     0.013367
 16 H s       :     0.909552  s :     0.909552
      pz      :     0.020604  p :     0.068856
      px      :     0.023233
      py      :     0.025019
 17 H s       :     0.903038  s :     0.903038
      pz      :     0.013186  p :     0.067345
      px      :     0.038657
      py      :     0.015502
 18 H s       :     0.909978  s :     0.909978
      pz      :     0.021696  p :     0.069247
      px      :     0.023739
      py      :     0.023812
 19 H s       :     0.906517  s :     0.906517
      pz      :     0.016796  p :     0.067182
      px      :     0.013230
      py      :     0.037156
 20 H s       :     0.903185  s :     0.903185
      pz      :     0.013590  p :     0.067347
      px      :     0.038725
      py      :     0.015032
 21 H s       :     0.903212  s :     0.903212
      pz      :     0.038790  p :     0.067788
      px      :     0.013514
      py      :     0.015484
 22 H s       :     0.902733  s :     0.902733
      pz      :     0.012977  p :     0.067927
      px      :     0.013576
      py      :     0.041374
 23 H s       :     0.895457  s :     0.895457
      pz      :     0.015728  p :     0.067305
      px      :     0.035405
      py      :     0.016173
 24 H s       :     0.908512  s :     0.908512
      pz      :     0.036124  p :     0.067544
      px      :     0.013212
      py      :     0.018208
 25 H s       :     0.904906  s :     0.904906
      pz      :     0.018255  p :     0.067392
      px      :     0.034213
      py      :     0.014924
 26 H s       :     0.910962  s :     0.910962
      pz      :     0.021325  p :     0.071796
      px      :     0.033599
      py      :     0.016873


                      *****************************
                      * MAYER POPULATION ANALYSIS *
                      *****************************

  NA   - Mulliken gross atomic population
  ZA   - Total nuclear charge
  QA   - Mulliken gross atomic charge
  VA   - Mayer's total valence
  BVA  - Mayer's bonded valence
  FA   - Mayer's free valence

  ATOM       NA         ZA         QA         VA         BVA        FA
  0 N      7.1993     7.0000    -0.1993     3.3319     3.3319     0.0000
  1 C      6.1870     6.0000    -0.1870     2.7579     2.7579    -0.0000
  2 N      7.2127     7.0000    -0.2127     3.3428     3.3428     0.0000
  3 C      5.9822     6.0000     0.0178     3.8476     3.8476     0.0000
  4 C      5.9779     6.0000     0.0221     3.8419     3.8419     0.0000
  5 C      6.0139     6.0000    -0.0139     4.0869     4.0869    -0.0000
  6 C      5.9987     6.0000     0.0013     4.0712     4.0712     0.0000
  7 C      5.9875     6.0000     0.0125     3.9460     3.9460    -0.0000
  8 H      0.9573     1.0000     0.0427     0.9787     0.9787    -0.0000
  9 C      5.9867     6.0000     0.0133     3.9494     3.9494    -0.0000
 10 H      0.9576     1.0000     0.0424     0.9770     0.9770     0.0000
 11 C      5.9924     6.0000     0.0076     3.9433     3.9433     0.0000
 12 C      6.0187     6.0000    -0.0187     3.9921     3.9921    -0.0000
 13 H      0.9531     1.0000     0.0469     1.0055     1.0055    -0.0000
 14 H      0.9498     1.0000     0.0502     1.0003     1.0003     0.0000
 15 H      0.9697     1.0000     0.0303     0.9950     0.9950    -0.0000
 16 H      0.9791     1.0000     0.0209     1.0218     1.0218     0.0000
 17 H      0.9645     1.0000     0.0355     0.9943     0.9943     0.0000
 18 H      0.9801     1.0000     0.0199     1.0266     1.0266     0.0000
 19 H      0.9698     1.0000     0.0302     0.9950     0.9950    -0.0000
 20 H      0.9650     1.0000     0.0350     0.9942     0.9942     0.0000
 21 H      0.9652     1.0000     0.0348     0.9965     0.9965    -0.0000
 22 H      0.9530     1.0000     0.0470     0.9870     0.9870     0.0000
 23 H      0.9556     1.0000     0.0444     0.9956     0.9956    -0.0000
 24 H      0.9794     1.0000     0.0206     1.0021     1.0021     0.0000
 25 H      0.9678     1.0000     0.0322     0.9923     0.9923     0.0000
 26 H      0.9763     1.0000     0.0237     1.0420     1.0420    -0.0000

  Mayer bond orders larger than 0.100000
B(  0-N ,  1-C ) :   1.2423 B(  0-N ,  4-C ) :   1.1453 B(  0-N ,  5-C ) :   0.9039 
B(  1-C ,  2-N ) :   1.2503 B(  2-N ,  3-C ) :   1.1453 B(  2-N ,  6-C ) :   0.8988 
B(  3-C ,  4-C ) :   1.6002 B(  3-C , 13-H ) :   0.9924 B(  4-C , 14-H ) :   0.9927 
B(  5-C ,  7-C ) :   1.0676 B(  5-C ,  8-H ) :   0.9463 B(  5-C ,  9-C ) :   1.0690 
B(  6-C , 10-H ) :   0.9430 B(  6-C , 11-C ) :   1.0722 B(  6-C , 12-C ) :   1.0814 
B(  7-C , 18-H ) :   0.9617 B(  7-C , 19-H ) :   0.9695 B(  7-C , 20-H ) :   0.9725 
B(  9-C , 15-H ) :   0.9691 B(  9-C , 16-H ) :   0.9628 B(  9-C , 17-H ) :   0.9730 
B( 11-C , 24-H ) :   0.9670 B( 11-C , 25-H ) :   0.9693 B( 11-C , 26-H ) :   0.9555 
B( 12-C , 21-H ) :   0.9626 B( 12-C , 22-H ) :   0.9630 B( 12-C , 23-H ) :   0.9685 


-------
TIMINGS
-------

Total SCF time: 0 days 0 hours 6 min 30 sec 

Total time                  ....     390.348 sec
Sum of individual times     ....     389.754 sec  ( 99.8%)

Fock matrix formation       ....     384.201 sec  ( 98.4%)
  Split-RI-J                ....      15.140 sec  (  3.9% of F)
  Chain of spheres X        ....     311.512 sec  ( 81.1% of F)
  XC integration            ....      33.807 sec  (  8.8% of F)
[...]
     70      -0.051299   0.000066  -0.000067  -0.000062   0.089602   0.161026
     71      -0.083489   0.000114  -0.000133  -0.000153   0.158568   0.286430
     72       0.077145   0.000093  -0.000106  -0.000176   0.022711  -0.021143
     73      -0.182464  -0.000217   0.000276   0.000299  -0.036395   0.039306
     74      -0.438286  -0.000545   0.000674   0.000632  -0.075912   0.087549
     75      -0.140180  -0.000473  -0.000352   0.003986  -0.587601   0.366453
     76      -0.037274  -0.000132  -0.000107   0.001231  -0.180892   0.113050
     77      -0.056254  -0.000197  -0.000164   0.001748  -0.260262   0.161241
     78       0.229889   0.000077  -0.000681   0.001956  -0.293670   0.153167
     79      -0.330532  -0.000092   0.000985  -0.002903   0.433419  -0.225634
     80       0.044003   0.000035  -0.000122   0.000288  -0.047356   0.024458
                 78         79         80    
      0       0.000316   0.000580  -0.001179
      1      -0.000027  -0.000374   0.001179
      2      -0.000232  -0.000727   0.002250
      3      -0.000246  -0.001801  -0.000234
      4      -0.000041  -0.000157   0.000444
      5       0.000110  -0.000223   0.000852
      6      -0.000011  -0.000018   0.000374
      7       0.000031   0.000190   0.001305
      8       0.000068   0.000363   0.002440
      9      -0.000046   0.039611   0.058183
     10       0.000001  -0.018048  -0.020227
     11      -0.000012  -0.035673  -0.040587
     12       0.000246   0.037203  -0.041794
     13       0.000111   0.027024  -0.023787
     14       0.000198   0.048753  -0.042523
     15      -0.005825   0.000483  -0.000199
     16      -0.005410   0.000316  -0.000188
     17      -0.009414   0.000560  -0.000352
     18       0.000040   0.000302   0.000266
     19       0.000174  -0.000037  -0.000221
     20       0.000354  -0.000070  -0.000454
     21      -0.059259   0.000077   0.000025
     22      -0.031886   0.000020  -0.000030
     23      -0.037456   0.000037  -0.000043
     24       0.057142  -0.004423   0.002666
     25       0.057627  -0.002869   0.001447
     26       0.102354  -0.005114   0.002605
     27      -0.045360   0.000082   0.000020
     28      -0.011839   0.000026  -0.000021
     29      -0.022030   0.000023  -0.000031
     30       0.000628  -0.000638  -0.001995
     31      -0.001650  -0.000903   0.000421
     32      -0.003409  -0.001739   0.001126
     33       0.002393   0.000132   0.000100
     34      -0.000217  -0.000312  -0.000294
     35       0.001417  -0.000438  -0.000422
     36       0.003278   0.000180   0.000155
     37       0.002141  -0.000217  -0.000209
     38       0.000483  -0.000767  -0.000719
     39      -0.001005  -0.472968  -0.557010
     40       0.000565   0.199560   0.230764
     41       0.000958   0.395354   0.457661
     42      -0.002318  -0.430463   0.372051
     43      -0.001509  -0.301975   0.256457
     44      -0.002690  -0.543895   0.461652
     45      -0.008944  -0.000010  -0.000029
     46      -0.010252  -0.000051  -0.000006
     47       0.013671   0.000217  -0.000028
     48       0.169889  -0.000409   0.000222
     49       0.186184  -0.000749   0.000423
     50       0.297675  -0.000857   0.000462
     51       0.384398  -0.001846   0.000459
     52      -0.028018   0.000518  -0.000243
     53      -0.046367   0.000190  -0.000032
     54       0.278937  -0.000433   0.000266
     55       0.265488  -0.000383   0.000219
     56       0.513093  -0.001117   0.000675
     57      -0.046528   0.000031  -0.000069
     58       0.138164   0.000085   0.000091
     59       0.003626   0.000043  -0.000008
     60       0.480441  -0.001817   0.000458
     61      -0.023935  -0.000140   0.000115
     62      -0.063510   0.000558  -0.000241
     63       0.001612  -0.001461  -0.001255
     64      -0.002683   0.004119   0.003854
     65      -0.005603   0.007977   0.007593
     66      -0.011027  -0.001218  -0.001083
     67      -0.014992  -0.001777  -0.001557
     68       0.014363   0.001543   0.001338
     69      -0.030017   0.000927   0.001020
     70      -0.008085   0.000573   0.000564
     71      -0.014475   0.000690   0.000684
     72       0.001385  -0.001221  -0.001136
     73      -0.002636   0.002013   0.001912
     74      -0.005920   0.005402   0.005090
     75      -0.022112   0.000437   0.000688
     76      -0.006832   0.000151   0.000202
     77      -0.009624   0.000610   0.000653
     78      -0.008209  -0.001097  -0.000934
     79       0.012147   0.001729   0.001437
     80      -0.001273  -0.000216  -0.000163


-----------
IR SPECTRUM
-----------

 Mode   freq       eps      Int      T**2         TX        TY        TZ
       cm**-1   L/(mol*cm) km/mol    a.u.
----------------------------------------------------------------------------
  6:     28.52   0.000191    0.97  0.002093  (-0.001484  0.040911 -0.020425)
  7:     42.25   0.000272    1.37  0.002006  (-0.001570  0.040301 -0.019486)
  8:    102.29   0.002978   15.05  0.009085  (-0.001810  0.084545 -0.043978)
  9:    160.08   0.000414    2.09  0.000807  (-0.000043  0.011988  0.025753)
 10:    164.48   0.000078    0.40  0.000148  ( 0.001588 -0.008720  0.008359)
 11:    241.69   0.000013    0.06  0.000016  ( 0.002994 -0.002698  0.000116)
 12:    247.66   0.000133    0.67  0.000168  (-0.010586 -0.004855  0.005698)
 13:    257.81   0.000438    2.21  0.000530  ( 0.022066 -0.005450 -0.003682)
 14:    274.56   0.000025    0.13  0.000029  ( 0.005169  0.001356  0.000057)
 15:    277.17   0.000074    0.37  0.000083  ( 0.008467 -0.000923 -0.003291)
 16:    336.73   0.000720    3.64  0.000667  (-0.023239 -0.007249 -0.008621)
 17:    347.31   0.000876    4.43  0.000787  (-0.027899 -0.002516  0.001618)
 18:    402.42   0.004309   21.78  0.003342  (-0.003581  0.051054 -0.026875)
 19:    451.20   0.000023    0.12  0.000016  (-0.002455  0.002876 -0.001210)
 20:    500.51   0.000381    1.93  0.000238  (-0.015349 -0.000964 -0.001079)
 21:    508.83   0.001007    5.09  0.000617  ( 0.021791  0.006815  0.009806)
 22:    637.87   0.000312    1.58  0.000153  (-0.010726  0.002860  0.005415)
 23:    678.28   0.000074    0.37  0.000034  (-0.003882  0.003933 -0.001868)
 24:    680.98   0.002281   11.53  0.001045  ( 0.001336 -0.028401  0.015392)
 25:    704.78   0.003018   15.25  0.001337  (-0.036335  0.001203  0.003851)
 26:    752.39   0.014423   72.89  0.005982  (-0.001071  0.067940 -0.036946)
 27:    884.94   0.000002    0.01  0.000001  ( 0.000705  0.000395 -0.000281)
 28:    907.34   0.000745    3.77  0.000256  (-0.011872 -0.005400 -0.009282)
 29:    915.05   0.001283    6.48  0.000438  (-0.020406 -0.002164 -0.004053)
 30:    927.35   0.000445    2.25  0.000150  ( 0.000277  0.011211 -0.004910)
 31:    932.71   0.000293    1.48  0.000098  (-0.001224  0.008650 -0.004655)
 32:    956.90   0.000081    0.41  0.000026  ( 0.000823 -0.004695  0.001900)
 33:    959.82   0.000124    0.62  0.000040  ( 0.000280 -0.005508  0.003122)
 34:   1013.79   0.003863   19.52  0.001189  (-0.034432  0.000566  0.001830)
 35:   1025.21   0.000131    0.66  0.000040  ( 0.002170  0.003403  0.004867)
 36:   1081.68   0.000202    1.02  0.000058  ( 0.007543 -0.000141 -0.001128)
 37:   1090.27   0.005453   27.56  0.001561  (-0.004374  0.018403  0.034686)
 38:   1128.05   0.004758   24.04  0.001316  ( 0.034121  0.005873  0.010835)
 39:   1169.18   0.001652    8.35  0.000441  (-0.001283  0.017097 -0.012119)
 40:   1170.36   0.002048   10.35  0.000546  ( 0.001565 -0.020848  0.010438)
 41:   1176.81   0.002045   10.33  0.000542  (-0.016128 -0.009494 -0.013856)
 42:   1193.03   0.000864    4.36  0.000226  (-0.014732 -0.002932 -0.000516)
 43:   1234.74   0.019595   99.03  0.004952  (-0.070082 -0.004209 -0.004813)
 44:   1318.59   0.000442    2.23  0.000105  ( 0.009566 -0.001423 -0.003336)
 45:   1334.88   0.015242   77.03  0.003563  ( 0.059195  0.004554  0.006208)
 46:   1345.95   0.000034    0.17  0.000008  ( 0.001985 -0.001651  0.001153)
 47:   1349.39   0.000133    0.67  0.000031  ( 0.004259  0.003491 -0.000573)
 48:   1392.31   0.001698    8.58  0.000381  (-0.012369  0.005213  0.014155)
 49:   1397.22   0.001294    6.54  0.000289  ( 0.016336  0.004248 -0.002037)
 50:   1399.64   0.003099   15.66  0.000691  ( 0.002537 -0.023630  0.011227)
 51:   1400.11   0.006688   33.80  0.001491  (-0.002949  0.034875 -0.016301)
 52:   1406.82   0.003503   17.70  0.000777  (-0.014865  0.008590  0.021960)
 53:   1428.73   0.000900    4.55  0.000196  ( 0.009217  0.006572  0.008267)
 54:   1445.56   0.000337    1.70  0.000073  (-0.002928  0.007221  0.003471)
 55:   1446.13   0.000858    4.34  0.000185  (-0.006796  0.004732  0.010798)
 56:   1448.06   0.008534   43.13  0.001839  ( 0.023920 -0.016434 -0.031574)
 57:   1451.77   0.000069    0.35  0.000015  (-0.000594  0.003226 -0.002003)
 58:   1457.81   0.001228    6.20  0.000263  ( 0.014240 -0.001548  0.007590)
 59:   1459.67   0.002013   10.17  0.000430  (-0.014746  0.004360  0.013928)
 60:   1460.82   0.007796   39.40  0.001665  ( 0.035063  0.011646  0.017332)
 61:   1475.71   0.002923   14.77  0.000618  ( 0.023828  0.004189  0.005733)
 62:   1482.15   0.014761   74.60  0.003108  ( 0.055720  0.001009 -0.001508)
 63:   1486.13   0.004681   23.65  0.000983  (-0.023772  0.009529  0.018081)
 64:   1650.99   0.000149    0.75  0.000028  ( 0.000292  0.002727  0.004550)
 65:   3063.54   0.004954   25.04  0.000505  ( 0.001020  0.019500 -0.011106)
 66:   3065.86   0.002910   14.70  0.000296  (-0.014568  0.007175  0.005697)
 67:   3066.13   0.005274   26.65  0.000537  (-0.001755  0.021144 -0.009307)
 68:   3068.73   0.002376   12.01  0.000242  ( 0.010483 -0.000297 -0.011474)
 69:   3109.38   0.004340   21.93  0.000436  (-0.012121 -0.008481 -0.014722)
 70:   3128.88   0.001231    6.22  0.000123  (-0.002910 -0.004334 -0.009773)
 71:   3163.76   0.001502    7.59  0.000148  ( 0.000818 -0.011529  0.003813)
 72:   3167.04   0.009661   48.82  0.000952  (-0.002451  0.013068  0.027842)
 73:   3171.22   0.004171   21.08  0.000410  (-0.004265 -0.009833  0.017193)
 74:   3172.51   0.005003   25.28  0.000492  ( 0.012368 -0.014056 -0.011897)
 75:   3174.09   0.001583    8.00  0.000156  (-0.010843  0.006156  0.000459)
 76:   3174.83   0.002539   12.83  0.000250  ( 0.007415 -0.010560  0.009114)
 77:   3176.63   0.007936   40.10  0.000780  (-0.025356 -0.009352 -0.007013)
 78:   3177.26   0.008933   45.14  0.000877  (-0.025087 -0.009629 -0.012461)
 79:   3280.86   0.001516    7.66  0.000144  (-0.012005 -0.000361  0.000012)
 80:   3301.80   0.000289    1.46  0.000027  (-0.002157  0.002103  0.004275)

* The epsilon (eps) is given for a Dirac delta lineshape.
** The dipole moment derivative (T) already includes vibrational overlap.

The first frequency considered to be a vibration is 6
The total number of vibrations considered is 75


--------------------------
THERMOCHEMISTRY AT 298.15K
--------------------------

Temperature         ... 298.15 K
Pressure            ... 1.00 atm
Total Mass          ... 152.24 AMU

Throughout the following assumptions are being made:
  (1) The electronic state is orbitally nondegenerate
  (2) There are no thermally accessible electronically excited states
  (3) Hindered rotations indicated by low frequency modes are not
      treated as such but are treated as vibrations and this may
      cause some error
  (4) All equations used are the standard statistical mechanics
      equations for an ideal gas
  (5) All vibrations are strictly harmonic

freq.      28.52  E(vib)   ...       0.55 
freq.      42.25  E(vib)   ...       0.53 
freq.     102.29  E(vib)   ...       0.46 
freq.     160.08  E(vib)   ...       0.39 
freq.     164.48  E(vib)   ...       0.39 
freq.     241.69  E(vib)   ...       0.31 
freq.     247.66  E(vib)   ...       0.31 
freq.     257.81  E(vib)   ...       0.30 
freq.     274.56  E(vib)   ...       0.28 
freq.     277.17  E(vib)   ...       0.28 
freq.     336.73  E(vib)   ...       0.24 
freq.     347.31  E(vib)   ...       0.23 
freq.     402.42  E(vib)   ...       0.19 
freq.     451.20  E(vib)   ...       0.16 
freq.     500.51  E(vib)   ...       0.14 
freq.     508.83  E(vib)   ...       0.14 
freq.     637.87  E(vib)   ...       0.09 
freq.     678.28  E(vib)   ...       0.08 
freq.     680.98  E(vib)   ...       0.08 
freq.     704.78  E(vib)   ...       0.07 
freq.     752.39  E(vib)   ...       0.06 
freq.     884.94  E(vib)   ...       0.04 
freq.     907.34  E(vib)   ...       0.03 
freq.     915.05  E(vib)   ...       0.03 
freq.     927.35  E(vib)   ...       0.03 
freq.     932.71  E(vib)   ...       0.03 
freq.     956.90  E(vib)   ...       0.03 
freq.     959.82  E(vib)   ...       0.03 
freq.    1013.79  E(vib)   ...       0.02 
freq.    1025.21  E(vib)   ...       0.02 
freq.    1081.68  E(vib)   ...       0.02 
freq.    1090.27  E(vib)   ...       0.02 
freq.    1128.05  E(vib)   ...       0.01 
freq.    1169.18  E(vib)   ...       0.01 
freq.    1170.36  E(vib)   ...       0.01 
freq.    1176.81  E(vib)   ...       0.01 
freq.    1193.03  E(vib)   ...       0.01 
freq.    1234.74  E(vib)   ...       0.01 
freq.    1318.59  E(vib)   ...       0.01 
freq.    1334.88  E(vib)   ...       0.01 
freq.    1345.95  E(vib)   ...       0.01 
freq.    1349.39  E(vib)   ...       0.01 
freq.    1392.31  E(vib)   ...       0.00 
freq.    1397.22  E(vib)   ...       0.00 
freq.    1399.64  E(vib)   ...       0.00 
freq.    1400.11  E(vib)   ...       0.00 
freq.    1406.82  E(vib)   ...       0.00 
freq.    1428.73  E(vib)   ...       0.00 
freq.    1445.56  E(vib)   ...       0.00 
freq.    1446.13  E(vib)   ...       0.00 
freq.    1448.06  E(vib)   ...       0.00 
freq.    1451.77  E(vib)   ...       0.00 
freq.    1457.81  E(vib)   ...       0.00 
freq.    1459.67  E(vib)   ...       0.00 
freq.    1460.82  E(vib)   ...       0.00 
freq.    1475.71  E(vib)   ...       0.00 
freq.    1482.15  E(vib)   ...       0.00 
freq.    1486.13  E(vib)   ...       0.00 
freq.    1650.99  E(vib)   ...       0.00 
freq.    3063.54  E(vib)   ...       0.00 
freq.    3065.86  E(vib)   ...       0.00 
freq.    3066.13  E(vib)   ...       0.00 
freq.    3068.73  E(vib)   ...       0.00 
freq.    3109.38  E(vib)   ...       0.00 
freq.    3128.88  E(vib)   ...       0.00 
freq.    3163.76  E(vib)   ...       0.00 
freq.    3167.04  E(vib)   ...       0.00 
freq.    3171.22  E(vib)   ...       0.00 
freq.    3172.51  E(vib)   ...       0.00 
freq.    3174.09  E(vib)   ...       0.00 
freq.    3174.83  E(vib)   ...       0.00 
freq.    3176.63  E(vib)   ...       0.00 
freq.    3177.26  E(vib)   ...       0.00 
freq.    3280.86  E(vib)   ...       0.00 
freq.    3301.80  E(vib)   ...       0.00 

------------
INNER ENERGY
------------

The inner energy is: U= E(el) + E(ZPE) + E(vib) + E(rot) + E(trans)
    E(el)   - is the total energy from the electronic structure calculation
              = E(kin-el) + E(nuc-el) + E(el-el) + E(nuc-nuc)
    E(ZPE)  - the the zero temperature vibrational energy from the frequency calculation
    E(vib)  - the the finite temperature correction to E(ZPE) due to population
              of excited vibrational states
    E(rot)  - is the rotational thermal energy
    E(trans)- is the translational thermal energy

Summary of contributions to the inner energy U:
Electronic energy                ...   -461.63235359 Eh
Zero point energy                ...      0.24163612 Eh     151.63 kcal/mol
Thermal vibrational correction   ...      0.00912920 Eh       5.73 kcal/mol
Thermal rotational correction    ...      0.00141627 Eh       0.89 kcal/mol
Thermal translational correction ...      0.00141627 Eh       0.89 kcal/mol
-----------------------------------------------------------------------
Total thermal energy                   -461.37875573 Eh


Summary of corrections to the electronic energy:
(perhaps to be used in another calculation)
Total thermal correction                  0.01196174 Eh       7.51 kcal/mol
Non-thermal (ZPE) correction              0.24163612 Eh     151.63 kcal/mol
-----------------------------------------------------------------------
Total correction                          0.25359786 Eh     159.13 kcal/mol


--------
ENTHALPY
--------

The enthalpy is H = U + kB*T
                kB is Boltzmann's constant
Total free energy                 ...   -461.37875573 Eh 
Thermal Enthalpy correction       ...      0.00094421 Eh       0.59 kcal/mol
-----------------------------------------------------------------------
Total Enthalpy                    ...   -461.37781152 Eh


Note: Only C1 symmetry has been detected, increase convergence thresholds 
      if your molecule has a higher symmetry. Symmetry factor of 1.0 is   
      used for the rotational entropy correction. 
 

Note: Rotational entropy computed according to Herzberg 
Infrared and Raman Spectra, Chapter V,1, Van Nostrand Reinhold, 1945 
Point Group:  C1, Symmetry Number:   1  
Rotational constants in cm-1:     0.079829     0.019234     0.019032 

Vibrational entropy computed according to the QRRHO of S. Grimme
Chem.Eur.J. 2012 18 9955


-------
ENTROPY
-------

The entropy contributions are T*S = T*(S(el)+S(vib)+S(rot)+S(trans))
     S(el)   - electronic entropy
     S(vib)  - vibrational entropy
     S(rot)  - rotational entropy
     S(trans)- translational entropy
The entropies will be listed as multiplied by the temperature to get
units of energy

Electronic entropy                ...      0.00000000 Eh      0.00 kcal/mol
Vibrational entropy               ...      0.01579312 Eh      9.91 kcal/mol
Rotational entropy                ...      0.01443972 Eh      9.06 kcal/mol
Translational entropy             ...      0.01946649 Eh     12.22 kcal/mol
-----------------------------------------------------------------------
Final entropy term                ...      0.04969933 Eh     31.19 kcal/mol

In case the symmetry of your molecule has not been determined correctly
or in case you have a reason to use a different symmetry number we print 
out the resulting rotational entropy values for sn=1,12 :
 --------------------------------------------------------
|  sn= 1 | S(rot)=       0.01443972 Eh      9.06 kcal/mol|
|  sn= 2 | S(rot)=       0.01378526 Eh      8.65 kcal/mol|
|  sn= 3 | S(rot)=       0.01340243 Eh      8.41 kcal/mol|
|  sn= 4 | S(rot)=       0.01313080 Eh      8.24 kcal/mol|
|  sn= 5 | S(rot)=       0.01292012 Eh      8.11 kcal/mol|
|  sn= 6 | S(rot)=       0.01274797 Eh      8.00 kcal/mol|
|  sn= 7 | S(rot)=       0.01260243 Eh      7.91 kcal/mol|
|  sn= 8 | S(rot)=       0.01247635 Eh      7.83 kcal/mol|
|  sn= 9 | S(rot)=       0.01236514 Eh      7.76 kcal/mol|
|  sn=10 | S(rot)=       0.01226566 Eh      7.70 kcal/mol|
|  sn=11 | S(rot)=       0.01217567 Eh      7.64 kcal/mol|
|  sn=12 | S(rot)=       0.01209351 Eh      7.59 kcal/mol|
 --------------------------------------------------------


-------------------
GIBBS FREE ENERGY
-------------------

The Gibbs free energy is G = H - T*S

Total enthalpy                    ...   -461.37781152 Eh 
Total entropy correction          ...     -0.04969933 Eh    -31.19 kcal/mol
-----------------------------------------------------------------------
Final Gibbs free energy         ...   -461.42751085 Eh

For completeness - the Gibbs free energy minus the electronic energy
G-E(el)                           ...      0.20484274 Eh    128.54 kcal/mol


Timings for individual modules:

Sum of individual times         ...    10882.387 sec (= 181.373 min)
GTO integral calculation        ...        8.606 sec (=   0.143 min)   0.1 %
SCF iterations                  ...     7500.405 sec (= 125.007 min)  68.9 %
SCF Gradient evaluation         ...     2002.306 sec (=  33.372 min)  18.4 %
Geometry relaxation             ...        1.827 sec (=   0.030 min)   0.0 %
Analytical frequency calculation...     1369.244 sec (=  22.821 min)  12.6 %
                             ****ORCA TERMINATED NORMALLY****
TOTAL RUN TIME: 0 days 3 hours 1 minutes 25 seconds 912 msec
