
                                 *****************
                                 * O   R   C   A *
                                 *****************

                                            #,                                       
                                            ###                                      
                                            ####                                     
                                            #####                                    
                                            ######                                   
                                           ########,                                 
                                     ,,################,,,,,                         
                               ,,#################################,,                 
                          ,,##########################################,,             
                       ,#########################################, ''#####,          
                    ,#############################################,,   '####,        
                  ,##################################################,,,,####,       
                ,###########''''           ''''###############################       
              ,#####''   ,,,,##########,,,,          '''####'''          '####       
            ,##' ,,,,###########################,,,                        '##       
           ' ,,###''''                  '''############,,,                           
         ,,##''                                '''############,,,,        ,,,,,,###''
      ,#''                                            '''#######################'''  
     '                                                          ''''####''''         
             ,#######,   #######,   ,#######,      ##                                
            ,#'     '#,  ##    ##  ,#'     '#,    #''#        ######   ,####,        
            ##       ##  ##   ,#'  ##            #'  '#       #        #'  '#        
            ##       ##  #######   ##           ,######,      #####,   #    #        
            '#,     ,#'  ##    ##  '#,     ,#' ,#      #,         ##   #,  ,#        
             '#######'   ##     ##  '#######'  #'      '#     #####' # '####'        



                  #######################################################
                  #                        -***-                        #
                  #          Department of theory and spectroscopy      #
                  #    Directorship and core code : Frank Neese         #
                  #        Max Planck Institute fuer Kohlenforschung    #
                  #                Kaiser Wilhelm Platz 1               #
                  #                 D-45470 Muelheim/Ruhr               #
                  #                      Germany                        #
                  #                                                     #
                  #                  All rights reserved                #
                  #                        -***-                        #
                  #######################################################


                         Program Version 5.0.4 -  RELEASE  -


 With contributions from (in alphabetic order):
   Daniel Aravena         : Magnetic Suceptibility
   Michael Atanasov       : Ab Initio Ligand Field Theory (pilot matlab implementation)
   Alexander A. Auer      : GIAO ZORA, VPT2 properties, NMR spectrum
   Ute Becker             : Parallelization
   Giovanni Bistoni       : ED, misc. LED, open-shell LED, HFLD
   Martin Brehm           : Molecular dynamics
   Dmytro Bykov           : SCF Hessian
   Vijay G. Chilkuri      : MRCI spin determinant printing, contributions to CSF-ICE
   Dipayan Datta          : RHF DLPNO-CCSD density
   Achintya Kumar Dutta   : EOM-CC, STEOM-CC
   Dmitry Ganyushin       : Spin-Orbit,Spin-Spin,Magnetic field MRCI
   Miquel Garcia          : C-PCM and meta-GGA Hessian, CC/C-PCM, Gaussian charge scheme
   Yang Guo               : DLPNO-NEVPT2, F12-NEVPT2, CIM, IAO-localization
   Andreas Hansen         : Spin unrestricted coupled pair/coupled cluster methods
   Benjamin Helmich-Paris : MC-RPA, TRAH-SCF, COSX integrals
   Lee Huntington         : MR-EOM, pCC
   Robert Izsak           : Overlap fitted RIJCOSX, COSX-SCS-MP3, EOM
   Marcus Kettner         : VPT2
   Christian Kollmar      : KDIIS, OOCD, Brueckner-CCSD(T), CCSD density, CASPT2, CASPT2-K
   Simone Kossmann        : Meta GGA functionals, TD-DFT gradient, OOMP2, MP2 Hessian
   Martin Krupicka        : Initial AUTO-CI
   Lucas Lang             : DCDCAS
   Marvin Lechner         : AUTO-CI (C++ implementation), FIC-MRCC
   Dagmar Lenk            : GEPOL surface, SMD
   Dimitrios Liakos       : Extrapolation schemes; Compound Job, initial MDCI parallelization
   Dimitrios Manganas     : Further ROCIS development; embedding schemes
   Dimitrios Pantazis     : SARC Basis sets
   Anastasios Papadopoulos: AUTO-CI, single reference methods and gradients
   Taras Petrenko         : DFT Hessian,TD-DFT gradient, ASA, ECA, R-Raman, ABS, FL, XAS/XES, NRVS
   Peter Pinski           : DLPNO-MP2, DLPNO-MP2 Gradient
   Christoph Reimann      : Effective Core Potentials
   Marius Retegan         : Local ZFS, SOC
   Christoph Riplinger    : Optimizer, TS searches, QM/MM, DLPNO-CCSD(T), (RO)-DLPNO pert. Triples
   Tobias Risthaus        : Range-separated hybrids, TD-DFT gradient, RPA, STAB
   Michael Roemelt        : Original ROCIS implementation
   Masaaki Saitow         : Open-shell DLPNO-CCSD energy and density
   Barbara Sandhoefer     : DKH picture change effects
   Avijit Sen             : IP-ROCIS
   Kantharuban Sivalingam : CASSCF convergence, NEVPT2, FIC-MRCI
   Bernardo de Souza      : ESD, SOC TD-DFT
   Georgi Stoychev        : AutoAux, RI-MP2 NMR, DLPNO-MP2 response
   Willem Van den Heuvel  : Paramagnetic NMR
   Boris Wezisla          : Elementary symmetry handling
   Frank Wennmohs         : Technical directorship


 We gratefully acknowledge several colleagues who have allowed us to
 interface, adapt or use parts of their codes:
   Stefan Grimme, W. Hujo, H. Kruse, P. Pracht,  : VdW corrections, initial TS optimization,
                  C. Bannwarth, S. Ehlert          DFT functionals, gCP, sTDA/sTD-DF
   Ed Valeev, F. Pavosevic, A. Kumar             : LibInt (2-el integral package), F12 methods
   Garnet Chan, S. Sharma, J. Yang, R. Olivares  : DMRG
   Ulf Ekstrom                                   : XCFun DFT Library
   Mihaly Kallay                                 : mrcc  (arbitrary order and MRCC methods)
   Jiri Pittner, Ondrej Demel                    : Mk-CCSD
   Frank Weinhold                                : gennbo (NPA and NBO analysis)
   Christopher J. Cramer and Donald G. Truhlar   : smd solvation model
   Lars Goerigk                                  : TD-DFT with DH, B97 family of functionals
   V. Asgeirsson, H. Jonsson                     : NEB implementation
   FAccTs GmbH                                   : IRC, NEB, NEB-TS, DLPNO-Multilevel, CI-OPT
                                                   MM, QMMM, 2- and 3-layer-ONIOM, Crystal-QMMM,
                                                   LR-CPCM, SF, NACMEs, symmetry and pop. for TD-DFT,
                                                   nearIR, NL-DFT gradient (VV10), updates on ESD,
                                                   ML-optimized integration grids
   S Lehtola, MJT Oliveira, MAL Marques          : LibXC Library
   Liviu Ungur et al                             : ANISO software


 Your calculation uses the libint2 library for the computation of 2-el integrals
 For citations please refer to: http://libint.valeyev.net

 Your ORCA version has been built with support for libXC version: 5.1.0
 For citations please refer to: https://tddft.org/programs/libxc/

 This ORCA versions uses:
   CBLAS   interface :  Fast vector & matrix operations
   LAPACKE interface :  Fast linear algebra routines
   SCALAPACK package :  Parallel linear algebra routines
   Shared memory     :  Shared parallel matrices
   BLAS/LAPACK       :  OpenBLAS 0.3.15  USE64BITINT DYNAMIC_ARCH NO_AFFINITY SkylakeX SINGLE_THREADED
        Core in use  :  SkylakeX
   Copyright (c) 2011-2014, The OpenBLAS Project




***************************************
The coordinates will be read from file: 4_deprot_aq_2.xyz
***************************************


Your calculation utilizes the atom-pairwise dispersion correction
based on tight binding partial charges (D4)
Cite in your paper:
E.Caldeweyher, C.Bannwarth, S.Grimme, J.Chem.Phys., (2017), 147, 034112.
E.Caldeweyher, S.Ehlert, A.Hansen, H.Neugebauer, S.Grimme, J.Chem.Phys., (2018), in progress.
   

XCFun DFT library Copyright 2009-2010 Ulf Ekstrom and contributors.
See http://admol.org/xcfun for more information.
This is free software; see the source code for copying conditions.
There is ABSOLUTELY NO WARRANTY; not even for MERCHANTABILITY or FITNESS FOR A PARTICULAR PURPOSE.
For details see the documentation.
Scientific users of this library should cite U. Ekstrom, L. Visscher, R. Bast, A. J. Thorvaldsen and K. Ruud;
J.Chem.Theor.Comp. 2010, DOI: 10.1021/ct100117s
XCFun Version 0.99 

================================================================================

----- Orbital basis set information -----
Your calculation utilizes the basis: def2-SVP
   F. Weigend and R. Ahlrichs, Phys. Chem. Chem. Phys. 7, 3297 (2005).

----- AuxJ basis set information -----
Your calculation utilizes the auxiliary basis: def2/J
   F. Weigend, Phys. Chem. Chem. Phys. 8, 1057 (2006).

================================================================================
                                        WARNINGS
                       Please study these warnings very carefully!
================================================================================


WARNING: Geometry Optimization
  ===> : Switching off AutoStart
         For restart on a previous wavefunction, please use MOREAD

INFO   : the flag for use of the SHARK integral package has been found!

================================================================================
                                       INPUT FILE
================================================================================
NAME = 4_deprot_aq_2.inp
|  1> # ORCA 5.0.4 - /users/bwb16179/postgrad/2024_03/DFT_Crest_Conformers/Opt/deprot/4_deprot_aq_2.inp # write input file
|  2> # Basic Mode
|  3> #
|  4> ! Opt Freq wB97X Def2-SVP D4 SlowConv TightSCF Defgrid2 Def2/J RIJCOSX CPCM(Water)
|  5> 
|  6> 
|  7> 
|  8> %maxcore 4500
|  9> 
| 10> %geom
| 11> Maxiter 150
| 12> END
| 13> 
| 14> * xyzfile 0 1 4_deprot_aq_2.xyz
| 15> 
| 16>                          ****END OF INPUT****
================================================================================

                       *****************************
                       * Geometry Optimization Run *
                       *****************************

Geometry optimization settings:
Update method            Update   .... BFGS
Choice of coordinates    CoordSys .... Z-matrix Internals
Initial Hessian          InHess   .... Almoef's Model

Convergence Tolerances:
Energy Change            TolE     ....  5.0000e-06 Eh
Max. Gradient            TolMAXG  ....  3.0000e-04 Eh/bohr
RMS Gradient             TolRMSG  ....  1.0000e-04 Eh/bohr
Max. Displacement        TolMAXD  ....  4.0000e-03 bohr
RMS Displacement         TolRMSD  ....  2.0000e-03 bohr
Strict Convergence                ....  False
------------------------------------------------------------------------------
                        ORCA OPTIMIZATION COORDINATE SETUP
------------------------------------------------------------------------------

The optimization will be done in new redundant internal coordinates
Making redundant internal coordinates   ...  (new redundants) done
Evaluating the initial hessian          ...  (Almloef) done
Evaluating the coordinates              ...  done
Calculating the B-matrix                .... done
Calculating the G-matrix                .... done
Diagonalizing the G-matrix              .... done
Small eigenvalue found = 1.702e-02
Small eigenvalue found = 2.090e-02
The first mode is                       ....   65
The number of degrees of freedom        ....   75

    -----------------------------------------------------------------
                    Redundant Internal Coordinates


    -----------------------------------------------------------------
         Definition                    Initial Value    Approx d2E/dq
    -----------------------------------------------------------------
      1. B(C   1,N   0)                  1.3561         0.633773   
      2. B(N   2,C   1)                  1.3591         0.626931   
      3. B(C   3,N   2)                  1.3711         0.599806   
      4. B(C   4,C   3)                  1.3521         0.718134   
      5. B(C   4,N   0)                  1.3735         0.594471   
      6. B(C   5,N   0)                  1.4426         0.461258   
      7. B(C   6,N   2)                  1.4441         0.458687   
      8. B(C   7,C   5)                  1.5293         0.374512   
      9. B(H   8,C   5)                  1.0962         0.351982   
     10. B(C   9,C   5)                  1.5293         0.374578   
     11. B(H  10,C   6)                  1.0979         0.349778   
     12. B(C  11,C   6)                  1.5283         0.375964   
     13. B(C  12,C   6)                  1.5284         0.375841   
     14. B(H  13,C   3)                  1.0720         0.384757   
     15. B(H  14,C   4)                  1.0708         0.386478   
     16. B(H  15,C   9)                  1.0880         0.362809   
     17. B(H  16,C   9)                  1.0868         0.364383   
     18. B(H  17,C   9)                  1.0877         0.363170   
     19. B(H  18,C   7)                  1.0868         0.364389   
     20. B(H  19,C   7)                  1.0880         0.362822   
     21. B(H  20,C   7)                  1.0877         0.363191   
     22. B(H  21,C  12)                  1.0880         0.362790   
     23. B(H  22,C  12)                  1.0867         0.364435   
     24. B(H  23,C  12)                  1.0866         0.364616   
     25. B(H  24,C  11)                  1.0866         0.364660   
     26. B(H  25,C  11)                  1.0867         0.364439   
     27. B(H  26,C  11)                  1.0879         0.362859   
     28. A(C   1,N   0,C   5)          122.9041         0.408016   
     29. A(C   4,N   0,C   5)          125.1875         0.403427   
     30. A(C   1,N   0,C   4)          111.9085         0.426872   
     31. A(N   0,C   1,N   2)          103.3769         0.430962   
     32. A(C   1,N   2,C   6)          123.3295         0.406831   
     33. A(C   1,N   2,C   3)          111.7645         0.426725   
     34. A(C   3,N   2,C   6)          124.9059         0.403665   
     35. A(N   2,C   3,C   4)          106.6097         0.440158   
     36. A(C   4,C   3,H  13)          130.6733         0.365954   
     37. A(N   2,C   3,H  13)          122.7170         0.352707   
     38. A(N   0,C   4,H  14)          123.4339         0.352440   
     39. A(C   3,C   4,H  14)          130.2256         0.366234   
     40. A(N   0,C   4,C   3)          106.3405         0.439448   
     41. A(H   8,C   5,C   9)          109.2078         0.323250   
     42. A(C   7,C   5,C   9)          111.2939         0.363674   
     43. A(N   0,C   5,C   9)          110.7927         0.374567   
     44. A(C   7,C   5,H   8)          109.2044         0.323240   
     45. A(N   0,C   5,H   8)          105.3621         0.332530   
     46. A(N   0,C   5,C   7)          110.7881         0.374555   
     47. A(H  10,C   6,C  11)          109.4363         0.323112   
     48. A(N   2,C   6,C  11)          109.7217         0.374444   
     49. A(C  11,C   6,C  12)          110.9159         0.364124   
     50. A(H  10,C   6,C  12)          109.4293         0.323095   
     51. A(N   2,C   6,C  12)          109.7125         0.374423   
     52. A(N   2,C   6,H  10)          107.5592         0.331876   
     53. A(H  19,C   7,H  20)          108.6040         0.291575   
     54. A(H  18,C   7,H  20)          108.7101         0.291773   
     55. A(C   5,C   7,H  20)          110.1112         0.324908   
     56. A(H  18,C   7,H  19)          108.5129         0.291726   
     57. A(C   5,C   7,H  19)          110.7605         0.324854   
     58. A(C   5,C   7,H  18)          110.0889         0.325084   
     59. A(H  16,C   9,H  17)          108.7089         0.291769   
     60. A(H  15,C   9,H  17)          108.6028         0.291571   
     61. A(C   5,C   9,H  17)          110.1152         0.324915   
     62. A(H  15,C   9,H  16)          108.5092         0.291724   
     63. A(C   5,C   9,H  16)          110.0866         0.325093   
     64. A(C   5,C   9,H  15)          110.7648         0.324861   
     65. A(H  25,C  11,H  26)          108.8112         0.291737   
     66. A(H  24,C  11,H  26)          108.6184         0.291765   
     67. A(H  24,C  11,H  25)          109.3981         0.291965   
     68. A(C   6,C  11,H  25)          110.4350         0.325298   
     69. A(C   6,C  11,H  24)          109.1079         0.325331   
     70. A(C   6,C  11,H  26)          110.4390         0.325066   
     71. A(H  22,C  12,H  23)          109.3898         0.291959   
     72. A(H  21,C  12,H  23)          108.6216         0.291751   
     73. A(C   6,C  12,H  23)          109.1094         0.325307   
     74. A(H  21,C  12,H  22)          108.8066         0.291728   
     75. A(C   6,C  12,H  22)          110.4412         0.325280   
     76. A(C   6,C  12,H  21)          110.4409         0.325038   
     77. D(N   2,C   1,N   0,C   4)     -0.0055         0.029566   
     78. D(N   2,C   1,N   0,C   5)    179.9973         0.029566   
     79. D(C   3,N   2,C   1,N   0)      0.0086         0.028884   
     80. D(C   6,N   2,C   1,N   0)    179.9226         0.028884   
     81. D(H  13,C   3,N   2,C   6)      0.0964         0.028988   
     82. D(C   4,C   3,N   2,C   1)     -0.0086         0.028988   
     83. D(H  13,C   3,N   2,C   1)   -179.9912         0.028988   
     84. D(C   4,C   3,N   2,C   6)   -179.9211         0.028988   
     85. D(H  14,C   4,C   3,N   2)    179.9901         0.036483   
     86. D(H  14,C   4,N   0,C   5)      0.0110         0.028439   
     87. D(N   0,C   4,C   3,N   2)      0.0048         0.036483   
     88. D(N   0,C   4,C   3,H  13)    179.9854         0.036483   
     89. D(C   3,C   4,N   0,C   5)    179.9976         0.028439   
     90. D(C   3,C   4,N   0,C   1)      0.0005         0.028439   
     91. D(H  14,C   4,C   3,H  13)     -0.0293         0.036483   
     92. D(H  14,C   4,N   0,C   1)   -179.9861         0.028439   
     93. D(H   8,C   5,N   0,C   4)    179.8973         0.018164   
     94. D(C   9,C   5,N   0,C   4)     61.9100         0.018164   
     95. D(H   8,C   5,N   0,C   1)     -0.1058         0.018164   
     96. D(C   9,C   5,N   0,C   1)   -118.0932         0.018164   
     97. D(C   7,C   5,N   0,C   4)    -62.1218         0.018164   
     98. D(C   7,C   5,N   0,C   1)    117.8751         0.018164   
     99. D(C  12,C   6,N   2,C   3)    118.5340         0.017958   
    100. D(C  11,C   6,N   2,C   3)   -119.3732         0.017958   
    101. D(C  11,C   6,N   2,C   1)     60.7242         0.017958   
    102. D(C  12,C   6,N   2,C   1)    -61.3686         0.017958   
    103. D(H  10,C   6,N   2,C   3)     -0.4128         0.017958   
    104. D(H  10,C   6,N   2,C   1)    179.6845         0.017958   
    105. D(H  18,C   7,C   5,H   8)    -59.4196         0.011196   
    106. D(H  18,C   7,C   5,N   0)   -175.0329         0.011196   
    107. D(H  18,C   7,C   5,C   9)     61.2223         0.011196   
    108. D(H  20,C   7,C   5,C   9)   -178.9326         0.011196   
    109. D(H  20,C   7,C   5,H   8)     60.4255         0.011196   
    110. D(H  20,C   7,C   5,N   0)    -55.1879         0.011196   
    111. D(H  19,C   7,C   5,C   9)    -58.7910         0.011196   
    112. D(H  19,C   7,C   5,H   8)   -179.4329         0.011196   
    113. D(H  19,C   7,C   5,N   0)     64.9537         0.011196   
    114. D(H  17,C   9,C   5,H   8)    -60.4901         0.011200   
    115. D(H  17,C   9,C   5,C   7)    178.8701         0.011200   
    116. D(H  17,C   9,C   5,N   0)     55.1280         0.011200   
    117. D(H  16,C   9,C   5,H   8)     59.3546         0.011200   
    118. D(H  16,C   9,C   5,C   7)    -61.2853         0.011200   
    119. D(H  16,C   9,C   5,N   0)    174.9727         0.011200   
    120. D(H  15,C   9,C   5,H   8)    179.3646         0.011200   
    121. D(H  15,C   9,C   5,C   7)     58.7248         0.011200   
    122. D(H  15,C   9,C   5,N   0)    -65.0173         0.011200   
    123. D(H  26,C  11,C   6,H  10)    -58.0351         0.011278   
    124. D(H  26,C  11,C   6,N   2)     59.7627         0.011278   
    125. D(H  25,C  11,C   6,C  12)    -58.4618         0.011278   
    126. D(H  25,C  11,C   6,H  10)     62.3680         0.011278   
    127. D(H  25,C  11,C   6,N   2)   -179.8342         0.011278   
    128. D(H  24,C  11,C   6,C  12)     61.8152         0.011278   
    129. D(H  24,C  11,C   6,H  10)   -177.3550         0.011278   
    130. D(H  26,C  11,C   6,C  12)   -178.8648         0.011278   
    131. D(H  24,C  11,C   6,N   2)    -59.5572         0.011278   
    132. D(H  23,C  12,C   6,N   2)     59.5289         0.011271   
    133. D(H  22,C  12,C   6,C  11)     58.4226         0.011271   
    134. D(H  22,C  12,C   6,H  10)    -62.4112         0.011271   
    135. D(H  22,C  12,C   6,N   2)    179.8004         0.011271   
    136. D(H  21,C  12,C   6,C  11)    178.8251         0.011271   
    137. D(H  21,C  12,C   6,H  10)     57.9912         0.011271   
    138. D(H  23,C  12,C   6,H  10)    177.3172         0.011271   
    139. D(H  21,C  12,C   6,N   2)    -59.7971         0.011271   
    140. D(H  23,C  12,C   6,C  11)    -61.8489         0.011271   
    -----------------------------------------------------------------

Number of atoms                         .... 27
Number of degrees of freedom            .... 140

         *************************************************************
         *                GEOMETRY OPTIMIZATION CYCLE   1            *
         *************************************************************
---------------------------------
CARTESIAN COORDINATES (ANGSTROEM)
---------------------------------
  N     -0.989148   -0.001190   -0.027493
  C      0.182683    0.000449    0.655046
  N      1.119853   -0.003646   -0.329216
  C      0.548222   -0.007482   -1.575478
  C     -0.790621   -0.006001   -1.386605
  C     -2.275924    0.001905    0.624669
  C      2.540862   -0.002044   -0.071843
  C     -3.061467    1.265034    0.269365
  H     -2.057098    0.003566    1.698812
  C     -3.065314   -1.260056    0.273978
  H      3.053346   -0.011979   -1.042761
  C      2.923339   -1.253284    0.717906
  C      2.924848    1.264358    0.692777
  H      1.126451   -0.011161   -2.478120
  H     -1.589536   -0.007756   -2.099522
  H     -3.306169   -1.282042   -0.786758
  H     -3.993146   -1.289025    0.839117
  H     -2.481769   -2.145555    0.515713
  H     -3.989730    1.298391    0.833545
  H     -3.301212    1.284385   -0.791665
  H     -2.475602    2.149573    0.508918
  H      2.668110    2.149685    0.114877
  H      3.992361    1.276038    0.895974
  H      2.378582    1.292419    1.631671
  H      2.377505   -1.261590    1.657395
  H      3.990959   -1.262400    0.920656
  H      2.664908   -2.149628    0.158124

----------------------------
CARTESIAN COORDINATES (A.U.)
----------------------------
  NO LB      ZA    FRAG     MASS         X           Y           Z
   0 N     7.0000    0    14.007   -1.869220   -0.002250   -0.051955
   1 C     6.0000    0    12.011    0.345222    0.000848    1.237858
   2 N     7.0000    0    14.007    2.116216   -0.006891   -0.622127
   3 C     6.0000    0    12.011    1.035990   -0.014139   -2.977222
   4 C     6.0000    0    12.011   -1.494056   -0.011341   -2.620304
   5 C     6.0000    0    12.011   -4.300873    0.003601    1.180454
   6 C     6.0000    0    12.011    4.801532   -0.003863   -0.135764
   7 C     6.0000    0    12.011   -5.785335    2.390567    0.509025
   8 H     1.0000    0     1.008   -3.887351    0.006738    3.210289
   9 C     6.0000    0    12.011   -5.792603   -2.381160    0.517744
  10 H     1.0000    0     1.008    5.769988   -0.022638   -1.970533
  11 C     6.0000    0    12.011    5.524310   -2.368363    1.356646
  12 C     6.0000    0    12.011    5.527163    2.389290    1.309159
  13 H     1.0000    0     1.008    2.128683   -0.021091   -4.682968
  14 H     1.0000    0     1.008   -3.003788   -0.014657   -3.967521
  15 H     1.0000    0     1.008   -6.247754   -2.422708   -1.486758
  16 H     1.0000    0     1.008   -7.545952   -2.435904    1.585702
  17 H     1.0000    0     1.008   -4.689864   -4.054511    0.974557
  18 H     1.0000    0     1.008   -7.539498    2.453603    1.575172
  19 H     1.0000    0     1.008   -6.238386    2.427135   -1.496030
  20 H     1.0000    0     1.008   -4.678210    4.062104    0.961716
  21 H     1.0000    0     1.008    5.041997    4.062315    0.217085
  22 H     1.0000    0     1.008    7.544469    2.411362    1.693145
  23 H     1.0000    0     1.008    4.494869    2.442318    3.083411
  24 H     1.0000    0     1.008    4.492832   -2.384060    3.132023
  25 H     1.0000    0     1.008    7.541819   -2.385591    1.739788
  26 H     1.0000    0     1.008    5.035946   -4.062208    0.298811

--------------------------------
INTERNAL COORDINATES (ANGSTROEM)
--------------------------------
 N      0   0   0     0.000000000000     0.00000000     0.00000000
 C      1   0   0     1.356116824064     0.00000000     0.00000000
 N      2   1   0     1.359071506179   103.37686061     0.00000000
 C      3   2   1     1.371111751864   111.76450289     0.00000000
 C      4   3   2     1.352100244639   106.60969439     0.00000000
 C      1   2   3     1.442607429970   122.90405994   179.99733403
 C      3   2   1     1.444128743826   123.32950532   179.92263901
 C      6   1   2     1.529318011482   110.78814068   117.87506168
 H      6   1   2     1.096206835845   105.36209494   359.89415972
 C      6   1   2     1.529269833872   110.79273584   241.90680550
 H      7   3   2     1.097916902728   107.55920319   179.68449642
 C      7   3   2     1.528264814274   109.72166418    60.72418037
 C      7   3   2     1.528353568517   109.71250481   298.63136504
 H      4   3   2     1.071971682570   122.71703144   180.00884048
 H      5   4   3     1.070756422090   130.22561991   179.99006525
 H     10   6   1     1.087959914237   110.76479395   294.98265831
 H     10   6   1     1.086781480568   110.08655941   174.97265126
 H     10   6   1     1.087689492150   110.11515878    55.12796168
 H      8   6   1     1.086777111418   110.08888054   184.96705279
 H      8   6   1     1.087950006657   110.76045729    64.95369827
 H      8   6   1     1.087673545336   110.11124247   304.81213220
 H     13   7   3     1.087974113176   110.44089384   300.20289650
 H     13   7   3     1.086742269344   110.44115558   179.80043179
 H     13   7   3     1.086607301395   109.10940125    59.52889105
 H     12   7   3     1.086574249265   109.10787799   300.44279256
 H     12   7   3     1.086739738045   110.43501086   180.16581475
 H     12   7   3     1.087922388066   110.43904167    59.76274075

---------------------------
INTERNAL COORDINATES (A.U.)
---------------------------
 N      0   0   0     0.000000000000     0.00000000     0.00000000
 C      1   0   0     2.562689403084     0.00000000     0.00000000
 N      2   1   0     2.568272943094   103.37686061     0.00000000
 C      3   2   1     2.591025710023   111.76450289     0.00000000
 C      4   3   2     2.555099167975   106.60969439     0.00000000
 C      1   2   3     2.726132961403   122.90405994   179.99733403
 C      3   2   1     2.729007827954   123.32950532   179.92263901
 C      6   1   2     2.889992213374   110.78814068   117.87506168
 H      6   1   2     2.071530705879   105.36209494   359.89415972
 C      6   1   2     2.889901170886   110.79273584   241.90680550
 H      7   3   2     2.074762263960   107.55920319   179.68449642
 C      7   3   2     2.888001959085   109.72166418    60.72418037
 C      7   3   2     2.888169680299   109.71250481   298.63136504
 H      4   3   2     2.025732903375   122.71703144   180.00884048
 H      5   4   3     2.023436393887   130.22561991   179.99006525
 H     10   6   1     2.055946282593   110.76479395   294.98265831
 H     10   6   1     2.053719365692   110.08655941   174.97265126
 H     10   6   1     2.055435258907   110.11515878    55.12796168
 H      8   6   1     2.053711109194   110.08888054   184.96705279
 H      8   6   1     2.055927559980   110.76045729    64.95369827
 H      8   6   1     2.055405123797   110.11124247   304.81213220
 H     13   7   3     2.055973114698   110.44089384   300.20289650
 H     13   7   3     2.053645267216   110.44115558   179.80043179
 H     13   7   3     2.053390214756   109.10940125    59.52889105
 H     12   7   3     2.053327755281   109.10787799   300.44279256
 H     12   7   3     2.053640483754   110.43501086   180.16581475
 H     12   7   3     2.055875368405   110.43904167    59.76274075

---------------------
BASIS SET INFORMATION
---------------------
There are 3 groups of distinct atoms

 Group   1 Type N   : 7s4p1d contracted to 3s2p1d pattern {511/31/1}
 Group   2 Type C   : 7s4p1d contracted to 3s2p1d pattern {511/31/1}
 Group   3 Type H   : 4s1p contracted to 2s1p pattern {31/1}

Atom   0N    basis set group =>   1
Atom   1C    basis set group =>   2
Atom   2N    basis set group =>   1
Atom   3C    basis set group =>   2
Atom   4C    basis set group =>   2
Atom   5C    basis set group =>   2
Atom   6C    basis set group =>   2
Atom   7C    basis set group =>   2
Atom   8H    basis set group =>   3
Atom   9C    basis set group =>   2
Atom  10H    basis set group =>   3
Atom  11C    basis set group =>   2
Atom  12C    basis set group =>   2
Atom  13H    basis set group =>   3
Atom  14H    basis set group =>   3
Atom  15H    basis set group =>   3
Atom  16H    basis set group =>   3
Atom  17H    basis set group =>   3
Atom  18H    basis set group =>   3
Atom  19H    basis set group =>   3
Atom  20H    basis set group =>   3
Atom  21H    basis set group =>   3
Atom  22H    basis set group =>   3
Atom  23H    basis set group =>   3
Atom  24H    basis set group =>   3
Atom  25H    basis set group =>   3
Atom  26H    basis set group =>   3
---------------------------------
AUXILIARY/J BASIS SET INFORMATION
---------------------------------
There are 3 groups of distinct atoms

 Group   1 Type N   : 12s5p4d2f1g contracted to 6s4p3d1f1g pattern {711111/2111/211/2/1}
 Group   2 Type C   : 12s5p4d2f1g contracted to 6s4p3d1f1g pattern {711111/2111/211/2/1}
 Group   3 Type H   : 5s2p1d contracted to 3s1p1d pattern {311/2/1}

Atom   0N    basis set group =>   1
Atom   1C    basis set group =>   2
Atom   2N    basis set group =>   1
Atom   3C    basis set group =>   2
Atom   4C    basis set group =>   2
Atom   5C    basis set group =>   2
Atom   6C    basis set group =>   2
Atom   7C    basis set group =>   2
Atom   8H    basis set group =>   3
Atom   9C    basis set group =>   2
Atom  10H    basis set group =>   3
Atom  11C    basis set group =>   2
Atom  12C    basis set group =>   2
Atom  13H    basis set group =>   3
Atom  14H    basis set group =>   3
Atom  15H    basis set group =>   3
Atom  16H    basis set group =>   3
Atom  17H    basis set group =>   3
Atom  18H    basis set group =>   3
Atom  19H    basis set group =>   3
Atom  20H    basis set group =>   3
Atom  21H    basis set group =>   3
Atom  22H    basis set group =>   3
Atom  23H    basis set group =>   3
Atom  24H    basis set group =>   3
Atom  25H    basis set group =>   3
Atom  26H    basis set group =>   3
------------------------------------------------------------------------------
                           ORCA GTO INTEGRAL CALCULATION
                           -- RI-GTO INTEGRALS CHOSEN --
------------------------------------------------------------------------------
------------------------------------------------------------------------------
                   ___                                                        
                  /   \      - P O W E R E D   B Y -                         
                 /     \                                                     
                 |  |  |   _    _      __       _____    __    __             
                 |  |  |  | |  | |    /  \     |  _  \  |  |  /  |          
                  \  \/   | |  | |   /    \    | | | |  |  | /  /          
                 / \  \   | |__| |  /  /\  \   | |_| |  |  |/  /          
                |  |  |   |  __  | /  /__\  \  |    /   |      \           
                |  |  |   | |  | | |   __   |  |    \   |  |\   \          
                \     /   | |  | | |  |  |  |  | |\  \  |  | \   \       
                 \___/    |_|  |_| |__|  |__|  |_| \__\ |__|  \__/        
                                                                              
                      - O R C A' S   B I G   F R I E N D -                    
                                      &                                       
                       - I N T E G R A L  F E E D E R -                       
                                                                              
 v1 FN, 2020, v2 2021                                                         
------------------------------------------------------------------------------


Reading SHARK input file 4_deprot_aq_2.SHARKINP.tmp ... ok
----------------------
SHARK INTEGRAL PACKAGE
----------------------

Number of atoms                             ...     27
Number of basis functions                   ...    234
Number of shells                            ...    114
Maximum angular momentum                    ...      2
Integral batch strategy                     ... SHARK/LIBINT Hybrid
RI-J (if used) integral strategy            ... SPLIT-RIJ (Revised 2003 algorithm where possible)
Printlevel                                  ...      1
Contraction scheme used                     ... SEGMENTED contraction
Coulomb Range Separation                    ... NOT USED
Exchange Range Separation                   ... Long Range
   Mu parameter                             ...  0.300000
   Scaling (regular/separated)              ...  0.157706  0.842294
Finite Nucleus Model                        ... NOT USED
Auxiliary Coulomb fitting basis             ... AVAILABLE
   # of basis functions in Aux-J            ...    715
   # of shells in Aux-J                     ...    245
   Maximum angular momentum in Aux-J        ...      4
Auxiliary J/K fitting basis                 ... NOT available
Auxiliary Correlation fitting basis         ... NOT available
Auxiliary 'external' fitting basis          ... NOT available
Integral threshold                          ...     2.500000e-11
Primitive cut-off                           ...     2.500000e-12
Primitive pair pre-selection threshold      ...     2.500000e-12

Calculating pre-screening integrals         ... done (  0.1 sec) Dimension = 114
Organizing shell pair data                  ... done (  0.0 sec)
Shell pair information
Total number of shell pairs                 ...      6555
Shell pairs after pre-screening             ...      5714
Total number of primitive shell pairs       ...     22769
Primitive shell pairs kept                  ...     14089
          la=0 lb=0:   1927 shell pairs
          la=1 lb=0:   2149 shell pairs
          la=1 lb=1:    619 shell pairs
          la=2 lb=0:    616 shell pairs
          la=2 lb=1:    346 shell pairs
          la=2 lb=2:     57 shell pairs

Calculating one electron integrals          ... done (  0.0 sec)
Calculating RI/J V-Matrix + Cholesky decomp.... done (  0.0 sec)
Calculating Nuclear repulsion               ... done (  0.0 sec) ENN=    637.471360867006 Eh

SHARK setup successfully completed in   0.4 seconds

Maximum memory used throughout the entire GTOINT-calculation: 35.6 MB
-------------------------------------------------------------------------------
                                 ORCA SCF
-------------------------------------------------------------------------------

------------
SCF SETTINGS
------------
Hamiltonian:
 Density Functional     Method          .... DFT(GTOs)
 Exchange Functional    Exchange        .... WB97X
 Correlation Functional Correlation     .... WB97X
 Gradients option       PostSCFGGA      .... off
 Hybrid DFT is turned on
   Fraction HF Exchange ScalHFX         ....  0.157706
   Scaling of DF-GGA-X  ScalDFX         ....  0.000000
   Scaling of DF-GGA-C  ScalDFC         ....  1.000000
   Scaling of DF-LDA-C  ScalLDAC        ....  1.000000
   Perturbative correction              ....  0.000000
   Density functional embedding theory  .... OFF
 Long-range corrected/Screened/Range-Separated Hybrid DFT is turned on
   Amount of maximum screened exact exchange              ....  0.842294
   Range separation parameter mu (erf(mu*r12)/r12)        ....  0.300000
 RI-approximation to the Coulomb term is turned on
   Number of AuxJ basis functions       .... 715
   RIJ-COSX (HFX calculated with COS-X)).... on


General Settings:
 Integral files         IntName         .... 4_deprot_aq_2
 Hartree-Fock type      HFTyp           .... RHF
 Total Charge           Charge          ....    0
 Multiplicity           Mult            ....    1
 Number of Electrons    NEL             ....   84
 Basis Dimension        Dim             ....  234
 Nuclear Repulsion      ENuc            ....    637.4713608670 Eh

Convergence Acceleration:
 DIIS                   CNVDIIS         .... on
   Start iteration      DIISMaxIt       ....     0
   Startup error        DIISStart       ....  0.200000
   # of expansion vecs  DIISMaxEq       ....     5
   Bias factor          DIISBfac        ....   1.050
   Max. coefficient     DIISMaxC        ....  10.000
 Trust-Rad. Augm. Hess. CNVTRAH         .... auto
   Auto Start mean grad. ratio tolernc. ....  1.125000
   Auto Start start iteration           ....    20
   Auto Start num. interpolation iter.  ....    10
   Max. Number of Micro iterations      ....    16
   Max. Number of Macro iterations      .... Maxiter - #DIIS iter
   Number of Davidson start vectors     ....     2
   Converg. threshold I  (grad. norm)   ....   1.000e-05
   Converg. threshold II (energy diff.) ....   1.000e-08
   Grad. Scal. Fac. for Micro threshold ....   0.100
   Minimum threshold for Micro iter.    ....   0.010
   NR start threshold (gradient norm)   ....   0.001
   Initial trust radius                 ....   0.400
   Minimum AH scaling param. (alpha)    ....   1.000
   Maximum AH scaling param. (alpha)    .... 1000.000
   Orbital update algorithm             .... Taylor
   White noise on init. David. guess    .... on
   Maximum white noise                  ....   0.010
   Quad. conv. algorithm                .... NR
 SOSCF                  CNVSOSCF        .... on
   Start iteration      SOSCFMaxIt      ....   150
   Startup grad/error   SOSCFStart      ....  0.001000
 Level Shifting         CNVShift        .... on
   Level shift para.    LevelShift      ....    0.2500
   Turn off err/grad.   ShiftErr        ....    0.0000
 Zerner damping         CNVZerner       .... off
 Static damping         CNVDamp         .... on
   Fraction old density DampFac         ....    0.8500
   Max. Damping (<1)    DampMax         ....    0.9800
   Min. Damping (>=0)   DampMin         ....    0.0000
   Turn off err/grad.   DampErr         ....    0.0300
 Fernandez-Rico         CNVRico         .... off

SCF Procedure:
 Maximum # iterations   MaxIter         ....   125
 SCF integral mode      SCFMode         .... Direct
   Integral package                     .... SHARK and LIBINT hybrid scheme
 Reset frequency        DirectResetFreq ....    20
 Integral Threshold     Thresh          ....  2.500e-11 Eh
 Primitive CutOff       TCut            ....  2.500e-12 Eh

Convergence Tolerance:
 Convergence Check Mode ConvCheckMode   .... Total+1el-Energy
 Convergence forced     ConvForced      .... 0
 Energy Change          TolE            ....  1.000e-08 Eh
 1-El. energy change                    ....  1.000e-05 Eh
 Orbital Gradient       TolG            ....  1.000e-05
 Orbital Rotation angle TolX            ....  1.000e-05
 DIIS Error             TolErr          ....  5.000e-07


Diagonalization of the overlap matrix:
Smallest eigenvalue                        ... 1.281e-03
Time for diagonalization                   ...    0.009 sec
Threshold for overlap eigenvalues          ... 1.000e-08
Number of eigenvalues below threshold      ... 0
Time for construction of square roots      ...    0.003 sec
Total time needed                          ...    0.013 sec

Time for model grid setup =    0.453 sec

------------------------------
INITIAL GUESS: MODEL POTENTIAL
------------------------------
Loading Hartree-Fock densities                     ... done
Calculating cut-offs                               ... done
Initializing the effective Hamiltonian             ... done
Setting up the integral package (SHARK)            ... done
Starting the Coulomb interaction                   ... done (   0.5 sec)
Reading the grid                                   ... done
Mapping shells                                     ... done
Starting the XC term evaluation                    ... done (   0.5 sec)
  promolecular density results
     # of electrons  =     83.985470329
     EX              =    -63.899590624
     EC              =     -2.782012523
     EX+EC           =    -66.681603147
Transforming the Hamiltonian                       ... done (   0.0 sec)
Diagonalizing the Hamiltonian                      ... done (   0.0 sec)
Back transforming the eigenvectors                 ... done (   0.0 sec)
Now organizing SCF variables                       ... done
                      ------------------
                      INITIAL GUESS DONE (   1.5 sec)
                      ------------------
-------------------
DFT GRID GENERATION
-------------------

General Integration Accuracy     IntAcc      ... 4.388
Radial Grid Type                 RadialGrid  ... OptM3 with GC (2021)
Angular Grid (max. ang.)         AngularGrid ... 4 (Lebedev-302)
Angular grid pruning method      GridPruning ... 4 (adaptive)
Weight generation scheme         WeightScheme... Becke
Basis function cutoff            BFCut       ... 1.0000e-11
Integration weight cutoff        WCut        ... 1.0000e-14
Angular grids for H and He will be reduced by one unit
Partially contracted basis set               ... off
Rotationally invariant grid construction     ... off

Total number of grid points                  ...   116957
Total number of batches                      ...     1843
Average number of points per batch           ...       63
Average number of grid points per atom       ...     4332
Time for grid setup =    1.686 sec

--------------------
COSX GRID GENERATION
--------------------

GRIDX 1
-------
General Integration Accuracy     IntAcc      ... 3.816
Radial Grid Type                 RadialGrid  ... OptM3 with GC (2021)
Angular Grid (max. ang.)         AngularGrid ... 1 (Lebedev-50)
Angular grid pruning method      GridPruning ... 4 (adaptive)
Weight generation scheme         WeightScheme... Becke
Basis function cutoff            BFCut       ... 1.0000e-11
Integration weight cutoff        WCut        ... 1.0000e-14
Angular grids for H and He will be reduced by one unit
Partially contracted basis set               ... on
Rotationally invariant grid construction     ... off

Total number of grid points                  ...    14981
Total number of batches                      ...      248
Average number of points per batch           ...       60
Average number of grid points per atom       ...      555
UseSFitting                                  ... on

GRIDX 2
-------
General Integration Accuracy     IntAcc      ... 4.020
Radial Grid Type                 RadialGrid  ... OptM3 with GC (2021)
Angular Grid (max. ang.)         AngularGrid ... 2 (Lebedev-110)
Angular grid pruning method      GridPruning ... 4 (adaptive)
Weight generation scheme         WeightScheme... Becke
Basis function cutoff            BFCut       ... 1.0000e-11
Integration weight cutoff        WCut        ... 1.0000e-14
Angular grids for H and He will be reduced by one unit
Partially contracted basis set               ... on
Rotationally invariant grid construction     ... off

Total number of grid points                  ...    31443
Total number of batches                      ...      506
Average number of points per batch           ...       62
Average number of grid points per atom       ...     1165
UseSFitting                                  ... on

GRIDX 3
-------
General Integration Accuracy     IntAcc      ... 4.338
Radial Grid Type                 RadialGrid  ... OptM3 with GC (2021)
Angular Grid (max. ang.)         AngularGrid ... 3 (Lebedev-194)
Angular grid pruning method      GridPruning ... 4 (adaptive)
Weight generation scheme         WeightScheme... Becke
Basis function cutoff            BFCut       ... 1.0000e-11
Integration weight cutoff        WCut        ... 1.0000e-14
Angular grids for H and He will be reduced by one unit
Partially contracted basis set               ... on
Rotationally invariant grid construction     ... off

Total number of grid points                  ...    68526
Total number of batches                      ...     1086
Average number of points per batch           ...       63
Average number of grid points per atom       ...     2538
UseSFitting                                  ... on

Time for X-Grid setup             =    2.341 sec


--------------------
CPCM SOLVATION MODEL
--------------------
CPCM parameters:
  Epsilon                                         ...      80.4000
  Refrac                                          ...       1.3300
  Rsolv                                           ...       1.3000
  Surface type                                    ... GAUSSIAN VDW
  Epsilon function type                           ...         CPCM
Radii:
 Radius for N  used is    3.5149 Bohr (=   1.8600 Ang.)
 Radius for C  used is    3.8550 Bohr (=   2.0400 Ang.)
 Radius for H  used is    2.4944 Bohr (=   1.3200 Ang.)
Calculating surface                               ...        done! (  0.0s)
GEPOL surface points                              ...         1453
GEPOL Volume                                      ...    1441.4912
GEPOL Surface-area                                ...     797.0949
Calculating surface distance matrix               ...        done! (  0.0s)
Performing Cholesky decomposition & store         ...        done! (  0.1s)
Overall time for CPCM initialization              ...                 0.1s
--------------
SCF ITERATIONS
--------------
ITER       Energy         Delta-E        Max-DP      RMS-DP      [F,P]     Damp
               ***  Starting incremental Fock matrix formation  ***
  0   -461.3650258868   0.000000000000 0.03515364  0.00072844  0.1550072 0.8500
  1   -461.4180900215  -0.053064134677 0.03739443  0.00069531  0.1251036 0.8500
                               ***Turning on DIIS***
  2   -461.4587307967  -0.040640775178 0.03296203  0.00057105  0.0962455 0.8500
  3   -461.4890598222  -0.030329025583 0.02706693  0.00040661  0.0731172 0.8500
  4   -461.5124943213  -0.023434499103 0.02246356  0.00030976  0.0582831 0.8500
  5   -461.5309650550  -0.018470733654 0.01894111  0.00025269  0.0482209 0.8500
  6   -461.5459668624  -0.015001807435 0.01611259  0.00021239  0.0405707 0.8500
  7   -461.5583665451  -0.012399682713 0.01382537  0.00018237  0.0343660 0.8500
  8   -461.5687241323  -0.010357587174 0.07941837  0.00104556  0.0290689 0.0000
  9   -461.6243415245  -0.055617392133 0.00150286  0.00003962  0.0012264 0.0000
                      *** Initiating the SOSCF procedure ***
                           *** Shutting down DIIS ***
                      *** Re-Reading the Fockian *** 
                      *** Removing any level shift *** 
ITER      Energy       Delta-E        Grad      Rot      Max-DP    RMS-DP
 10   -461.62436302  -0.0000214919  0.000199  0.000199  0.000676  0.000018
               *** Restarting incremental Fock matrix formation ***
 11   -461.62436419  -0.0000011731  0.000192  0.000428  0.000633  0.000013
 12   -461.62436493  -0.0000007442  0.000067  0.000227  0.000252  0.000009
 13   -461.62436514  -0.0000002102  0.000027  0.000026  0.000176  0.000003
 14   -461.62436517  -0.0000000232  0.000007  0.000017  0.000067  0.000001
                  ***Gradient check signals convergence***
              ***Rediagonalizing the Fockian in SOSCF/NRSCF***

               *****************************************************
               *                     SUCCESS                       *
               *           SCF CONVERGED AFTER  15 CYCLES          *
               *****************************************************

Old exchange energy                            =    -21.383565054 Eh
New exchange energy                            =    -21.383635363 Eh
Exchange energy change after final integration =     -0.000070309 Eh
Total energy after final integration           =   -461.624435482 Eh
Final COS-X integration done in                =    56.946 sec

----------------
TOTAL SCF ENERGY
----------------

Total Energy       :         -461.62443548 Eh          -12561.43950 eV

Components:
Nuclear Repulsion  :          637.47136087 Eh           17346.47761 eV
Electronic Energy  :        -1099.09579635 Eh          -29907.91711 eV
One Electron Energy:        -1886.50239693 Eh          -51334.34001 eV
Two Electron Energy:          787.40660058 Eh           21426.42290 eV
Max COSX asymmetry :            0.00000331 Eh               0.00009 eV
CPCM Dielectric    :           -0.01466795 Eh              -0.39914 eV

Virial components:
Potential Energy   :         -918.05692944 Eh          -24981.59909 eV
Kinetic Energy     :          456.43249396 Eh           12420.15959 eV
Virial Ratio       :            2.01137505


DFT components:
N(Alpha)           :       42.000071019467 electrons
N(Beta)            :       42.000071019467 electrons
N(Total)           :       84.000142038934 electrons
E(XC)              :      -47.163701594033 Eh       
DFET-embed. en.    :        0.000000000000 Eh       
CPCM Solvation Model Properties:
Surface-charge          :           -0.02654850
Charge-correction       :           -0.00041885 Eh              -0.01140 eV
Free-energy (cav+disp)  :  This term is not implemented in the current solvation scheme

---------------
SCF CONVERGENCE
---------------

  Last Energy change         ...   -5.8129e-09  Tolerance :   1.0000e-08
  Last MAX-Density change    ...    3.1086e-15  Tolerance :   1.0000e-07
  Last RMS-Density change    ...    3.6989e-17  Tolerance :   5.0000e-09
  Last Orbital Gradient      ...    2.3138e-06  Tolerance :   1.0000e-05
  Last Orbital Rotation      ...    7.9006e-06  Tolerance :   1.0000e-05

             **** THE GBW FILE WAS UPDATED (4_deprot_aq_2.gbw) ****
             **** DENSITY 4_deprot_aq_2.scfp WAS UPDATED ****
             **** ENERGY FILE WAS UPDATED (4_deprot_aq_2.en.tmp) ****
             **** THE GBW FILE WAS UPDATED (4_deprot_aq_2.gbw) ****
             **** DENSITY 4_deprot_aq_2.scfp WAS UPDATED ****
----------------
ORBITAL ENERGIES
----------------

  NO   OCC          E(Eh)            E(eV) 
   0   2.0000     -14.446711      -393.1150 
   1   2.0000     -14.445039      -393.0695 
   2   2.0000     -10.306102      -280.4433 
   3   2.0000     -10.305602      -280.4297 
   4   2.0000     -10.291099      -280.0350 
   5   2.0000     -10.289142      -279.9818 
   6   2.0000     -10.273223      -279.5486 
   7   2.0000     -10.257983      -279.1339 
   8   2.0000     -10.257969      -279.1335 
   9   2.0000     -10.254597      -279.0418 
  10   2.0000     -10.254554      -279.0406 
  11   2.0000      -1.153107       -31.3776 
  12   2.0000      -1.048168       -28.5221 
  13   2.0000      -0.937958       -25.5231 
  14   2.0000      -0.884940       -24.0804 
  15   2.0000      -0.861457       -23.4414 
  16   2.0000      -0.809992       -22.0410 
  17   2.0000      -0.806885       -21.9565 
  18   2.0000      -0.773670       -21.0526 
  19   2.0000      -0.739246       -20.1159 
  20   2.0000      -0.684333       -18.6217 
  21   2.0000      -0.662906       -18.0386 
  22   2.0000      -0.625365       -17.0170 
  23   2.0000      -0.580220       -15.7886 
  24   2.0000      -0.578410       -15.7393 
  25   2.0000      -0.568111       -15.4591 
  26   2.0000      -0.556038       -15.1306 
  27   2.0000      -0.536026       -14.5860 
  28   2.0000      -0.533952       -14.5296 
  29   2.0000      -0.530216       -14.4279 
  30   2.0000      -0.499583       -13.5943 
  31   2.0000      -0.492572       -13.4036 
  32   2.0000      -0.483852       -13.1663 
  33   2.0000      -0.483250       -13.1499 
  34   2.0000      -0.472151       -12.8479 
  35   2.0000      -0.455597       -12.3974 
  36   2.0000      -0.442615       -12.0442 
  37   2.0000      -0.442466       -12.0401 
  38   2.0000      -0.437964       -11.9176 
  39   2.0000      -0.369990       -10.0679 
  40   2.0000      -0.321636        -8.7522 
  41   2.0000      -0.320546        -8.7225 
  42   0.0000       0.126993         3.4557 
  43   0.0000       0.128578         3.4988 
  44   0.0000       0.153215         4.1692 
  45   0.0000       0.157417         4.2835 
  46   0.0000       0.182235         4.9589 
  47   0.0000       0.189637         5.1603 
  48   0.0000       0.202553         5.5118 
  49   0.0000       0.210770         5.7354 
  50   0.0000       0.212608         5.7853 
  51   0.0000       0.215354         5.8601 
  52   0.0000       0.219936         5.9848 
  53   0.0000       0.232657         6.3309 
  54   0.0000       0.247911         6.7460 
  55   0.0000       0.258732         7.0404 
  56   0.0000       0.261655         7.1200 
  57   0.0000       0.272592         7.4176 
  58   0.0000       0.275188         7.4882 
  59   0.0000       0.276789         7.5318 
  60   0.0000       0.280296         7.6272 
  61   0.0000       0.282960         7.6997 
  62   0.0000       0.292348         7.9552 
  63   0.0000       0.328884         8.9494 
  64   0.0000       0.339836         9.2474 
  65   0.0000       0.354123         9.6362 
  66   0.0000       0.358803         9.7635 
  67   0.0000       0.370496        10.0817 
  68   0.0000       0.375152        10.2084 
  69   0.0000       0.430697        11.7198 
  70   0.0000       0.453603        12.3432 
  71   0.0000       0.489172        13.3111 
  72   0.0000       0.493046        13.4165 
  73   0.0000       0.514387        13.9972 
  74   0.0000       0.517699        14.0873 
  75   0.0000       0.523096        14.2342 
  76   0.0000       0.524354        14.2684 
  77   0.0000       0.527842        14.3633 
  78   0.0000       0.567770        15.4498 
  79   0.0000       0.573101        15.5949 
  80   0.0000       0.603719        16.4280 
  81   0.0000       0.635484        17.2924 
  82   0.0000       0.639992        17.4151 
  83   0.0000       0.648892        17.6573 
  84   0.0000       0.672811        18.3081 
  85   0.0000       0.686992        18.6940 
  86   0.0000       0.687247        18.7009 
  87   0.0000       0.693104        18.8603 
  88   0.0000       0.694919        18.9097 
  89   0.0000       0.713030        19.4025 
  90   0.0000       0.740879        20.1604 
  91   0.0000       0.743929        20.2433 
  92   0.0000       0.749974        20.4078 
  93   0.0000       0.751492        20.4491 
  94   0.0000       0.765990        20.8437 
  95   0.0000       0.770498        20.9663 
  96   0.0000       0.780460        21.2374 
  97   0.0000       0.782154        21.2835 
  98   0.0000       0.783998        21.3337 
  99   0.0000       0.789133        21.4734 
 100   0.0000       0.791131        21.5278 
 101   0.0000       0.805211        21.9109 
 102   0.0000       0.806282        21.9401 
 103   0.0000       0.812873        22.1194 
 104   0.0000       0.813489        22.1362 
 105   0.0000       0.816618        22.2213 
 106   0.0000       0.823957        22.4210 
 107   0.0000       0.826029        22.4774 
 108   0.0000       0.835712        22.7409 
 109   0.0000       0.840108        22.8605 
 110   0.0000       0.850606        23.1462 
 111   0.0000       0.861983        23.4557 
 112   0.0000       0.862171        23.4609 
 113   0.0000       0.872389        23.7389 
 114   0.0000       0.891836        24.2681 
 115   0.0000       0.938015        25.5247 
 116   0.0000       1.004789        27.3417 
 117   0.0000       1.010242        27.4901 
 118   0.0000       1.066422        29.0188 
 119   0.0000       1.077474        29.3196 
 120   0.0000       1.085639        29.5417 
 121   0.0000       1.142320        31.0841 
 122   0.0000       1.162679        31.6381 
 123   0.0000       1.180962        32.1356 
 124   0.0000       1.182774        32.1849 
 125   0.0000       1.202329        32.7170 
 126   0.0000       1.227137        33.3921 
 127   0.0000       1.244888        33.8751 
 128   0.0000       1.302453        35.4416 
 129   0.0000       1.321201        35.9517 
 130   0.0000       1.326224        36.0884 
 131   0.0000       1.357253        36.9327 
 132   0.0000       1.363645        37.1067 
 133   0.0000       1.412465        38.4351 
 134   0.0000       1.420308        38.6485 
 135   0.0000       1.471360        40.0377 
 136   0.0000       1.490275        40.5525 
 137   0.0000       1.527748        41.5721 
 138   0.0000       1.548618        42.1400 
 139   0.0000       1.577184        42.9174 
 140   0.0000       1.601285        43.5732 
 141   0.0000       1.651471        44.9388 
 142   0.0000       1.660088        45.1733 
 143   0.0000       1.663517        45.2666 
 144   0.0000       1.665150        45.3110 
 145   0.0000       1.667978        45.3880 
 146   0.0000       1.673135        45.5283 
 147   0.0000       1.709266        46.5115 
 148   0.0000       1.784604        48.5615 
 149   0.0000       1.811521        49.2940 
 150   0.0000       1.815751        49.4091 
 151   0.0000       1.837118        49.9905 
 152   0.0000       1.851624        50.3852 
 153   0.0000       1.858146        50.5627 
 154   0.0000       1.895178        51.5704 
 155   0.0000       1.896419        51.6042 
 156   0.0000       1.905989        51.8646 
 157   0.0000       1.918962        52.2176 
 158   0.0000       1.921045        52.2743 
 159   0.0000       1.930695        52.5369 
 160   0.0000       1.939990        52.7898 
 161   0.0000       1.947818        53.0028 
 162   0.0000       1.950917        53.0872 
 163   0.0000       1.957038        53.2537 
 164   0.0000       1.962118        53.3919 
 165   0.0000       1.970286        53.6142 
 166   0.0000       1.983232        53.9665 
 167   0.0000       1.996119        54.3172 
 168   0.0000       1.998416        54.3797 
 169   0.0000       2.000962        54.4489 
 170   0.0000       2.002496        54.4907 
 171   0.0000       2.010014        54.6953 
 172   0.0000       2.035429        55.3869 
 173   0.0000       2.056715        55.9661 
 174   0.0000       2.063196        56.1424 
 175   0.0000       2.069159        56.3047 
 176   0.0000       2.096085        57.0374 
 177   0.0000       2.097675        57.0806 
 178   0.0000       2.109379        57.3991 
 179   0.0000       2.172352        59.1127 
 180   0.0000       2.176468        59.2247 
 181   0.0000       2.182687        59.3939 
 182   0.0000       2.233827        60.7855 
 183   0.0000       2.252392        61.2907 
 184   0.0000       2.271631        61.8142 
 185   0.0000       2.277890        61.9846 
 186   0.0000       2.317860        63.0722 
 187   0.0000       2.346168        63.8425 
 188   0.0000       2.382545        64.8324 
 189   0.0000       2.383224        64.8508 
 190   0.0000       2.392497        65.1032 
 191   0.0000       2.423701        65.9523 
 192   0.0000       2.477386        67.4131 
 193   0.0000       2.483575        67.5815 
 194   0.0000       2.491062        67.7852 
 195   0.0000       2.518919        68.5433 
 196   0.0000       2.526509        68.7498 
 197   0.0000       2.530234        68.8512 
 198   0.0000       2.550722        69.4087 
 199   0.0000       2.580338        70.2146 
 200   0.0000       2.620774        71.3149 
 201   0.0000       2.624100        71.4054 
 202   0.0000       2.631681        71.6117 
 203   0.0000       2.634950        71.7006 
 204   0.0000       2.695350        73.3442 
 205   0.0000       2.706632        73.6512 
 206   0.0000       2.716624        73.9231 
 207   0.0000       2.730489        74.3004 
 208   0.0000       2.826452        76.9117 
 209   0.0000       2.832612        77.0793 
 210   0.0000       2.834589        77.1331 
 211   0.0000       2.851726        77.5994 
 212   0.0000       2.873452        78.1906 
 213   0.0000       2.903983        79.0214 
 214   0.0000       2.973589        80.9155 
 215   0.0000       2.989607        81.3514 
 216   0.0000       2.998560        81.5950 
 217   0.0000       3.007391        81.8353 
 218   0.0000       3.012620        81.9775 
 219   0.0000       3.015455        82.0547 
 220   0.0000       3.027933        82.3943 
 221   0.0000       3.047238        82.9195 
 222   0.0000       3.049671        82.9858 
 223   0.0000       3.094267        84.1993 
 224   0.0000       3.106121        84.5219 
 225   0.0000       3.127390        85.1006 
 226   0.0000       3.154882        85.8487 
 227   0.0000       3.159624        85.9777 
 228   0.0000       3.162716        86.0619 
 229   0.0000       3.190878        86.8282 
 230   0.0000       3.326997        90.5322 
 231   0.0000       3.461559        94.1938 
 232   0.0000       3.488490        94.9266 
 233   0.0000       3.695874       100.5698 

                    ********************************
                    * MULLIKEN POPULATION ANALYSIS *
                    ********************************

-----------------------
MULLIKEN ATOMIC CHARGES
-----------------------
   0 N :   -0.188239
   1 C :   -0.205056
   2 N :   -0.210804
   3 C :    0.025850
   4 C :    0.014271
   5 C :   -0.016045
   6 C :   -0.014438
   7 C :    0.004910
   8 H :    0.026470
   9 C :    0.004701
  10 H :    0.042723
  11 C :    0.013184
  12 C :    0.013423
  13 H :    0.051105
  14 H :    0.054253
  15 H :    0.030288
  16 H :    0.041566
  17 H :    0.033835
  18 H :    0.041528
  19 H :    0.030246
  20 H :    0.033769
  21 H :    0.030357
  22 H :    0.035298
  23 H :    0.020604
  24 H :    0.020614
  25 H :    0.035252
  26 H :    0.030335
Sum of atomic charges:   -0.0000000

--------------------------------
MULLIKEN REDUCED ORBITAL CHARGES
--------------------------------
  0 N s       :     3.377051  s :     3.377051
      pz      :     1.112229  p :     3.777924
      px      :     1.163815
      py      :     1.501880
      dz2     :     0.009012  d :     0.033264
      dxz     :     0.009558
      dyz     :     0.005713
      dx2y2   :     0.004600
      dxy     :     0.004381
  1 C s       :     3.609920  s :     3.609920
      pz      :     1.151191  p :     2.530094
      px      :     0.662971
      py      :     0.715932
      dz2     :     0.009497  d :     0.065042
      dxz     :     0.026518
      dyz     :     0.009593
      dx2y2   :     0.007705
      dxy     :     0.011730
  2 N s       :     3.390016  s :     3.390016
      pz      :     1.120502  p :     3.787992
      px      :     1.159078
      py      :     1.508413
      dz2     :     0.008205  d :     0.032795
      dxz     :     0.009418
      dyz     :     0.005832
      dx2y2   :     0.005208
      dxy     :     0.004133
  3 C s       :     3.144165  s :     3.144165
      pz      :     0.810565  p :     2.781030
      px      :     0.897405
      py      :     1.073060
      dz2     :     0.013131  d :     0.048955
      dxz     :     0.014830
      dyz     :     0.007132
      dx2y2   :     0.004754
      dxy     :     0.009109
  4 C s       :     3.145585  s :     3.145585
      pz      :     0.797296  p :     2.792016
      px      :     0.908141
      py      :     1.086580
      dz2     :     0.015542  d :     0.048128
      dxz     :     0.011875
      dyz     :     0.008851
      dx2y2   :     0.004932
      dxy     :     0.006928
  5 C s       :     3.087292  s :     3.087292
      pz      :     1.017271  p :     2.871315
      px      :     0.841266
      py      :     1.012777
      dz2     :     0.010630  d :     0.057439
      dxz     :     0.011707
      dyz     :     0.006065
      dx2y2   :     0.014500
      dxy     :     0.014537
  6 C s       :     3.090423  s :     3.090423
      pz      :     1.044590  p :     2.866554
      px      :     0.796093
      py      :     1.025872
      dz2     :     0.010532  d :     0.057460
      dxz     :     0.009148
      dyz     :     0.009439
      dx2y2   :     0.017473
      dxy     :     0.010869
  7 C s       :     2.988119  s :     2.988119
      pz      :     1.016705  p :     2.980283
      px      :     1.000180
      py      :     0.963398
      dz2     :     0.007422  d :     0.026688
      dxz     :     0.005197
      dyz     :     0.002391
      dx2y2   :     0.005064
      dxy     :     0.006614
  8 H s       :     0.952599  s :     0.952599
      pz      :     0.014810  p :     0.020931
      px      :     0.002821
      py      :     0.003301
  9 C s       :     2.988198  s :     2.988198
      pz      :     1.016784  p :     2.980413
      px      :     1.000080
      py      :     0.963549
      dz2     :     0.007406  d :     0.026688
      dxz     :     0.005213
      dyz     :     0.002392
      dx2y2   :     0.005065
      dxy     :     0.006612
 10 H s       :     0.936481  s :     0.936481
      pz      :     0.012383  p :     0.020796
      px      :     0.005003
      py      :     0.003410
 11 C s       :     2.986324  s :     2.986324
      pz      :     1.008436  p :     2.973757
      px      :     1.002594
      py      :     0.962726
      dz2     :     0.005102  d :     0.026734
      dxz     :     0.004525
      dyz     :     0.006778
      dx2y2   :     0.008177
      dxy     :     0.002152
 12 C s       :     2.986306  s :     2.986306
      pz      :     1.009255  p :     2.973539
      px      :     1.002529
      py      :     0.961755
      dz2     :     0.005019  d :     0.026732
      dxz     :     0.004506
      dyz     :     0.006869
      dx2y2   :     0.008165
      dxy     :     0.002172
 13 H s       :     0.924150  s :     0.924150
      pz      :     0.012795  p :     0.024745
      px      :     0.006632
      py      :     0.005318
 14 H s       :     0.920751  s :     0.920751
      pz      :     0.008776  p :     0.024997
      px      :     0.010758
      py      :     0.005462
 15 H s       :     0.945264  s :     0.945264
      pz      :     0.014996  p :     0.024448
      px      :     0.005308
      py      :     0.004143
 16 H s       :     0.933989  s :     0.933989
      pz      :     0.007781  p :     0.024444
      px      :     0.012427
      py      :     0.004237
 17 H s       :     0.942065  s :     0.942065
      pz      :     0.005403  p :     0.024100
      px      :     0.007601
      py      :     0.011096
 18 H s       :     0.934028  s :     0.934028
      pz      :     0.007769  p :     0.024445
      px      :     0.012436
      py      :     0.004239
 19 H s       :     0.945307  s :     0.945307
      pz      :     0.015001  p :     0.024447
      px      :     0.005306
      py      :     0.004140
 20 H s       :     0.942130  s :     0.942130
      pz      :     0.005392  p :     0.024101
      px      :     0.007629
      py      :     0.011079
 21 H s       :     0.945511  s :     0.945511
      pz      :     0.007557  p :     0.024132
      px      :     0.005484
      py      :     0.011092
 22 H s       :     0.940319  s :     0.940319
      pz      :     0.005175  p :     0.024384
      px      :     0.015010
      py      :     0.004198
 23 H s       :     0.954704  s :     0.954704
      pz      :     0.012548  p :     0.024692
      px      :     0.007958
      py      :     0.004186
 24 H s       :     0.954681  s :     0.954681
      pz      :     0.012536  p :     0.024705
      px      :     0.007967
      py      :     0.004202
 25 H s       :     0.940366  s :     0.940366
      pz      :     0.005156  p :     0.024382
      px      :     0.015011
      py      :     0.004215
 26 H s       :     0.945530  s :     0.945530
      pz      :     0.007356  p :     0.024135
      px      :     0.005494
      py      :     0.011285


                     *******************************
                     * LOEWDIN POPULATION ANALYSIS *
                     *******************************

----------------------
LOEWDIN ATOMIC CHARGES
----------------------
   0 N :    0.046001
   1 C :   -0.312167
   2 N :    0.041095
   3 C :   -0.030264
   4 C :   -0.038816
   5 C :    0.025448
   6 C :    0.030675
   7 C :   -0.056149
   8 H :    0.026947
   9 C :   -0.056164
  10 H :    0.032088
  11 C :   -0.054778
  12 C :   -0.054778
  13 H :    0.035789
  14 H :    0.033982
  15 H :    0.026582
  16 H :    0.033731
  17 H :    0.027842
  18 H :    0.033709
  19 H :    0.026574
  20 H :    0.027819
  21 H :    0.026409
  22 H :    0.029603
  23 H :    0.021454
  24 H :    0.021393
  25 H :    0.029584
  26 H :    0.026391

-------------------------------
LOEWDIN REDUCED ORBITAL CHARGES
-------------------------------
  0 N s       :     3.057931  s :     3.057931
      pz      :     1.191641  p :     3.817973
      px      :     1.204737
      py      :     1.421595
      dz2     :     0.023027  d :     0.078095
      dxz     :     0.025797
      dyz     :     0.011275
      dx2y2   :     0.010236
      dxy     :     0.007759
  1 C s       :     3.194374  s :     3.194374
      pz      :     1.375517  p :     2.976851
      px      :     0.832954
      py      :     0.768380
      dz2     :     0.016676  d :     0.140942
      dxz     :     0.062108
      dyz     :     0.013689
      dx2y2   :     0.023022
      dxy     :     0.025447
  2 N s       :     3.057060  s :     3.057060
      pz      :     1.207135  p :     3.824344
      px      :     1.189932
      py      :     1.427277
      dz2     :     0.021573  d :     0.077502
      dxz     :     0.026202
      dyz     :     0.011309
      dx2y2   :     0.010999
      dxy     :     0.007418
  3 C s       :     2.853136  s :     2.853136
      pz      :     0.955453  p :     3.054402
      px      :     1.039778
      py      :     1.059171
      dz2     :     0.035069  d :     0.122726
      dxz     :     0.041184
      dyz     :     0.013817
      dx2y2   :     0.013662
      dxy     :     0.018994
  4 C s       :     2.850328  s :     2.850328
      pz      :     0.932475  p :     3.067633
      px      :     1.064471
      py      :     1.070686
      dz2     :     0.041972  d :     0.120854
      dxz     :     0.033151
      dyz     :     0.018222
      dx2y2   :     0.014113
      dxy     :     0.013397
  5 C s       :     2.829901  s :     2.829901
      pz      :     1.035488  p :     3.011437
      px      :     0.927743
      py      :     1.048205
      dz2     :     0.027858  d :     0.133214
      dxz     :     0.026680
      dyz     :     0.011498
      dx2y2   :     0.031381
      dxy     :     0.035797
  6 C s       :     2.829542  s :     2.829542
      pz      :     1.064327  p :     3.007297
      px      :     0.889410
      py      :     1.053560
      dz2     :     0.023110  d :     0.132486
      dxz     :     0.022142
      dyz     :     0.023193
      dx2y2   :     0.040857
      dxy     :     0.023184
  7 C s       :     2.831475  s :     2.831475
      pz      :     1.068699  p :     3.153743
      px      :     1.057262
      py      :     1.027782
      dz2     :     0.019946  d :     0.070931
      dxz     :     0.013434
      dyz     :     0.005616
      dx2y2   :     0.013279
      dxy     :     0.018656
  8 H s       :     0.906711  s :     0.906711
      pz      :     0.042193  p :     0.066342
      px      :     0.010889
      py      :     0.013259
  9 C s       :     2.831462  s :     2.831462
      pz      :     1.068772  p :     3.153769
      px      :     1.057139
      py      :     1.027858
      dz2     :     0.019911  d :     0.070933
      dxz     :     0.013476
      dyz     :     0.005612
      dx2y2   :     0.013275
      dxy     :     0.018660
 10 H s       :     0.902629  s :     0.902629
      pz      :     0.035319  p :     0.065284
      px      :     0.016249
      py      :     0.013716
 11 C s       :     2.832019  s :     2.832019
      pz      :     1.059726  p :     3.151467
      px      :     1.066220
      py      :     1.025520
      dz2     :     0.012646  d :     0.071292
      dxz     :     0.012104
      dyz     :     0.018530
      dx2y2   :     0.022397
      dxy     :     0.005615
 12 C s       :     2.832094  s :     2.832094
      pz      :     1.060480  p :     3.151402
      px      :     1.066209
      py      :     1.024714
      dz2     :     0.012478  d :     0.071281
      dxz     :     0.012053
      dyz     :     0.018684
      dx2y2   :     0.022393
      dxy     :     0.005673
 13 H s       :     0.890243  s :     0.890243
      pz      :     0.036680  p :     0.073968
      px      :     0.019796
      py      :     0.017493
 14 H s       :     0.890861  s :     0.890861
      pz      :     0.027192  p :     0.075156
      px      :     0.029938
      py      :     0.018026
 15 H s       :     0.905623  s :     0.905623
      pz      :     0.039831  p :     0.067795
      px      :     0.014871
      py      :     0.013093
 16 H s       :     0.898867  s :     0.898867
      pz      :     0.020478  p :     0.067403
      px      :     0.033875
      py      :     0.013050
 17 H s       :     0.904821  s :     0.904821
      pz      :     0.014255  p :     0.067337
      px      :     0.020759
      py      :     0.032323
 18 H s       :     0.898888  s :     0.898888
      pz      :     0.020451  p :     0.067403
      px      :     0.033892
      py      :     0.013060
 19 H s       :     0.905632  s :     0.905632
      pz      :     0.039849  p :     0.067795
      px      :     0.014854
      py      :     0.013092
 20 H s       :     0.904842  s :     0.904842
      pz      :     0.014230  p :     0.067339
      px      :     0.020825
      py      :     0.032283
 21 H s       :     0.906437  s :     0.906437
      pz      :     0.020715  p :     0.067154
      px      :     0.014344
      py      :     0.032094
 22 H s       :     0.903063  s :     0.903063
      pz      :     0.014405  p :     0.067334
      px      :     0.040025
      py      :     0.012905
 23 H s       :     0.909599  s :     0.909599
      pz      :     0.034781  p :     0.068947
      px      :     0.021022
      py      :     0.013144
 24 H s       :     0.909615  s :     0.909615
      pz      :     0.034820  p :     0.068991
      px      :     0.021048
      py      :     0.013123
 25 H s       :     0.903082  s :     0.903082
      pz      :     0.014415  p :     0.067335
      px      :     0.040025
      py      :     0.012895
 26 H s       :     0.906448  s :     0.906448
      pz      :     0.020244  p :     0.067161
      px      :     0.014368
      py      :     0.032549


                      *****************************
                      * MAYER POPULATION ANALYSIS *
                      *****************************

  NA   - Mulliken gross atomic population
  ZA   - Total nuclear charge
  QA   - Mulliken gross atomic charge
  VA   - Mayer's total valence
  BVA  - Mayer's bonded valence
  FA   - Mayer's free valence

  ATOM       NA         ZA         QA         VA         BVA        FA
  0 N      7.1882     7.0000    -0.1882     3.3296     3.3296    -0.0000
  1 C      6.2051     6.0000    -0.2051     2.7405     2.7405     0.0000
  2 N      7.2108     7.0000    -0.2108     3.3374     3.3374     0.0000
  3 C      5.9742     6.0000     0.0258     3.8553     3.8553    -0.0000
  4 C      5.9857     6.0000     0.0143     3.8420     3.8420    -0.0000
  5 C      6.0160     6.0000    -0.0160     4.0943     4.0943    -0.0000
  6 C      6.0144     6.0000    -0.0144     4.0879     4.0879     0.0000
  7 C      5.9951     6.0000     0.0049     3.9504     3.9504     0.0000
  8 H      0.9735     1.0000     0.0265     1.0057     1.0057     0.0000
  9 C      5.9953     6.0000     0.0047     3.9505     3.9505     0.0000
 10 H      0.9573     1.0000     0.0427     0.9787     0.9787     0.0000
 11 C      5.9868     6.0000     0.0132     3.9484     3.9484     0.0000
 12 C      5.9866     6.0000     0.0134     3.9484     3.9484    -0.0000
 13 H      0.9489     1.0000     0.0511     1.0002     1.0002    -0.0000
 14 H      0.9457     1.0000     0.0543     1.0003     1.0003     0.0000
 15 H      0.9697     1.0000     0.0303     1.0014     1.0014    -0.0000
 16 H      0.9584     1.0000     0.0416     0.9949     0.9949    -0.0000
 17 H      0.9662     1.0000     0.0338     0.9963     0.9963     0.0000
 18 H      0.9585     1.0000     0.0415     0.9949     0.9949    -0.0000
 19 H      0.9698     1.0000     0.0302     1.0014     1.0014    -0.0000
 20 H      0.9662     1.0000     0.0338     0.9964     0.9964    -0.0000
 21 H      0.9696     1.0000     0.0304     0.9951     0.9951    -0.0000
 22 H      0.9647     1.0000     0.0353     0.9942     0.9942     0.0000
 23 H      0.9794     1.0000     0.0206     1.0232     1.0232    -0.0000
 24 H      0.9794     1.0000     0.0206     1.0235     1.0235    -0.0000
 25 H      0.9647     1.0000     0.0353     0.9942     0.9942     0.0000
 26 H      0.9697     1.0000     0.0303     0.9951     0.9951     0.0000

  Mayer bond orders larger than 0.100000
B(  0-N ,  1-C ) :   1.2455 B(  0-N ,  4-C ) :   1.1318 B(  0-N ,  5-C ) :   0.9189 
B(  1-C ,  2-N ) :   1.2454 B(  2-N ,  3-C ) :   1.1461 B(  2-N ,  6-C ) :   0.9038 
B(  3-C ,  4-C ) :   1.6115 B(  3-C , 13-H ) :   0.9951 B(  4-C , 14-H ) :   0.9919 
B(  5-C ,  7-C ) :   1.0699 B(  5-C ,  8-H ) :   0.9324 B(  5-C ,  9-C ) :   1.0699 
B(  6-C , 10-H ) :   0.9462 B(  6-C , 11-C ) :   1.0686 B(  6-C , 12-C ) :   1.0687 
B(  7-C , 18-H ) :   0.9727 B(  7-C , 19-H ) :   0.9643 B(  7-C , 20-H ) :   0.9685 
B(  9-C , 15-H ) :   0.9643 B(  9-C , 16-H ) :   0.9727 B(  9-C , 17-H ) :   0.9685 
B( 11-C , 24-H ) :   0.9625 B( 11-C , 25-H ) :   0.9728 B( 11-C , 26-H ) :   0.9692 
B( 12-C , 21-H ) :   0.9692 B( 12-C , 22-H ) :   0.9728 B( 12-C , 23-H ) :   0.9626 


-------
TIMINGS
-------

Total SCF time: 0 days 0 hours 6 min 16 sec 

Total time                  ....     376.575 sec
Sum of individual times     ....     376.030 sec  ( 99.9%)

Fock matrix formation       ....     370.322 sec  ( 98.3%)
  Split-RI-J                ....      14.266 sec  (  3.9% of F)
  Chain of spheres X        ....     301.795 sec  ( 81.5% of F)
  XC integration            ....      31.526 sec  (  8.5% of F)
    Basis function eval.    ....      11.482 sec  ( 36.4% of XC)
[...]
     69       0.000880  -0.084153  -0.113144  -0.240587   0.000470  -0.010491
     70      -0.000100   0.012839   0.016951   0.026416  -0.000054   0.001260
     71      -0.001851   0.158329   0.220767   0.505298  -0.000966   0.022157
     72       0.000834   0.074545  -0.096766   0.234790  -0.000421  -0.011565
     73       0.000054   0.008262  -0.011135   0.014874  -0.000029  -0.000825
     74      -0.001761  -0.139762   0.185907  -0.492892   0.000865   0.024473
     75       0.001942  -0.387606   0.379396   0.378290  -0.000329  -0.022438
     76       0.000028   0.007543  -0.008462  -0.003004  -0.000011   0.000216
     77       0.000208  -0.042636   0.041151   0.049970  -0.000046  -0.002893
     78       0.000167  -0.142256   0.153838  -0.047935   0.000156   0.001430
     79       0.000558  -0.437713   0.470606  -0.125113   0.000456   0.003507
     80       0.000363  -0.272972   0.293014  -0.073986   0.000288   0.001984
                 78         79         80    
      0      -0.000022   0.000011  -0.000335
      1       0.000001   0.000002   0.000009
      2      -0.000074   0.000514   0.002759
      3      -0.000108   0.001790   0.000185
      4       0.000003  -0.000002   0.000002
      5      -0.000160  -0.000269   0.000958
      6       0.000319  -0.000553   0.001242
      7      -0.000014  -0.000001   0.000005
      8       0.000223  -0.000739   0.002548
      9       0.000251  -0.034874   0.042196
     10       0.000001   0.000170  -0.000164
     11      -0.000249   0.054745  -0.051310
     12      -0.000053  -0.042189  -0.057571
     13       0.000000  -0.000106  -0.000105
     14       0.000014  -0.040741  -0.042990
     15       0.000033  -0.000327  -0.000282
     16       0.000000  -0.000000  -0.000001
     17      -0.000401  -0.000139  -0.000539
     18      -0.005772  -0.000484   0.000229
     19       0.000122   0.000007  -0.000004
     20       0.011068   0.000665  -0.000456
     21       0.002724  -0.000181  -0.000143
     22       0.001210  -0.000136  -0.000115
     23      -0.001200  -0.000729  -0.000642
     24       0.000754   0.000733   0.002075
     25       0.000006  -0.000003   0.000001
     26       0.003961  -0.001635   0.001516
     27       0.002724  -0.000183  -0.000145
     28      -0.001220   0.000135   0.000114
     29      -0.001198  -0.000736  -0.000648
     30       0.056129   0.004654  -0.003186
     31      -0.001245  -0.000075   0.000044
     32      -0.120106  -0.006064   0.003499
     33      -0.055876  -0.000086  -0.000021
     34       0.004596  -0.000007  -0.000001
     35       0.038236   0.000045  -0.000053
     36      -0.052937  -0.000088  -0.000019
     37      -0.002744   0.000010  -0.000002
     38       0.034844   0.000044  -0.000051
     39      -0.002451   0.407422  -0.376744
     40       0.000014  -0.001911   0.001738
     41       0.003478  -0.611505   0.555241
     42      -0.001103   0.498601   0.549126
     43      -0.000011   0.001168   0.001259
     44      -0.001151   0.451195   0.488347
     45       0.001440   0.001814   0.001549
     46       0.000026   0.000402   0.000318
     47       0.005087   0.008057   0.007180
     48      -0.024332  -0.000902  -0.001004
     49      -0.000774   0.000153   0.000132
     50       0.014165   0.000938   0.000919
     51      -0.009955   0.001331   0.001086
     52       0.015417  -0.002175  -0.001741
     53      -0.004819   0.000601   0.000491
     54      -0.024319  -0.000889  -0.000995
     55       0.000859  -0.000148  -0.000127
     56       0.014136   0.000928   0.000911
     57       0.001438   0.001796   0.001532
     58      -0.000011  -0.000381  -0.000300
     59       0.005097   0.007987   0.007115
     60      -0.009959   0.001324   0.001079
     61      -0.015390   0.002160   0.001727
     62      -0.004767   0.000593   0.000485
     63      -0.021066  -0.000001   0.000041
     64       0.048401  -0.000112  -0.000026
     65      -0.027784   0.000139  -0.000011
     66       0.444099   0.001846  -0.000539
     67       0.005159   0.000366  -0.000221
     68       0.057736   0.000392  -0.000161
     69       0.212979   0.000472  -0.000289
     70      -0.025479  -0.000255   0.000176
     71      -0.450539  -0.001277   0.000782
     72       0.229939   0.000471  -0.000295
     73       0.016339   0.000227  -0.000161
     74      -0.487467  -0.001282   0.000803
     75       0.466984   0.001840  -0.000533
     76      -0.005410  -0.000363   0.000222
     77       0.060387   0.000400  -0.000165
     78      -0.025734  -0.000008   0.000051
     79      -0.061180   0.000103   0.000052
     80      -0.034114   0.000122   0.000008


-----------
IR SPECTRUM
-----------

 Mode   freq       eps      Int      T**2         TX        TY        TZ
       cm**-1   L/(mol*cm) km/mol    a.u.
----------------------------------------------------------------------------
  7:     50.93   0.000016    0.08  0.000095  (-0.000002  0.009751 -0.000017)
  8:    109.45   0.002758   13.94  0.007864  ( 0.000039 -0.088676  0.000408)
  9:    151.48   0.000424    2.14  0.000873  ( 0.001638 -0.000555 -0.029504)
 10:    170.29   0.000126    0.64  0.000231  (-0.000007  0.015210 -0.000219)
 11:    238.50   0.000072    0.37  0.000095  (-0.008140  0.004867 -0.002181)
 12:    243.31   0.000455    2.30  0.000583  (-0.023520 -0.001552 -0.005228)
 13:    247.36   0.000005    0.03  0.000006  (-0.000148 -0.002535  0.000014)
 14:    275.83   0.000061    0.31  0.000069  ( 0.008261  0.000363  0.000912)
 15:    294.50   0.000121    0.61  0.000129  ( 0.010602  0.000006  0.004029)
 16:    335.83   0.000810    4.09  0.000753  ( 0.024962 -0.000487 -0.011373)
 17:    351.82   0.000741    3.74  0.000657  ( 0.025617 -0.000364  0.000779)
 18:    401.58   0.004158   21.01  0.003231  (-0.000235 -0.056842  0.000361)
 19:    452.56   0.000012    0.06  0.000008  ( 0.000029  0.002914  0.000075)
 20:    496.04   0.000218    1.10  0.000137  ( 0.011715  0.000042 -0.000207)
 21:    510.68   0.001114    5.63  0.000681  ( 0.022975  0.000053 -0.012363)
 22:    638.47   0.000301    1.52  0.000147  ( 0.010681  0.000002  0.005742)
 23:    676.69   0.001394    7.05  0.000643  (-0.000050 -0.025358  0.000023)
 24:    681.88   0.001132    5.72  0.000518  ( 0.000057 -0.022761  0.000105)
 25:    704.92   0.003017   15.25  0.001336  (-0.036408 -0.000138 -0.003202)
 26:    752.34   0.014186   71.69  0.005884  (-0.000060 -0.076708  0.000231)
 27:    885.95   0.000084    0.43  0.000030  (-0.000042 -0.005454  0.000014)
 28:    910.98   0.000733    3.70  0.000251  ( 0.011104  0.000127 -0.011306)
 29:    916.84   0.001356    6.85  0.000462  (-0.020847  0.001155  0.005064)
 30:    922.47   0.000456    2.30  0.000154  (-0.001618 -0.012297  0.000530)
 31:    937.21   0.000259    1.31  0.000086  ( 0.000011 -0.009286  0.000023)
 32:    957.93   0.000129    0.65  0.000042  (-0.000024 -0.006483  0.000023)
 33:    960.39   0.000152    0.77  0.000049  ( 0.000148  0.007025 -0.000079)
 34:   1015.54   0.003650   18.44  0.001122  ( 0.033441 -0.000037  0.001797)
 35:   1027.22   0.000216    1.09  0.000066  ( 0.003690 -0.000040 -0.007217)
 36:   1082.61   0.000154    0.78  0.000044  (-0.006658 -0.000006 -0.000122)
 37:   1097.29   0.005249   26.53  0.001493  ( 0.005808  0.000068  0.038199)
 38:   1126.99   0.004963   25.08  0.001374  (-0.034065  0.000034  0.014627)
 39:   1166.44   0.001708    8.63  0.000457  (-0.000045  0.021375 -0.000225)
 40:   1170.12   0.002050   10.36  0.000547  ( 0.000059  0.023381 -0.000061)
 41:   1177.07   0.001574    7.95  0.000417  ( 0.012981 -0.000426 -0.015764)
 42:   1194.52   0.000614    3.10  0.000160  ( 0.012642 -0.000082 -0.000728)
 43:   1236.61   0.020406  103.12  0.005149  ( 0.071378 -0.000031 -0.007396)
 44:   1318.80   0.000417    2.11  0.000099  (-0.009447 -0.000090 -0.003057)
 45:   1335.23   0.015691   79.29  0.003667  ( 0.059890 -0.000005 -0.008965)
 46:   1343.04   0.000049    0.25  0.000011  ( 0.000525  0.003324  0.000092)
 47:   1350.81   0.000071    0.36  0.000016  ( 0.000060  0.004047 -0.000029)
 48:   1390.94   0.001950    9.86  0.000438  ( 0.013260 -0.001597  0.016101)
 49:   1397.60   0.004404   22.26  0.000983  ( 0.000643  0.031341  0.000823)
 50:   1398.24   0.001225    6.19  0.000273  ( 0.016527  0.000383 -0.000330)
 51:   1402.27   0.005241   26.49  0.001166  ( 0.000032  0.034152 -0.000128)
 52:   1407.36   0.003590   18.14  0.000796  ( 0.015756 -0.000052  0.023405)
 53:   1428.01   0.000866    4.37  0.000189  (-0.010003 -0.000135  0.009438)
 54:   1444.73   0.000223    1.13  0.000048  ( 0.000225  0.006730  0.001668)
 55:   1446.94   0.008869   44.82  0.001913  (-0.022055 -0.000005 -0.037769)
 56:   1450.14   0.000007    0.03  0.000001  (-0.000109  0.001177 -0.000163)
 57:   1451.87   0.000057    0.29  0.000012  ( 0.000181  0.002093 -0.002814)
 58:   1455.08   0.000213    1.08  0.000046  ( 0.000072  0.006753 -0.000163)
 59:   1459.39   0.004046   20.45  0.000865  ( 0.029329 -0.000167  0.002252)
 60:   1463.53   0.006709   33.91  0.001431  ( 0.029813 -0.000188 -0.023276)
 61:   1475.79   0.002348   11.87  0.000496  ( 0.018908  0.000056 -0.011789)
 62:   1483.61   0.012867   65.03  0.002707  (-0.052011  0.000102  0.001179)
 63:   1486.52   0.006929   35.02  0.001455  (-0.032392 -0.000258 -0.020133)
 64:   1652.01   0.000136    0.68  0.000026  ( 0.000499 -0.000060 -0.005034)
 65:   3063.10   0.004957   25.05  0.000505  (-0.000125  0.022473 -0.000131)
 66:   3065.58   0.002721   13.75  0.000277  ( 0.014407  0.000252  0.008327)
 67:   3066.34   0.005511   27.85  0.000561  ( 0.000130  0.023681 -0.000110)
 68:   3069.05   0.002135   10.79  0.000217  ( 0.010952 -0.000211  0.009854)
 69:   3109.76   0.004461   22.54  0.000448  ( 0.012017 -0.000241 -0.017411)
 70:   3128.67   0.001349    6.82  0.000135  (-0.002619  0.000011  0.011301)
 71:   3162.94   0.001366    6.90  0.000135  (-0.000003  0.011606  0.000180)
 72:   3166.69   0.009933   50.20  0.000979  ( 0.002197 -0.000029  0.031209)
 73:   3171.60   0.003557   17.98  0.000350  (-0.000284  0.018681 -0.000964)
 74:   3172.71   0.006354   32.11  0.000625  (-0.015114 -0.000613 -0.019905)
 75:   3173.92   0.000237    1.20  0.000023  ( 0.001695  0.004508  0.000313)
 76:   3175.10   0.002288   11.56  0.000225  (-0.000013  0.014996  0.000013)
 77:   3176.71   0.008017   40.52  0.000788  ( 0.026116 -0.000041 -0.010271)
 78:   3177.43   0.009217   46.58  0.000905  (-0.026061  0.000464  0.015028)
 79:   3279.71   0.001426    7.21  0.000136  ( 0.011637 -0.000000 -0.000512)
 80:   3300.47   0.000250    1.26  0.000024  ( 0.001538  0.000015  0.004613)

* The epsilon (eps) is given for a Dirac delta lineshape.
** The dipole moment derivative (T) already includes vibrational overlap.

The first frequency considered to be a vibration is 7
The total number of vibrations considered is 74


--------------------------
THERMOCHEMISTRY AT 298.15K
--------------------------

Temperature         ... 298.15 K
Pressure            ... 1.00 atm
Total Mass          ... 152.24 AMU

Throughout the following assumptions are being made:
  (1) The electronic state is orbitally nondegenerate
  (2) There are no thermally accessible electronically excited states
  (3) Hindered rotations indicated by low frequency modes are not
      treated as such but are treated as vibrations and this may
      cause some error
  (4) All equations used are the standard statistical mechanics
      equations for an ideal gas
  (5) All vibrations are strictly harmonic

freq.      50.93  E(vib)   ...       0.52 
freq.     109.45  E(vib)   ...       0.45 
freq.     151.48  E(vib)   ...       0.40 
freq.     170.29  E(vib)   ...       0.38 
freq.     238.50  E(vib)   ...       0.32 
freq.     243.31  E(vib)   ...       0.31 
freq.     247.36  E(vib)   ...       0.31 
freq.     275.83  E(vib)   ...       0.28 
freq.     294.50  E(vib)   ...       0.27 
freq.     335.83  E(vib)   ...       0.24 
freq.     351.82  E(vib)   ...       0.23 
freq.     401.58  E(vib)   ...       0.19 
freq.     452.56  E(vib)   ...       0.16 
freq.     496.04  E(vib)   ...       0.14 
freq.     510.68  E(vib)   ...       0.14 
freq.     638.47  E(vib)   ...       0.09 
freq.     676.69  E(vib)   ...       0.08 
freq.     681.88  E(vib)   ...       0.08 
freq.     704.92  E(vib)   ...       0.07 
freq.     752.34  E(vib)   ...       0.06 
freq.     885.95  E(vib)   ...       0.04 
freq.     910.98  E(vib)   ...       0.03 
freq.     916.84  E(vib)   ...       0.03 
freq.     922.47  E(vib)   ...       0.03 
freq.     937.21  E(vib)   ...       0.03 
freq.     957.93  E(vib)   ...       0.03 
freq.     960.39  E(vib)   ...       0.03 
freq.    1015.54  E(vib)   ...       0.02 
freq.    1027.22  E(vib)   ...       0.02 
freq.    1082.61  E(vib)   ...       0.02 
freq.    1097.29  E(vib)   ...       0.02 
freq.    1126.99  E(vib)   ...       0.01 
freq.    1166.44  E(vib)   ...       0.01 
freq.    1170.12  E(vib)   ...       0.01 
freq.    1177.07  E(vib)   ...       0.01 
freq.    1194.52  E(vib)   ...       0.01 
freq.    1236.61  E(vib)   ...       0.01 
freq.    1318.80  E(vib)   ...       0.01 
freq.    1335.23  E(vib)   ...       0.01 
freq.    1343.04  E(vib)   ...       0.01 
freq.    1350.81  E(vib)   ...       0.01 
freq.    1390.94  E(vib)   ...       0.00 
freq.    1397.60  E(vib)   ...       0.00 
freq.    1398.24  E(vib)   ...       0.00 
freq.    1402.27  E(vib)   ...       0.00 
freq.    1407.36  E(vib)   ...       0.00 
freq.    1428.01  E(vib)   ...       0.00 
freq.    1444.73  E(vib)   ...       0.00 
freq.    1446.94  E(vib)   ...       0.00 
freq.    1450.14  E(vib)   ...       0.00 
freq.    1451.87  E(vib)   ...       0.00 
freq.    1455.08  E(vib)   ...       0.00 
freq.    1459.39  E(vib)   ...       0.00 
freq.    1463.53  E(vib)   ...       0.00 
freq.    1475.79  E(vib)   ...       0.00 
freq.    1483.61  E(vib)   ...       0.00 
freq.    1486.52  E(vib)   ...       0.00 
freq.    1652.01  E(vib)   ...       0.00 
freq.    3063.10  E(vib)   ...       0.00 
freq.    3065.58  E(vib)   ...       0.00 
freq.    3066.34  E(vib)   ...       0.00 
freq.    3069.05  E(vib)   ...       0.00 
freq.    3109.76  E(vib)   ...       0.00 
freq.    3128.67  E(vib)   ...       0.00 
freq.    3162.94  E(vib)   ...       0.00 
freq.    3166.69  E(vib)   ...       0.00 
freq.    3171.60  E(vib)   ...       0.00 
freq.    3172.71  E(vib)   ...       0.00 
freq.    3173.92  E(vib)   ...       0.00 
freq.    3175.10  E(vib)   ...       0.00 
freq.    3176.71  E(vib)   ...       0.00 
freq.    3177.43  E(vib)   ...       0.00 
freq.    3279.71  E(vib)   ...       0.00 
freq.    3300.47  E(vib)   ...       0.00 

------------
INNER ENERGY
------------

The inner energy is: U= E(el) + E(ZPE) + E(vib) + E(rot) + E(trans)
    E(el)   - is the total energy from the electronic structure calculation
              = E(kin-el) + E(nuc-el) + E(el-el) + E(nuc-nuc)
    E(ZPE)  - the the zero temperature vibrational energy from the frequency calculation
    E(vib)  - the the finite temperature correction to E(ZPE) due to population
              of excited vibrational states
    E(rot)  - is the rotational thermal energy
    E(trans)- is the translational thermal energy

Summary of contributions to the inner energy U:
Electronic energy                ...   -461.63235268 Eh
Zero point energy                ...      0.24165056 Eh     151.64 kcal/mol
Thermal vibrational correction   ...      0.00821784 Eh       5.16 kcal/mol
Thermal rotational correction    ...      0.00141627 Eh       0.89 kcal/mol
Thermal translational correction ...      0.00141627 Eh       0.89 kcal/mol
-----------------------------------------------------------------------
Total thermal energy                   -461.37965174 Eh


Summary of corrections to the electronic energy:
(perhaps to be used in another calculation)
Total thermal correction                  0.01105038 Eh       6.93 kcal/mol
Non-thermal (ZPE) correction              0.24165056 Eh     151.64 kcal/mol
-----------------------------------------------------------------------
Total correction                          0.25270094 Eh     158.57 kcal/mol


--------
ENTHALPY
--------

The enthalpy is H = U + kB*T
                kB is Boltzmann's constant
Total free energy                 ...   -461.37965174 Eh 
Thermal Enthalpy correction       ...      0.00094421 Eh       0.59 kcal/mol
-----------------------------------------------------------------------
Total Enthalpy                    ...   -461.37870753 Eh


Note: Only C1 symmetry has been detected, increase convergence thresholds 
      if your molecule has a higher symmetry. Symmetry factor of 1.0 is   
      used for the rotational entropy correction. 
 

Note: Rotational entropy computed according to Herzberg 
Infrared and Raman Spectra, Chapter V,1, Van Nostrand Reinhold, 1945 
Point Group:  C1, Symmetry Number:   1  
Rotational constants in cm-1:     0.079792     0.019225     0.019046 

Vibrational entropy computed according to the QRRHO of S. Grimme
Chem.Eur.J. 2012 18 9955


-------
ENTROPY
-------

The entropy contributions are T*S = T*(S(el)+S(vib)+S(rot)+S(trans))
     S(el)   - electronic entropy
     S(vib)  - vibrational entropy
     S(rot)  - rotational entropy
     S(trans)- translational entropy
The entropies will be listed as multiplied by the temperature to get
units of energy

Electronic entropy                ...      0.00000000 Eh      0.00 kcal/mol
Vibrational entropy               ...      0.01374975 Eh      8.63 kcal/mol
Rotational entropy                ...      0.01443979 Eh      9.06 kcal/mol
Translational entropy             ...      0.01946649 Eh     12.22 kcal/mol
-----------------------------------------------------------------------
Final entropy term                ...      0.04765604 Eh     29.90 kcal/mol

In case the symmetry of your molecule has not been determined correctly
or in case you have a reason to use a different symmetry number we print 
out the resulting rotational entropy values for sn=1,12 :
 --------------------------------------------------------
|  sn= 1 | S(rot)=       0.01443979 Eh      9.06 kcal/mol|
|  sn= 2 | S(rot)=       0.01378533 Eh      8.65 kcal/mol|
|  sn= 3 | S(rot)=       0.01340250 Eh      8.41 kcal/mol|
|  sn= 4 | S(rot)=       0.01313088 Eh      8.24 kcal/mol|
|  sn= 5 | S(rot)=       0.01292019 Eh      8.11 kcal/mol|
|  sn= 6 | S(rot)=       0.01274805 Eh      8.00 kcal/mol|
|  sn= 7 | S(rot)=       0.01260250 Eh      7.91 kcal/mol|
|  sn= 8 | S(rot)=       0.01247642 Eh      7.83 kcal/mol|
|  sn= 9 | S(rot)=       0.01236521 Eh      7.76 kcal/mol|
|  sn=10 | S(rot)=       0.01226573 Eh      7.70 kcal/mol|
|  sn=11 | S(rot)=       0.01217574 Eh      7.64 kcal/mol|
|  sn=12 | S(rot)=       0.01209359 Eh      7.59 kcal/mol|
 --------------------------------------------------------


-------------------
GIBBS FREE ENERGY
-------------------

The Gibbs free energy is G = H - T*S

Total enthalpy                    ...   -461.37870753 Eh 
Total entropy correction          ...     -0.04765604 Eh    -29.90 kcal/mol
-----------------------------------------------------------------------
Final Gibbs free energy         ...   -461.42636357 Eh

For completeness - the Gibbs free energy minus the electronic energy
G-E(el)                           ...      0.20598911 Eh    129.26 kcal/mol


Timings for individual modules:

Sum of individual times         ...     3394.176 sec (=  56.570 min)
GTO integral calculation        ...        2.024 sec (=   0.034 min)   0.1 %
SCF iterations                  ...     1600.203 sec (=  26.670 min)  47.1 %
SCF Gradient evaluation         ...      397.759 sec (=   6.629 min)  11.7 %
Geometry relaxation             ...        0.342 sec (=   0.006 min)   0.0 %
Analytical frequency calculation...     1393.848 sec (=  23.231 min)  41.1 %
                             ****ORCA TERMINATED NORMALLY****
TOTAL RUN TIME: 0 days 0 hours 56 minutes 35 seconds 46 msec
