
                                 *****************
                                 * O   R   C   A *
                                 *****************

                                            #,                                       
                                            ###                                      
                                            ####                                     
                                            #####                                    
                                            ######                                   
                                           ########,                                 
                                     ,,################,,,,,                         
                               ,,#################################,,                 
                          ,,##########################################,,             
                       ,#########################################, ''#####,          
                    ,#############################################,,   '####,        
                  ,##################################################,,,,####,       
                ,###########''''           ''''###############################       
              ,#####''   ,,,,##########,,,,          '''####'''          '####       
            ,##' ,,,,###########################,,,                        '##       
           ' ,,###''''                  '''############,,,                           
         ,,##''                                '''############,,,,        ,,,,,,###''
      ,#''                                            '''#######################'''  
     '                                                          ''''####''''         
             ,#######,   #######,   ,#######,      ##                                
            ,#'     '#,  ##    ##  ,#'     '#,    #''#        ######   ,####,        
            ##       ##  ##   ,#'  ##            #'  '#       #        #'  '#        
            ##       ##  #######   ##           ,######,      #####,   #    #        
            '#,     ,#'  ##    ##  '#,     ,#' ,#      #,         ##   #,  ,#        
             '#######'   ##     ##  '#######'  #'      '#     #####' # '####'        



                  #######################################################
                  #                        -***-                        #
                  #          Department of theory and spectroscopy      #
                  #    Directorship and core code : Frank Neese         #
                  #        Max Planck Institute fuer Kohlenforschung    #
                  #                Kaiser Wilhelm Platz 1               #
                  #                 D-45470 Muelheim/Ruhr               #
                  #                      Germany                        #
                  #                                                     #
                  #                  All rights reserved                #
                  #                        -***-                        #
                  #######################################################


                         Program Version 5.0.4 -  RELEASE  -


 With contributions from (in alphabetic order):
   Daniel Aravena         : Magnetic Suceptibility
   Michael Atanasov       : Ab Initio Ligand Field Theory (pilot matlab implementation)
   Alexander A. Auer      : GIAO ZORA, VPT2 properties, NMR spectrum
   Ute Becker             : Parallelization
   Giovanni Bistoni       : ED, misc. LED, open-shell LED, HFLD
   Martin Brehm           : Molecular dynamics
   Dmytro Bykov           : SCF Hessian
   Vijay G. Chilkuri      : MRCI spin determinant printing, contributions to CSF-ICE
   Dipayan Datta          : RHF DLPNO-CCSD density
   Achintya Kumar Dutta   : EOM-CC, STEOM-CC
   Dmitry Ganyushin       : Spin-Orbit,Spin-Spin,Magnetic field MRCI
   Miquel Garcia          : C-PCM and meta-GGA Hessian, CC/C-PCM, Gaussian charge scheme
   Yang Guo               : DLPNO-NEVPT2, F12-NEVPT2, CIM, IAO-localization
   Andreas Hansen         : Spin unrestricted coupled pair/coupled cluster methods
   Benjamin Helmich-Paris : MC-RPA, TRAH-SCF, COSX integrals
   Lee Huntington         : MR-EOM, pCC
   Robert Izsak           : Overlap fitted RIJCOSX, COSX-SCS-MP3, EOM
   Marcus Kettner         : VPT2
   Christian Kollmar      : KDIIS, OOCD, Brueckner-CCSD(T), CCSD density, CASPT2, CASPT2-K
   Simone Kossmann        : Meta GGA functionals, TD-DFT gradient, OOMP2, MP2 Hessian
   Martin Krupicka        : Initial AUTO-CI
   Lucas Lang             : DCDCAS
   Marvin Lechner         : AUTO-CI (C++ implementation), FIC-MRCC
   Dagmar Lenk            : GEPOL surface, SMD
   Dimitrios Liakos       : Extrapolation schemes; Compound Job, initial MDCI parallelization
   Dimitrios Manganas     : Further ROCIS development; embedding schemes
   Dimitrios Pantazis     : SARC Basis sets
   Anastasios Papadopoulos: AUTO-CI, single reference methods and gradients
   Taras Petrenko         : DFT Hessian,TD-DFT gradient, ASA, ECA, R-Raman, ABS, FL, XAS/XES, NRVS
   Peter Pinski           : DLPNO-MP2, DLPNO-MP2 Gradient
   Christoph Reimann      : Effective Core Potentials
   Marius Retegan         : Local ZFS, SOC
   Christoph Riplinger    : Optimizer, TS searches, QM/MM, DLPNO-CCSD(T), (RO)-DLPNO pert. Triples
   Tobias Risthaus        : Range-separated hybrids, TD-DFT gradient, RPA, STAB
   Michael Roemelt        : Original ROCIS implementation
   Masaaki Saitow         : Open-shell DLPNO-CCSD energy and density
   Barbara Sandhoefer     : DKH picture change effects
   Avijit Sen             : IP-ROCIS
   Kantharuban Sivalingam : CASSCF convergence, NEVPT2, FIC-MRCI
   Bernardo de Souza      : ESD, SOC TD-DFT
   Georgi Stoychev        : AutoAux, RI-MP2 NMR, DLPNO-MP2 response
   Willem Van den Heuvel  : Paramagnetic NMR
   Boris Wezisla          : Elementary symmetry handling
   Frank Wennmohs         : Technical directorship


 We gratefully acknowledge several colleagues who have allowed us to
 interface, adapt or use parts of their codes:
   Stefan Grimme, W. Hujo, H. Kruse, P. Pracht,  : VdW corrections, initial TS optimization,
                  C. Bannwarth, S. Ehlert          DFT functionals, gCP, sTDA/sTD-DF
   Ed Valeev, F. Pavosevic, A. Kumar             : LibInt (2-el integral package), F12 methods
   Garnet Chan, S. Sharma, J. Yang, R. Olivares  : DMRG
   Ulf Ekstrom                                   : XCFun DFT Library
   Mihaly Kallay                                 : mrcc  (arbitrary order and MRCC methods)
   Jiri Pittner, Ondrej Demel                    : Mk-CCSD
   Frank Weinhold                                : gennbo (NPA and NBO analysis)
   Christopher J. Cramer and Donald G. Truhlar   : smd solvation model
   Lars Goerigk                                  : TD-DFT with DH, B97 family of functionals
   V. Asgeirsson, H. Jonsson                     : NEB implementation
   FAccTs GmbH                                   : IRC, NEB, NEB-TS, DLPNO-Multilevel, CI-OPT
                                                   MM, QMMM, 2- and 3-layer-ONIOM, Crystal-QMMM,
                                                   LR-CPCM, SF, NACMEs, symmetry and pop. for TD-DFT,
                                                   nearIR, NL-DFT gradient (VV10), updates on ESD,
                                                   ML-optimized integration grids
   S Lehtola, MJT Oliveira, MAL Marques          : LibXC Library
   Liviu Ungur et al                             : ANISO software


 Your calculation uses the libint2 library for the computation of 2-el integrals
 For citations please refer to: http://libint.valeyev.net

 Your ORCA version has been built with support for libXC version: 5.1.0
 For citations please refer to: https://tddft.org/programs/libxc/

 This ORCA versions uses:
   CBLAS   interface :  Fast vector & matrix operations
   LAPACKE interface :  Fast linear algebra routines
   SCALAPACK package :  Parallel linear algebra routines
   Shared memory     :  Shared parallel matrices
   BLAS/LAPACK       :  OpenBLAS 0.3.15  USE64BITINT DYNAMIC_ARCH NO_AFFINITY SkylakeX SINGLE_THREADED
        Core in use  :  SkylakeX
   Copyright (c) 2011-2014, The OpenBLAS Project




***************************************
The coordinates will be read from file: 4_deprot_aq_5.xyz
***************************************


Your calculation utilizes the atom-pairwise dispersion correction
based on tight binding partial charges (D4)
Cite in your paper:
E.Caldeweyher, C.Bannwarth, S.Grimme, J.Chem.Phys., (2017), 147, 034112.
E.Caldeweyher, S.Ehlert, A.Hansen, H.Neugebauer, S.Grimme, J.Chem.Phys., (2018), in progress.
   

XCFun DFT library Copyright 2009-2010 Ulf Ekstrom and contributors.
See http://admol.org/xcfun for more information.
This is free software; see the source code for copying conditions.
There is ABSOLUTELY NO WARRANTY; not even for MERCHANTABILITY or FITNESS FOR A PARTICULAR PURPOSE.
For details see the documentation.
Scientific users of this library should cite U. Ekstrom, L. Visscher, R. Bast, A. J. Thorvaldsen and K. Ruud;
J.Chem.Theor.Comp. 2010, DOI: 10.1021/ct100117s
XCFun Version 0.99 

================================================================================

----- Orbital basis set information -----
Your calculation utilizes the basis: def2-SVP
   F. Weigend and R. Ahlrichs, Phys. Chem. Chem. Phys. 7, 3297 (2005).

----- AuxJ basis set information -----
Your calculation utilizes the auxiliary basis: def2/J
   F. Weigend, Phys. Chem. Chem. Phys. 8, 1057 (2006).

================================================================================
                                        WARNINGS
                       Please study these warnings very carefully!
================================================================================


WARNING: Geometry Optimization
  ===> : Switching off AutoStart
         For restart on a previous wavefunction, please use MOREAD

INFO   : the flag for use of the SHARK integral package has been found!

================================================================================
                                       INPUT FILE
================================================================================
NAME = 4_deprot_aq_5.inp
|  1> # ORCA 5.0.4 - /users/bwb16179/postgrad/2024_03/DFT_Crest_Conformers/Opt/deprot/4_deprot_aq_5.inp # write input file
|  2> # Basic Mode
|  3> #
|  4> ! Opt Freq wB97X Def2-SVP D4 SlowConv TightSCF Defgrid2 Def2/J RIJCOSX CPCM(Water)
|  5> 
|  6> 
|  7> 
|  8> %maxcore 4500
|  9> 
| 10> %geom
| 11> Maxiter 150
| 12> END
| 13> 
| 14> * xyzfile 0 1 4_deprot_aq_5.xyz
| 15> 
| 16>                          ****END OF INPUT****
================================================================================

                       *****************************
                       * Geometry Optimization Run *
                       *****************************

Geometry optimization settings:
Update method            Update   .... BFGS
Choice of coordinates    CoordSys .... Z-matrix Internals
Initial Hessian          InHess   .... Almoef's Model

Convergence Tolerances:
Energy Change            TolE     ....  5.0000e-06 Eh
Max. Gradient            TolMAXG  ....  3.0000e-04 Eh/bohr
RMS Gradient             TolRMSG  ....  1.0000e-04 Eh/bohr
Max. Displacement        TolMAXD  ....  4.0000e-03 bohr
RMS Displacement         TolRMSD  ....  2.0000e-03 bohr
Strict Convergence                ....  False
------------------------------------------------------------------------------
                        ORCA OPTIMIZATION COORDINATE SETUP
------------------------------------------------------------------------------

The optimization will be done in new redundant internal coordinates
Making redundant internal coordinates   ...  (new redundants) done
Evaluating the initial hessian          ...  (Almloef) done
Evaluating the coordinates              ...  done
Calculating the B-matrix                .... done
Calculating the G-matrix                .... done
Diagonalizing the G-matrix              .... done
Small eigenvalue found = 1.259e-02
Small eigenvalue found = 2.147e-02
The first mode is                       ....   65
The number of degrees of freedom        ....   75

    -----------------------------------------------------------------
                    Redundant Internal Coordinates


    -----------------------------------------------------------------
         Definition                    Initial Value    Approx d2E/dq
    -----------------------------------------------------------------
      1. B(C   1,N   0)                  1.3579         0.629575   
      2. B(N   2,C   1)                  1.3576         0.630224   
      3. B(C   3,N   2)                  1.3720         0.597829   
      4. B(C   4,C   3)                  1.3523         0.717543   
      5. B(C   4,N   0)                  1.3717         0.598526   
      6. B(C   5,N   0)                  1.4443         0.458478   
      7. B(C   6,N   2)                  1.4443         0.458428   
      8. B(C   7,C   5)                  1.5271         0.377570   
      9. B(H   8,C   5)                  1.0980         0.349692   
     10. B(C   9,C   5)                  1.5294         0.374384   
     11. B(H  10,C   6)                  1.0982         0.349437   
     12. B(C  11,C   6)                  1.5299         0.373671   
     13. B(C  12,C   6)                  1.5266         0.378334   
     14. B(H  13,C   3)                  1.0717         0.385141   
     15. B(H  14,C   4)                  1.0717         0.385099   
     16. B(H  15,C   9)                  1.0868         0.364377   
     17. B(H  16,C   9)                  1.0881         0.362602   
     18. B(H  17,C   9)                  1.0868         0.364328   
     19. B(H  18,C   7)                  1.0876         0.363284   
     20. B(H  19,C   7)                  1.0867         0.364504   
     21. B(H  20,C   7)                  1.0863         0.365060   
     22. B(H  21,C  12)                  1.0867         0.364508   
     23. B(H  22,C  12)                  1.0862         0.365224   
     24. B(H  23,C  12)                  1.0875         0.363437   
     25. B(H  24,C  11)                  1.0870         0.364110   
     26. B(H  25,C  11)                  1.0868         0.364370   
     27. B(H  26,C  11)                  1.0882         0.362436   
     28. A(C   1,N   0,C   5)          123.3752         0.407101   
     29. A(C   4,N   0,C   5)          124.7092         0.403480   
     30. A(C   1,N   0,C   4)          111.8856         0.426883   
     31. A(N   0,C   1,N   2)          103.3127         0.430853   
     32. A(C   1,N   2,C   6)          123.5773         0.407167   
     33. A(C   1,N   2,C   3)          111.8770         0.426873   
     34. A(C   3,N   2,C   6)          124.4955         0.403390   
     35. A(N   2,C   3,C   4)          106.4627         0.439830   
     36. A(C   4,C   3,H  13)          130.7909         0.365965   
     37. A(N   2,C   3,H  13)          122.7461         0.352569   
     38. A(N   0,C   4,H  14)          122.7527         0.352632   
     39. A(C   3,C   4,H  14)          130.7867         0.365958   
     40. A(N   0,C   4,C   3)          106.4605         0.439923   
     41. A(H   8,C   5,C   9)          109.2834         0.322876   
     42. A(C   7,C   5,C   9)          110.9285         0.364148   
     43. A(N   0,C   5,C   9)          109.6881         0.374143   
     44. A(C   7,C   5,H   8)          109.5179         0.323325   
     45. A(N   0,C   5,H   8)          107.5596         0.331838   
     46. A(N   0,C   5,C   7)          109.7963         0.374690   
     47. A(H  10,C   6,C  11)          109.1892         0.322737   
     48. A(N   2,C   6,C  11)          109.7069         0.374013   
     49. A(C  11,C   6,C  12)          110.9498         0.364155   
     50. A(H  10,C   6,C  12)          109.5250         0.323394   
     51. A(N   2,C   6,C  12)          109.8504         0.374814   
     52. A(N   2,C   6,H  10)          107.5507         0.331792   
     53. A(H  19,C   7,H  20)          109.4884         0.292023   
     54. A(H  18,C   7,H  20)          108.5588         0.291869   
     55. A(C   5,C   7,H  20)          109.0921         0.325618   
     56. A(H  18,C   7,H  19)          108.8645         0.291799   
     57. A(C   5,C   7,H  19)          110.3963         0.325536   
     58. A(C   5,C   7,H  18)          110.4105         0.325357   
     59. A(H  16,C   9,H  17)          108.6357         0.291691   
     60. A(H  15,C   9,H  17)          109.2701         0.291915   
     61. A(C   5,C   9,H  17)          109.2381         0.325057   
     62. A(H  15,C   9,H  16)          108.7639         0.291697   
     63. A(C   5,C   9,H  16)          110.4379         0.324803   
     64. A(C   5,C   9,H  15)          110.4614         0.325064   
     65. A(H  25,C  11,H  26)          108.7482         0.291675   
     66. A(H  24,C  11,H  26)          108.6447         0.291642   
     67. A(H  24,C  11,H  25)          109.2024         0.291886   
     68. A(C   6,C  11,H  25)          110.4462         0.324961   
     69. A(C   6,C  11,H  24)          109.3162         0.324923   
     70. A(C   6,C  11,H  26)          110.4482         0.324677   
     71. A(H  22,C  12,H  23)          108.5033         0.291909   
     72. A(H  21,C  12,H  23)          108.8984         0.291819   
     73. A(C   6,C  12,H  23)          110.3883         0.325487   
     74. A(H  21,C  12,H  22)          109.5393         0.292044   
     75. A(C   6,C  12,H  22)          109.1279         0.325750   
     76. A(C   6,C  12,H  21)          110.3536         0.325645   
     77. D(N   2,C   1,N   0,C   4)     -0.0372         0.029146   
     78. D(N   2,C   1,N   0,C   5)   -178.1261         0.029146   
     79. D(C   3,N   2,C   1,N   0)     -0.2148         0.029211   
     80. D(C   6,N   2,C   1,N   0)   -177.7375         0.029211   
     81. D(H  13,C   3,N   2,C   6)     -2.3080         0.028784   
     82. D(C   4,C   3,N   2,C   1)      0.3863         0.028784   
     83. D(H  13,C   3,N   2,C   1)   -179.8037         0.028784   
     84. D(C   4,C   3,N   2,C   6)    177.8820         0.028784   
     85. D(H  14,C   4,C   3,N   2)    179.7237         0.036418   
     86. D(H  14,C   4,N   0,C   5)     -1.7669         0.028856   
     87. D(N   0,C   4,C   3,N   2)     -0.3840         0.036418   
     88. D(N   0,C   4,C   3,H  13)    179.8271         0.036418   
     89. D(C   3,C   4,N   0,C   5)    178.3301         0.028856   
     90. D(C   3,C   4,N   0,C   1)      0.2714         0.028856   
     91. D(H  14,C   4,C   3,H  13)     -0.0652         0.036418   
     92. D(H  14,C   4,N   0,C   1)   -179.8255         0.028856   
     93. D(H   8,C   5,N   0,C   4)     10.2731         0.017942   
     94. D(C   9,C   5,N   0,C   4)   -108.4852         0.017942   
     95. D(H   8,C   5,N   0,C   1)   -171.8842         0.017942   
     96. D(C   9,C   5,N   0,C   1)     69.3575         0.017942   
     97. D(C   7,C   5,N   0,C   4)    129.3737         0.017942   
     98. D(C   7,C   5,N   0,C   1)    -52.7836         0.017942   
     99. D(C  12,C   6,N   2,C   3)    134.5152         0.017938   
    100. D(C  11,C   6,N   2,C   3)   -103.2698         0.017938   
    101. D(C  11,C   6,N   2,C   1)     73.9406         0.017938   
    102. D(C  12,C   6,N   2,C   1)    -48.2744         0.017938   
    103. D(H  10,C   6,N   2,C   3)     15.3808         0.017938   
    104. D(H  10,C   6,N   2,C   1)   -167.4087         0.017938   
    105. D(H  18,C   7,C   5,H   8)     57.7258         0.011370   
    106. D(H  18,C   7,C   5,N   0)    -60.1649         0.011370   
    107. D(H  18,C   7,C   5,C   9)    178.4352         0.011370   
    108. D(H  20,C   7,C   5,C   9)    -62.3451         0.011370   
    109. D(H  20,C   7,C   5,H   8)    176.9455         0.011370   
    110. D(H  20,C   7,C   5,N   0)     59.0548         0.011370   
    111. D(H  19,C   7,C   5,C   9)     58.0093         0.011370   
    112. D(H  19,C   7,C   5,H   8)    -62.7001         0.011370   
    113. D(H  19,C   7,C   5,N   0)    179.4092         0.011370   
    114. D(H  17,C   9,C   5,H   8)   -178.1143         0.011189   
    115. D(H  17,C   9,C   5,C   7)     61.0376         0.011189   
    116. D(H  17,C   9,C   5,N   0)    -60.4258         0.011189   
    117. D(H  16,C   9,C   5,H   8)    -58.6925         0.011189   
    118. D(H  16,C   9,C   5,C   7)   -179.5406         0.011189   
    119. D(H  16,C   9,C   5,N   0)     58.9960         0.011189   
    120. D(H  15,C   9,C   5,H   8)     61.6678         0.011189   
    121. D(H  15,C   9,C   5,C   7)    -59.1803         0.011189   
    122. D(H  15,C   9,C   5,N   0)    179.3563         0.011189   
    123. D(H  26,C  11,C   6,H  10)    -58.8839         0.011149   
    124. D(H  26,C  11,C   6,N   2)     58.7495         0.011149   
    125. D(H  25,C  11,C   6,C  12)    -59.3552         0.011149   
    126. D(H  25,C  11,C   6,H  10)     61.4537         0.011149   
    127. D(H  25,C  11,C   6,N   2)    179.0870         0.011149   
    128. D(H  24,C  11,C   6,C  12)     60.8193         0.011149   
    129. D(H  24,C  11,C   6,H  10)   -178.3719         0.011149   
    130. D(H  26,C  11,C   6,C  12)   -179.6927         0.011149   
    131. D(H  24,C  11,C   6,N   2)    -60.7385         0.011149   
    132. D(H  23,C  12,C   6,N   2)    -60.0007         0.011413   
    133. D(H  22,C  12,C   6,C  11)    -62.3139         0.011413   
    134. D(H  22,C  12,C   6,H  10)    177.0759         0.011413   
    135. D(H  22,C  12,C   6,N   2)     59.1598         0.011413   
    136. D(H  21,C  12,C   6,C  11)     58.0996         0.011413   
    137. D(H  21,C  12,C   6,H  10)    -62.5106         0.011413   
    138. D(H  23,C  12,C   6,H  10)     57.9155         0.011413   
    139. D(H  21,C  12,C   6,N   2)    179.5732         0.011413   
    140. D(H  23,C  12,C   6,C  11)    178.5257         0.011413   
    -----------------------------------------------------------------

Number of atoms                         .... 27
Number of degrees of freedom            .... 140

         *************************************************************
         *                GEOMETRY OPTIMIZATION CYCLE   1            *
         *************************************************************
---------------------------------
CARTESIAN COORDINATES (ANGSTROEM)
---------------------------------
  N     -1.065635    0.111105    0.394838
  C     -0.002347   -0.096205   -0.423944
  N      1.061947    0.014657    0.411632
  C      0.674634    0.285427    1.699687
  C     -0.676507    0.341140    1.689907
  C     -2.437288    0.049017   -0.053024
  C      2.434750   -0.085378   -0.025813
  C     -2.627979    0.960671   -1.263220
  H     -3.071454    0.397897    0.772617
  C     -2.802818   -1.396215   -0.394768
  H      3.061351   -0.186495    0.870373
  C      2.831354    1.187849   -0.775668
  C      2.608233   -1.316750   -0.911247
  H      1.374753    0.410747    2.501352
  H     -1.375443    0.523255    2.481694
  H     -3.837001   -1.459122   -0.722807
  H     -2.671849   -2.037055    0.474811
  H     -2.152214   -1.751826   -1.189399
  H     -2.392246    1.990155   -1.003461
  H     -3.655108    0.913399   -1.614884
  H     -1.958163    0.642310   -2.056938
  H      3.637303   -1.395794   -1.251332
  H      1.947413   -1.234099   -1.769278
  H      2.348749   -2.218381   -0.361373
  H      2.193005    1.305220   -1.647604
  H      3.868171    1.132049   -1.096626
  H      2.709773    2.059518   -0.135608

----------------------------
CARTESIAN COORDINATES (A.U.)
----------------------------
  NO LB      ZA    FRAG     MASS         X           Y           Z
   0 N     7.0000    0    14.007   -2.013759    0.209958    0.746136
   1 C     6.0000    0    12.011   -0.004436   -0.181801   -0.801139
   2 N     7.0000    0    14.007    2.006789    0.027697    0.777872
   3 C     6.0000    0    12.011    1.274873    0.539379    3.211943
   4 C     6.0000    0    12.011   -1.278413    0.644661    3.193462
   5 C     6.0000    0    12.011   -4.605807    0.092630   -0.100201
   6 C     6.0000    0    12.011    4.601011   -0.161341   -0.048779
   7 C     6.0000    0    12.011   -4.966161    1.815405   -2.387139
   8 H     1.0000    0     1.008   -5.804207    0.751917    1.460035
   9 C     6.0000    0    12.011   -5.296558   -2.638465   -0.746003
  10 H     1.0000    0     1.008    5.785116   -0.352425    1.644767
  11 C     6.0000    0    12.011    5.350484    2.244709   -1.465800
  12 C     6.0000    0    12.011    4.928845   -2.488297   -1.722007
  13 H     1.0000    0     1.008    2.597907    0.776200    4.726871
  14 H     1.0000    0     1.008   -2.599211    0.988809    4.689723
  15 H     1.0000    0     1.008   -7.250882   -2.757341   -1.365908
  16 H     1.0000    0     1.008   -5.049063   -3.849477    0.897262
  17 H     1.0000    0     1.008   -4.067094   -3.310472   -2.247638
  18 H     1.0000    0     1.008   -4.520689    3.760848   -1.896267
  19 H     1.0000    0     1.008   -6.907154    1.726074   -3.051689
  20 H     1.0000    0     1.008   -3.700391    1.213789   -3.887049
  21 H     1.0000    0     1.008    6.873506   -2.637669   -2.364675
  22 H     1.0000    0     1.008    3.680077   -2.332109   -3.343451
  23 H     1.0000    0     1.008    4.438492   -4.192133   -0.682896
  24 H     1.0000    0     1.008    4.144179    2.466508   -3.113521
  25 H     1.0000    0     1.008    7.309783    2.139263   -2.072323
  26 H     1.0000    0     1.008    5.120729    3.891924   -0.256262

--------------------------------
INTERNAL COORDINATES (ANGSTROEM)
--------------------------------
 N      0   0   0     0.000000000000     0.00000000     0.00000000
 C      1   0   0     1.357926133456     0.00000000     0.00000000
 N      2   1   0     1.357645520000   103.31269636     0.00000000
 C      3   2   1     1.372010439128   111.87696394   359.78523420
 C      4   3   2     1.352324191316   106.46268453     0.38628254
 C      1   2   3     1.444252875485   123.37523040   181.87385698
 C      3   2   1     1.444282691725   123.57733820   182.26250956
 C      6   1   2     1.527104236391   109.79629598   307.21637038
 H      6   1   2     1.097983333803   107.55955792   188.11583041
 C      6   1   2     1.529411131684   109.68813544    69.35746819
 H      7   3   2     1.098181913383   107.55069119   192.59127540
 C      7   3   2     1.529929516777   109.70689900    73.94063881
 C      7   3   2     1.526554246131   109.85041006   311.72562534
 H      4   3   2     1.071699769618   122.74612850   180.19625154
 H      5   4   3     1.071729609470   130.78667562   179.72365339
 H     10   6   1     1.086785766483   110.46138801   179.35630174
 H     10   6   1     1.088115278807   110.43792271    58.99599890
 H     10   6   1     1.086822653688   109.23810904   299.57424599
 H      8   6   1     1.087603791230   110.41045357   299.83512455
 H      8   6   1     1.086690970877   110.39630905   179.40919704
 H      8   6   1     1.086276348637   109.09208110    59.05481977
 H     13   7   3     1.086688013115   110.35356028   179.57318768
 H     13   7   3     1.086154283922   109.12793096    59.15975643
 H     13   7   3     1.087488839162   110.38829659   299.99928031
 H     12   7   3     1.086985727198   109.31622310   299.26149131
 H     12   7   3     1.086791536850   110.44620003   179.08703563
 H     12   7   3     1.088239548076   110.44817411    58.74947859

---------------------------
INTERNAL COORDINATES (A.U.)
---------------------------
 N      0   0   0     0.000000000000     0.00000000     0.00000000
 C      1   0   0     2.566108502326     0.00000000     0.00000000
 N      2   1   0     2.565578219745   103.31269636     0.00000000
 C      3   2   1     2.592723982834   111.87696394   359.78523420
 C      4   3   2     2.555522365864   106.46268453     0.38628254
 C      1   2   3     2.729242402795   123.37523040   181.87385698
 C      3   2   1     2.729298747322   123.57733820   182.26250956
 C      6   1   2     2.885808784730   109.79629598   307.21637038
 H      6   1   2     2.074887800497   107.55955792   188.11583041
 C      6   1   2     2.890168185054   109.68813544    69.35746819
 H      7   3   2     2.075263061520   107.55069119   192.59127540
 C      7   3   2     2.891147790911   109.70689900    73.94063881
 C      7   3   2     2.884769453763   109.85041006   311.72562534
 H      4   3   2     2.025219062364   122.74612850   180.19625154
 H      5   4   3     2.025275451512   130.78667562   179.72365339
 H     10   6   1     2.053727464897   110.46138801   179.35630174
 H     10   6   1     2.056239879080   110.43792271    58.99599890
 H     10   6   1     2.053797171611   109.23810904   299.57424599
 H      8   6   1     2.055273307639   110.41045357   299.83512455
 H      8   6   1     2.053548327163   110.39630905   179.40919704
 H      8   6   1     2.052764804681   109.09208110    59.05481977
 H     13   7   3     2.053542737802   110.35356028   179.57318768
 H     13   7   3     2.052534135799   109.12793096    59.15975643
 H     13   7   3     2.055056079711   110.38829659   299.99928031
 H     12   7   3     2.054105335886   109.31622310   299.26149131
 H     12   7   3     2.053738369309   110.44620003   179.08703563
 H     12   7   3     2.056474713967   110.44817411    58.74947859

---------------------
BASIS SET INFORMATION
---------------------
There are 3 groups of distinct atoms

 Group   1 Type N   : 7s4p1d contracted to 3s2p1d pattern {511/31/1}
 Group   2 Type C   : 7s4p1d contracted to 3s2p1d pattern {511/31/1}
 Group   3 Type H   : 4s1p contracted to 2s1p pattern {31/1}

Atom   0N    basis set group =>   1
Atom   1C    basis set group =>   2
Atom   2N    basis set group =>   1
Atom   3C    basis set group =>   2
Atom   4C    basis set group =>   2
Atom   5C    basis set group =>   2
Atom   6C    basis set group =>   2
Atom   7C    basis set group =>   2
Atom   8H    basis set group =>   3
Atom   9C    basis set group =>   2
Atom  10H    basis set group =>   3
Atom  11C    basis set group =>   2
Atom  12C    basis set group =>   2
Atom  13H    basis set group =>   3
Atom  14H    basis set group =>   3
Atom  15H    basis set group =>   3
Atom  16H    basis set group =>   3
Atom  17H    basis set group =>   3
Atom  18H    basis set group =>   3
Atom  19H    basis set group =>   3
Atom  20H    basis set group =>   3
Atom  21H    basis set group =>   3
Atom  22H    basis set group =>   3
Atom  23H    basis set group =>   3
Atom  24H    basis set group =>   3
Atom  25H    basis set group =>   3
Atom  26H    basis set group =>   3
---------------------------------
AUXILIARY/J BASIS SET INFORMATION
---------------------------------
There are 3 groups of distinct atoms

 Group   1 Type N   : 12s5p4d2f1g contracted to 6s4p3d1f1g pattern {711111/2111/211/2/1}
 Group   2 Type C   : 12s5p4d2f1g contracted to 6s4p3d1f1g pattern {711111/2111/211/2/1}
 Group   3 Type H   : 5s2p1d contracted to 3s1p1d pattern {311/2/1}

Atom   0N    basis set group =>   1
Atom   1C    basis set group =>   2
Atom   2N    basis set group =>   1
Atom   3C    basis set group =>   2
Atom   4C    basis set group =>   2
Atom   5C    basis set group =>   2
Atom   6C    basis set group =>   2
Atom   7C    basis set group =>   2
Atom   8H    basis set group =>   3
Atom   9C    basis set group =>   2
Atom  10H    basis set group =>   3
Atom  11C    basis set group =>   2
Atom  12C    basis set group =>   2
Atom  13H    basis set group =>   3
Atom  14H    basis set group =>   3
Atom  15H    basis set group =>   3
Atom  16H    basis set group =>   3
Atom  17H    basis set group =>   3
Atom  18H    basis set group =>   3
Atom  19H    basis set group =>   3
Atom  20H    basis set group =>   3
Atom  21H    basis set group =>   3
Atom  22H    basis set group =>   3
Atom  23H    basis set group =>   3
Atom  24H    basis set group =>   3
Atom  25H    basis set group =>   3
Atom  26H    basis set group =>   3
------------------------------------------------------------------------------
                           ORCA GTO INTEGRAL CALCULATION
                           -- RI-GTO INTEGRALS CHOSEN --
------------------------------------------------------------------------------
------------------------------------------------------------------------------
                   ___                                                        
                  /   \      - P O W E R E D   B Y -                         
                 /     \                                                     
                 |  |  |   _    _      __       _____    __    __             
                 |  |  |  | |  | |    /  \     |  _  \  |  |  /  |          
                  \  \/   | |  | |   /    \    | | | |  |  | /  /          
                 / \  \   | |__| |  /  /\  \   | |_| |  |  |/  /          
                |  |  |   |  __  | /  /__\  \  |    /   |      \           
                |  |  |   | |  | | |   __   |  |    \   |  |\   \          
                \     /   | |  | | |  |  |  |  | |\  \  |  | \   \       
                 \___/    |_|  |_| |__|  |__|  |_| \__\ |__|  \__/        
                                                                              
                      - O R C A' S   B I G   F R I E N D -                    
                                      &                                       
                       - I N T E G R A L  F E E D E R -                       
                                                                              
 v1 FN, 2020, v2 2021                                                         
------------------------------------------------------------------------------


Reading SHARK input file 4_deprot_aq_5.SHARKINP.tmp ... ok
----------------------
SHARK INTEGRAL PACKAGE
----------------------

Number of atoms                             ...     27
Number of basis functions                   ...    234
Number of shells                            ...    114
Maximum angular momentum                    ...      2
Integral batch strategy                     ... SHARK/LIBINT Hybrid
RI-J (if used) integral strategy            ... SPLIT-RIJ (Revised 2003 algorithm where possible)
Printlevel                                  ...      1
Contraction scheme used                     ... SEGMENTED contraction
Coulomb Range Separation                    ... NOT USED
Exchange Range Separation                   ... Long Range
   Mu parameter                             ...  0.300000
   Scaling (regular/separated)              ...  0.157706  0.842294
Finite Nucleus Model                        ... NOT USED
Auxiliary Coulomb fitting basis             ... AVAILABLE
   # of basis functions in Aux-J            ...    715
   # of shells in Aux-J                     ...    245
   Maximum angular momentum in Aux-J        ...      4
Auxiliary J/K fitting basis                 ... NOT available
Auxiliary Correlation fitting basis         ... NOT available
Auxiliary 'external' fitting basis          ... NOT available
Integral threshold                          ...     2.500000e-11
Primitive cut-off                           ...     2.500000e-12
Primitive pair pre-selection threshold      ...     2.500000e-12

Calculating pre-screening integrals         ... done (  0.0 sec) Dimension = 114
Organizing shell pair data                  ... done (  0.0 sec)
Shell pair information
Total number of shell pairs                 ...      6555
Shell pairs after pre-screening             ...      5773
Total number of primitive shell pairs       ...     22769
Primitive shell pairs kept                  ...     14158
          la=0 lb=0:   1940 shell pairs
          la=1 lb=0:   2169 shell pairs
          la=1 lb=1:    634 shell pairs
          la=2 lb=0:    625 shell pairs
          la=2 lb=1:    348 shell pairs
          la=2 lb=2:     57 shell pairs

Calculating one electron integrals          ... done (  0.0 sec)
Calculating RI/J V-Matrix + Cholesky decomp.... done (  0.0 sec)
Calculating Nuclear repulsion               ... done (  0.0 sec) ENN=    640.975004062797 Eh

SHARK setup successfully completed in   0.3 seconds

Maximum memory used throughout the entire GTOINT-calculation: 35.7 MB
-------------------------------------------------------------------------------
                                 ORCA SCF
-------------------------------------------------------------------------------

------------
SCF SETTINGS
------------
Hamiltonian:
 Density Functional     Method          .... DFT(GTOs)
 Exchange Functional    Exchange        .... WB97X
 Correlation Functional Correlation     .... WB97X
 Gradients option       PostSCFGGA      .... off
 Hybrid DFT is turned on
   Fraction HF Exchange ScalHFX         ....  0.157706
   Scaling of DF-GGA-X  ScalDFX         ....  0.000000
   Scaling of DF-GGA-C  ScalDFC         ....  1.000000
   Scaling of DF-LDA-C  ScalLDAC        ....  1.000000
   Perturbative correction              ....  0.000000
   Density functional embedding theory  .... OFF
 Long-range corrected/Screened/Range-Separated Hybrid DFT is turned on
   Amount of maximum screened exact exchange              ....  0.842294
   Range separation parameter mu (erf(mu*r12)/r12)        ....  0.300000
 RI-approximation to the Coulomb term is turned on
   Number of AuxJ basis functions       .... 715
   RIJ-COSX (HFX calculated with COS-X)).... on


General Settings:
 Integral files         IntName         .... 4_deprot_aq_5
 Hartree-Fock type      HFTyp           .... RHF
 Total Charge           Charge          ....    0
 Multiplicity           Mult            ....    1
 Number of Electrons    NEL             ....   84
 Basis Dimension        Dim             ....  234
 Nuclear Repulsion      ENuc            ....    640.9750040628 Eh

Convergence Acceleration:
 DIIS                   CNVDIIS         .... on
   Start iteration      DIISMaxIt       ....     0
   Startup error        DIISStart       ....  0.200000
   # of expansion vecs  DIISMaxEq       ....     5
   Bias factor          DIISBfac        ....   1.050
   Max. coefficient     DIISMaxC        ....  10.000
 Trust-Rad. Augm. Hess. CNVTRAH         .... auto
   Auto Start mean grad. ratio tolernc. ....  1.125000
   Auto Start start iteration           ....    20
   Auto Start num. interpolation iter.  ....    10
   Max. Number of Micro iterations      ....    16
   Max. Number of Macro iterations      .... Maxiter - #DIIS iter
   Number of Davidson start vectors     ....     2
   Converg. threshold I  (grad. norm)   ....   1.000e-05
   Converg. threshold II (energy diff.) ....   1.000e-08
   Grad. Scal. Fac. for Micro threshold ....   0.100
   Minimum threshold for Micro iter.    ....   0.010
   NR start threshold (gradient norm)   ....   0.001
   Initial trust radius                 ....   0.400
   Minimum AH scaling param. (alpha)    ....   1.000
   Maximum AH scaling param. (alpha)    .... 1000.000
   Orbital update algorithm             .... Taylor
   White noise on init. David. guess    .... on
   Maximum white noise                  ....   0.010
   Quad. conv. algorithm                .... NR
 SOSCF                  CNVSOSCF        .... on
   Start iteration      SOSCFMaxIt      ....   150
   Startup grad/error   SOSCFStart      ....  0.001000
 Level Shifting         CNVShift        .... on
   Level shift para.    LevelShift      ....    0.2500
   Turn off err/grad.   ShiftErr        ....    0.0000
 Zerner damping         CNVZerner       .... off
 Static damping         CNVDamp         .... on
   Fraction old density DampFac         ....    0.8500
   Max. Damping (<1)    DampMax         ....    0.9800
   Min. Damping (>=0)   DampMin         ....    0.0000
   Turn off err/grad.   DampErr         ....    0.0300
 Fernandez-Rico         CNVRico         .... off

SCF Procedure:
 Maximum # iterations   MaxIter         ....   125
 SCF integral mode      SCFMode         .... Direct
   Integral package                     .... SHARK and LIBINT hybrid scheme
 Reset frequency        DirectResetFreq ....    20
 Integral Threshold     Thresh          ....  2.500e-11 Eh
 Primitive CutOff       TCut            ....  2.500e-12 Eh

Convergence Tolerance:
 Convergence Check Mode ConvCheckMode   .... Total+1el-Energy
 Convergence forced     ConvForced      .... 0
 Energy Change          TolE            ....  1.000e-08 Eh
 1-El. energy change                    ....  1.000e-05 Eh
 Orbital Gradient       TolG            ....  1.000e-05
 Orbital Rotation angle TolX            ....  1.000e-05
 DIIS Error             TolErr          ....  5.000e-07


Diagonalization of the overlap matrix:
Smallest eigenvalue                        ... 1.443e-03
Time for diagonalization                   ...    0.009 sec
Threshold for overlap eigenvalues          ... 1.000e-08
Number of eigenvalues below threshold      ... 0
Time for construction of square roots      ...    0.006 sec
Total time needed                          ...    0.016 sec

Time for model grid setup =    0.471 sec

------------------------------
INITIAL GUESS: MODEL POTENTIAL
------------------------------
Loading Hartree-Fock densities                     ... done
Calculating cut-offs                               ... done
Initializing the effective Hamiltonian             ... done
Setting up the integral package (SHARK)            ... done
Starting the Coulomb interaction                   ... done (   0.5 sec)
Reading the grid                                   ... done
Mapping shells                                     ... done
Starting the XC term evaluation                    ... done (   0.5 sec)
  promolecular density results
     # of electrons  =     83.992849505
     EX              =    -63.901293399
     EC              =     -2.782111619
     EX+EC           =    -66.683405018
Transforming the Hamiltonian                       ... done (   0.0 sec)
Diagonalizing the Hamiltonian                      ... done (   0.0 sec)
Back transforming the eigenvectors                 ... done (   0.0 sec)
Now organizing SCF variables                       ... done
                      ------------------
                      INITIAL GUESS DONE (   1.5 sec)
                      ------------------
-------------------
DFT GRID GENERATION
-------------------

General Integration Accuracy     IntAcc      ... 4.388
Radial Grid Type                 RadialGrid  ... OptM3 with GC (2021)
Angular Grid (max. ang.)         AngularGrid ... 4 (Lebedev-302)
Angular grid pruning method      GridPruning ... 4 (adaptive)
Weight generation scheme         WeightScheme... Becke
Basis function cutoff            BFCut       ... 1.0000e-11
Integration weight cutoff        WCut        ... 1.0000e-14
Angular grids for H and He will be reduced by one unit
Partially contracted basis set               ... off
Rotationally invariant grid construction     ... off

Total number of grid points                  ...   116965
Total number of batches                      ...     1842
Average number of points per batch           ...       63
Average number of grid points per atom       ...     4332
Time for grid setup =    1.695 sec

--------------------
COSX GRID GENERATION
--------------------

GRIDX 1
-------
General Integration Accuracy     IntAcc      ... 3.816
Radial Grid Type                 RadialGrid  ... OptM3 with GC (2021)
Angular Grid (max. ang.)         AngularGrid ... 1 (Lebedev-50)
Angular grid pruning method      GridPruning ... 4 (adaptive)
Weight generation scheme         WeightScheme... Becke
Basis function cutoff            BFCut       ... 1.0000e-11
Integration weight cutoff        WCut        ... 1.0000e-14
Angular grids for H and He will be reduced by one unit
Partially contracted basis set               ... on
Rotationally invariant grid construction     ... off

Total number of grid points                  ...    14978
Total number of batches                      ...      249
Average number of points per batch           ...       60
Average number of grid points per atom       ...      555
UseSFitting                                  ... on

GRIDX 2
-------
General Integration Accuracy     IntAcc      ... 4.020
Radial Grid Type                 RadialGrid  ... OptM3 with GC (2021)
Angular Grid (max. ang.)         AngularGrid ... 2 (Lebedev-110)
Angular grid pruning method      GridPruning ... 4 (adaptive)
Weight generation scheme         WeightScheme... Becke
Basis function cutoff            BFCut       ... 1.0000e-11
Integration weight cutoff        WCut        ... 1.0000e-14
Angular grids for H and He will be reduced by one unit
Partially contracted basis set               ... on
Rotationally invariant grid construction     ... off

Total number of grid points                  ...    31401
Total number of batches                      ...      506
Average number of points per batch           ...       62
Average number of grid points per atom       ...     1163
UseSFitting                                  ... on

GRIDX 3
-------
General Integration Accuracy     IntAcc      ... 4.338
Radial Grid Type                 RadialGrid  ... OptM3 with GC (2021)
Angular Grid (max. ang.)         AngularGrid ... 3 (Lebedev-194)
Angular grid pruning method      GridPruning ... 4 (adaptive)
Weight generation scheme         WeightScheme... Becke
Basis function cutoff            BFCut       ... 1.0000e-11
Integration weight cutoff        WCut        ... 1.0000e-14
Angular grids for H and He will be reduced by one unit
Partially contracted basis set               ... on
Rotationally invariant grid construction     ... off

Total number of grid points                  ...    68460
Total number of batches                      ...     1082
Average number of points per batch           ...       63
Average number of grid points per atom       ...     2536
UseSFitting                                  ... on

Time for X-Grid setup             =    2.187 sec


--------------------
CPCM SOLVATION MODEL
--------------------
CPCM parameters:
  Epsilon                                         ...      80.4000
  Refrac                                          ...       1.3300
  Rsolv                                           ...       1.3000
  Surface type                                    ... GAUSSIAN VDW
  Epsilon function type                           ...         CPCM
Radii:
 Radius for N  used is    3.5149 Bohr (=   1.8600 Ang.)
 Radius for C  used is    3.8550 Bohr (=   2.0400 Ang.)
 Radius for H  used is    2.4944 Bohr (=   1.3200 Ang.)
Calculating surface                               ...        done! (  0.0s)
GEPOL surface points                              ...         1457
GEPOL Volume                                      ...    1423.5744
GEPOL Surface-area                                ...     788.8399
Calculating surface distance matrix               ...        done! (  0.0s)
Performing Cholesky decomposition & store         ...        done! (  0.1s)
Overall time for CPCM initialization              ...                 0.1s
--------------
SCF ITERATIONS
--------------
ITER       Energy         Delta-E        Max-DP      RMS-DP      [F,P]     Damp
               ***  Starting incremental Fock matrix formation  ***
  0   -461.3617461986   0.000000000000 0.03487628  0.00073231  0.1568279 0.8500
  1   -461.4153107734  -0.053564574871 0.03677991  0.00069892  0.1264548 0.8500
                               ***Turning on DIIS***
  2   -461.4562823739  -0.040971600485 0.03212958  0.00057343  0.0971560 0.8500
  3   -461.4868181127  -0.030535738723 0.02588022  0.00040676  0.0736971 0.8500
  4   -461.5103926248  -0.023574512127 0.02130427  0.00030920  0.0587084 0.8500
  5   -461.5289635123  -0.018570887508 0.01795358  0.00025216  0.0485667 0.8500
  6   -461.5440423207  -0.015078808406 0.01528732  0.00021203  0.0408640 0.8500
  7   -461.5565038219  -0.012461501199 0.01314503  0.00018220  0.0346182 0.8500
  8   -461.5669122995  -0.010408477612 0.07545029  0.00104475  0.0292841 0.0000
  9   -461.6228039713  -0.055891671811 0.00149737  0.00004023  0.0012404 0.0000
                      *** Initiating the SOSCF procedure ***
                           *** Shutting down DIIS ***
                      *** Re-Reading the Fockian *** 
                      *** Removing any level shift *** 
ITER      Energy       Delta-E        Grad      Rot      Max-DP    RMS-DP
 10   -461.62282602  -0.0000220500  0.000315  0.000315  0.000689  0.000019
               *** Restarting incremental Fock matrix formation ***
 11   -461.62286234  -0.0000363187  0.000219  0.000493  0.000426  0.000013
 12   -461.62286315  -0.0000008146  0.000066  0.000349  0.000285  0.000009
 13   -461.62286339  -0.0000002308  0.000030  0.000030  0.000131  0.000003
 14   -461.62286342  -0.0000000331  0.000005  0.000012  0.000065  0.000001
 15   -461.62286343  -0.0000000115  0.000003  0.000013  0.000017  0.000000
                  ***Gradient check signals convergence***
              ***Rediagonalizing the Fockian in SOSCF/NRSCF***

               *****************************************************
               *                     SUCCESS                       *
               *           SCF CONVERGED AFTER  16 CYCLES          *
               *****************************************************

Old exchange energy                            =    -21.383550877 Eh
New exchange energy                            =    -21.383557249 Eh
Exchange energy change after final integration =     -0.000006372 Eh
Total energy after final integration           =   -461.622869810 Eh
Final COS-X integration done in                =    58.682 sec

----------------
TOTAL SCF ENERGY
----------------

Total Energy       :         -461.62286981 Eh          -12561.39690 eV

Components:
Nuclear Repulsion  :          640.97500406 Eh           17441.81659 eV
Electronic Energy  :        -1102.59787387 Eh          -30003.21348 eV
One Electron Energy:        -1893.65727116 Eh          -51529.03403 eV
Two Electron Energy:          791.05939729 Eh           21525.82055 eV
Max COSX asymmetry :            0.00000314 Eh               0.00009 eV
CPCM Dielectric    :           -0.01332415 Eh              -0.36257 eV

Virial components:
Potential Energy   :         -918.05730782 Eh          -24981.60939 eV
Kinetic Energy     :          456.43443801 Eh           12420.21249 eV
Virial Ratio       :            2.01136731


DFT components:
N(Alpha)           :       41.999957483930 electrons
N(Beta)            :       41.999957483930 electrons
N(Total)           :       83.999914967860 electrons
E(XC)              :      -47.164958399817 Eh       
DFET-embed. en.    :        0.000000000000 Eh       
CPCM Solvation Model Properties:
Surface-charge          :           -0.02614913
Charge-correction       :           -0.00036375 Eh              -0.00990 eV
Free-energy (cav+disp)  :  This term is not implemented in the current solvation scheme

---------------
SCF CONVERGENCE
---------------

  Last Energy change         ...   -8.2154e-09  Tolerance :   1.0000e-08
  Last MAX-Density change    ...    3.1086e-15  Tolerance :   1.0000e-07
  Last RMS-Density change    ...    3.9526e-17  Tolerance :   5.0000e-09
  Last Orbital Gradient      ...    5.4575e-07  Tolerance :   1.0000e-05
  Last Orbital Rotation      ...    1.2211e-06  Tolerance :   1.0000e-05

             **** THE GBW FILE WAS UPDATED (4_deprot_aq_5.gbw) ****
             **** DENSITY 4_deprot_aq_5.scfp WAS UPDATED ****
             **** ENERGY FILE WAS UPDATED (4_deprot_aq_5.en.tmp) ****
             **** THE GBW FILE WAS UPDATED (4_deprot_aq_5.gbw) ****
             **** DENSITY 4_deprot_aq_5.scfp WAS UPDATED ****
----------------
ORBITAL ENERGIES
----------------

  NO   OCC          E(Eh)            E(eV) 
   0   2.0000     -14.445837      -393.0912 
   1   2.0000     -14.445627      -393.0855 
   2   2.0000     -10.305953      -280.4392 
   3   2.0000     -10.305848      -280.4364 
   4   2.0000     -10.289538      -279.9926 
   5   2.0000     -10.288896      -279.9751 
   6   2.0000     -10.271670      -279.5064 
   7   2.0000     -10.255619      -279.0696 
   8   2.0000     -10.255223      -279.0588 
   9   2.0000     -10.253906      -279.0230 
  10   2.0000     -10.253730      -279.0182 
  11   2.0000      -1.152554       -31.3626 
  12   2.0000      -1.047504       -28.5040 
  13   2.0000      -0.938090       -25.5267 
  14   2.0000      -0.884660       -24.0728 
  15   2.0000      -0.858029       -23.3482 
  16   2.0000      -0.807445       -21.9717 
  17   2.0000      -0.806427       -21.9440 
  18   2.0000      -0.778045       -21.1717 
  19   2.0000      -0.726136       -19.7592 
  20   2.0000      -0.698209       -18.9992 
  21   2.0000      -0.655196       -17.8288 
  22   2.0000      -0.626005       -17.0345 
  23   2.0000      -0.582321       -15.8458 
  24   2.0000      -0.569519       -15.4974 
  25   2.0000      -0.567323       -15.4376 
  26   2.0000      -0.560054       -15.2398 
  27   2.0000      -0.538094       -14.6423 
  28   2.0000      -0.532120       -14.4797 
  29   2.0000      -0.525516       -14.3000 
  30   2.0000      -0.497091       -13.5265 
  31   2.0000      -0.490567       -13.3490 
  32   2.0000      -0.483527       -13.1574 
  33   2.0000      -0.479845       -13.0572 
  34   2.0000      -0.474279       -12.9058 
  35   2.0000      -0.454794       -12.3756 
  36   2.0000      -0.443268       -12.0619 
  37   2.0000      -0.441882       -12.0242 
  38   2.0000      -0.438390       -11.9292 
  39   2.0000      -0.369660       -10.0590 
  40   2.0000      -0.320083        -8.7099 
  41   2.0000      -0.317201        -8.6315 
  42   0.0000       0.124839         3.3971 
  43   0.0000       0.130242         3.5441 
  44   0.0000       0.153976         4.1899 
  45   0.0000       0.161002         4.3811 
  46   0.0000       0.180356         4.9077 
  47   0.0000       0.196996         5.3605 
  48   0.0000       0.199110         5.4181 
  49   0.0000       0.206859         5.6289 
  50   0.0000       0.214928         5.8485 
  51   0.0000       0.217271         5.9122 
  52   0.0000       0.220503         6.0002 
  53   0.0000       0.241324         6.5668 
  54   0.0000       0.242439         6.5971 
  55   0.0000       0.254907         6.9364 
  56   0.0000       0.261379         7.1125 
  57   0.0000       0.265410         7.2222 
  58   0.0000       0.273550         7.4437 
  59   0.0000       0.277831         7.5602 
  60   0.0000       0.279259         7.5990 
  61   0.0000       0.288040         7.8380 
  62   0.0000       0.290563         7.9066 
  63   0.0000       0.325024         8.8444 
  64   0.0000       0.333641         9.0788 
  65   0.0000       0.354494         9.6463 
  66   0.0000       0.356451         9.6995 
  67   0.0000       0.381165        10.3720 
  68   0.0000       0.389462        10.5978 
  69   0.0000       0.432007        11.7555 
  70   0.0000       0.464805        12.6480 
  71   0.0000       0.484030        13.1711 
  72   0.0000       0.498785        13.5726 
  73   0.0000       0.507175        13.8009 
  74   0.0000       0.517357        14.0780 
  75   0.0000       0.521101        14.1799 
  76   0.0000       0.527845        14.3634 
  77   0.0000       0.530231        14.4283 
  78   0.0000       0.574641        15.6368 
  79   0.0000       0.583017        15.8647 
  80   0.0000       0.604435        16.4475 
  81   0.0000       0.614436        16.7196 
  82   0.0000       0.632900        17.2221 
  83   0.0000       0.657641        17.8953 
  84   0.0000       0.667164        18.1545 
  85   0.0000       0.678483        18.4625 
  86   0.0000       0.686667        18.6851 
  87   0.0000       0.698187        18.9986 
  88   0.0000       0.711251        19.3541 
  89   0.0000       0.714186        19.4340 
  90   0.0000       0.737681        20.0733 
  91   0.0000       0.740456        20.1488 
  92   0.0000       0.749209        20.3870 
  93   0.0000       0.762351        20.7446 
  94   0.0000       0.765972        20.8432 
  95   0.0000       0.771990        21.0069 
  96   0.0000       0.776724        21.1357 
  97   0.0000       0.782460        21.2918 
  98   0.0000       0.784179        21.3386 
  99   0.0000       0.797162        21.6919 
 100   0.0000       0.799315        21.7505 
 101   0.0000       0.806429        21.9441 
 102   0.0000       0.807810        21.9816 
 103   0.0000       0.810058        22.0428 
 104   0.0000       0.814816        22.1723 
 105   0.0000       0.817811        22.2538 
 106   0.0000       0.825150        22.4535 
 107   0.0000       0.826812        22.4987 
 108   0.0000       0.834394        22.7050 
 109   0.0000       0.838646        22.8207 
 110   0.0000       0.855751        23.2862 
 111   0.0000       0.859017        23.3750 
 112   0.0000       0.866022        23.5657 
 113   0.0000       0.892890        24.2968 
 114   0.0000       0.904664        24.6171 
 115   0.0000       0.912616        24.8335 
 116   0.0000       1.000369        27.2214 
 117   0.0000       1.013032        27.5660 
 118   0.0000       1.064757        28.9735 
 119   0.0000       1.070179        29.1210 
 120   0.0000       1.107274        30.1305 
 121   0.0000       1.146061        31.1859 
 122   0.0000       1.174705        31.9654 
 123   0.0000       1.186152        32.2768 
 124   0.0000       1.193625        32.4802 
 125   0.0000       1.205841        32.8126 
 126   0.0000       1.242936        33.8220 
 127   0.0000       1.259715        34.2786 
 128   0.0000       1.302797        35.4509 
 129   0.0000       1.331522        36.2326 
 130   0.0000       1.336361        36.3642 
 131   0.0000       1.338298        36.4169 
 132   0.0000       1.351070        36.7645 
 133   0.0000       1.420377        38.6504 
 134   0.0000       1.430976        38.9388 
 135   0.0000       1.449790        39.4508 
 136   0.0000       1.490032        40.5458 
 137   0.0000       1.534986        41.7691 
 138   0.0000       1.551980        42.2315 
 139   0.0000       1.559001        42.4226 
 140   0.0000       1.597726        43.4763 
 141   0.0000       1.660164        45.1754 
 142   0.0000       1.661963        45.2243 
 143   0.0000       1.662557        45.2405 
 144   0.0000       1.673263        45.5318 
 145   0.0000       1.676383        45.6167 
 146   0.0000       1.684626        45.8410 
 147   0.0000       1.737291        47.2741 
 148   0.0000       1.752840        47.6972 
 149   0.0000       1.819291        49.5054 
 150   0.0000       1.828869        49.7661 
 151   0.0000       1.837085        49.9896 
 152   0.0000       1.842707        50.1426 
 153   0.0000       1.852614        50.4122 
 154   0.0000       1.889587        51.4183 
 155   0.0000       1.894771        51.5593 
 156   0.0000       1.899886        51.6985 
 157   0.0000       1.915282        52.1175 
 158   0.0000       1.924978        52.3813 
 159   0.0000       1.931177        52.5500 
 160   0.0000       1.940898        52.8145 
 161   0.0000       1.943438        52.8836 
 162   0.0000       1.955128        53.2017 
 163   0.0000       1.963074        53.4180 
 164   0.0000       1.973562        53.7034 
 165   0.0000       1.980496        53.8920 
 166   0.0000       1.987219        54.0750 
 167   0.0000       1.993048        54.2336 
 168   0.0000       2.000128        54.4263 
 169   0.0000       2.004657        54.5495 
 170   0.0000       2.010835        54.7176 
 171   0.0000       2.013345        54.7859 
 172   0.0000       2.044188        55.6252 
 173   0.0000       2.056630        55.9638 
 174   0.0000       2.064406        56.1754 
 175   0.0000       2.075902        56.4882 
 176   0.0000       2.077331        56.5270 
 177   0.0000       2.105962        57.3062 
 178   0.0000       2.114969        57.5512 
 179   0.0000       2.164504        58.8991 
 180   0.0000       2.165454        58.9250 
 181   0.0000       2.200924        59.8902 
 182   0.0000       2.224053        60.5196 
 183   0.0000       2.252178        61.2849 
 184   0.0000       2.267193        61.6934 
 185   0.0000       2.272574        61.8399 
 186   0.0000       2.337725        63.6127 
 187   0.0000       2.347403        63.8761 
 188   0.0000       2.384914        64.8968 
 189   0.0000       2.394884        65.1681 
 190   0.0000       2.396955        65.2244 
 191   0.0000       2.425489        66.0009 
 192   0.0000       2.474698        67.3400 
 193   0.0000       2.492955        67.8367 
 194   0.0000       2.500170        68.0331 
 195   0.0000       2.510654        68.3184 
 196   0.0000       2.524480        68.6946 
 197   0.0000       2.526662        68.7540 
 198   0.0000       2.536766        69.0289 
 199   0.0000       2.578313        70.1595 
 200   0.0000       2.624519        71.4168 
 201   0.0000       2.626361        71.4669 
 202   0.0000       2.631767        71.6140 
 203   0.0000       2.635789        71.7235 
 204   0.0000       2.691986        73.2527 
 205   0.0000       2.707347        73.6707 
 206   0.0000       2.716442        73.9181 
 207   0.0000       2.735681        74.4417 
 208   0.0000       2.825438        76.8841 
 209   0.0000       2.830309        77.0166 
 210   0.0000       2.834085        77.1194 
 211   0.0000       2.855744        77.7087 
 212   0.0000       2.876763        78.2807 
 213   0.0000       2.906369        79.0863 
 214   0.0000       2.970857        80.8411 
 215   0.0000       2.979116        81.0659 
 216   0.0000       3.004161        81.7474 
 217   0.0000       3.008329        81.8608 
 218   0.0000       3.015564        82.0577 
 219   0.0000       3.024998        82.3144 
 220   0.0000       3.030018        82.4510 
 221   0.0000       3.047236        82.9195 
 222   0.0000       3.050084        82.9970 
 223   0.0000       3.096043        84.2476 
 224   0.0000       3.099533        84.3426 
 225   0.0000       3.131934        85.2243 
 226   0.0000       3.146582        85.6228 
 227   0.0000       3.161928        86.0404 
 228   0.0000       3.165552        86.1390 
 229   0.0000       3.203268        87.1654 
 230   0.0000       3.319765        90.3354 
 231   0.0000       3.486591        94.8750 
 232   0.0000       3.489422        94.9520 
 233   0.0000       3.693028       100.4924 

                    ********************************
                    * MULLIKEN POPULATION ANALYSIS *
                    ********************************

-----------------------
MULLIKEN ATOMIC CHARGES
-----------------------
   0 N :   -0.204173
   1 C :   -0.186927
   2 N :   -0.203599
   3 C :    0.019333
   4 C :    0.020187
   5 C :   -0.015073
   6 C :   -0.017240
   7 C :    0.011582
   8 H :    0.042310
   9 C :    0.014946
  10 H :    0.042341
  11 C :    0.016648
  12 C :    0.011910
  13 H :    0.050708
  14 H :    0.051097
  15 H :    0.036328
  16 H :    0.030392
  17 H :    0.021015
  18 H :    0.029990
  19 H :    0.034347
  20 H :    0.020746
  21 H :    0.034107
  22 H :    0.021412
  23 H :    0.029516
  24 H :    0.021108
  25 H :    0.036788
  26 H :    0.030201
Sum of atomic charges:   -0.0000000

--------------------------------
MULLIKEN REDUCED ORBITAL CHARGES
--------------------------------
  0 N s       :     3.387358  s :     3.387358
      pz      :     1.130507  p :     3.783732
      px      :     1.162478
      py      :     1.490747
      dz2     :     0.008627  d :     0.033083
      dxz     :     0.008949
      dyz     :     0.005637
      dx2y2   :     0.005546
      dxy     :     0.004324
  1 C s       :     3.601595  s :     3.601595
      pz      :     1.137531  p :     2.520613
      px      :     0.654062
      py      :     0.729020
      dz2     :     0.008553  d :     0.064719
      dxz     :     0.027146
      dyz     :     0.009478
      dx2y2   :     0.007385
      dxy     :     0.012158
  2 N s       :     3.387306  s :     3.387306
      pz      :     1.129644  p :     3.783187
      px      :     1.161996
      py      :     1.491546
      dz2     :     0.008495  d :     0.033106
      dxz     :     0.009019
      dyz     :     0.005793
      dx2y2   :     0.005534
      dxy     :     0.004265
  3 C s       :     3.144177  s :     3.144177
      pz      :     0.814324  p :     2.787965
      px      :     0.902799
      py      :     1.070841
      dz2     :     0.014052  d :     0.048525
      dxz     :     0.012966
      dyz     :     0.008093
      dx2y2   :     0.005341
      dxy     :     0.008072
  4 C s       :     3.143229  s :     3.143229
      pz      :     0.811581  p :     2.787975
      px      :     0.903868
      py      :     1.072527
      dz2     :     0.014176  d :     0.048609
      dxz     :     0.012906
      dyz     :     0.008233
      dx2y2   :     0.005092
      dxy     :     0.008203
  5 C s       :     3.089501  s :     3.089501
      pz      :     1.025210  p :     2.868137
      px      :     0.814670
      py      :     1.028258
      dz2     :     0.009016  d :     0.057435
      dxz     :     0.012036
      dyz     :     0.010364
      dx2y2   :     0.015722
      dxy     :     0.010297
  6 C s       :     3.089272  s :     3.089272
      pz      :     1.027497  p :     2.870524
      px      :     0.814338
      py      :     1.028689
      dz2     :     0.008527  d :     0.057445
      dxz     :     0.012287
      dyz     :     0.010313
      dx2y2   :     0.016217
      dxy     :     0.010101
  7 C s       :     2.985210  s :     2.985210
      pz      :     0.983900  p :     2.976486
      px      :     1.007444
      py      :     0.985143
      dz2     :     0.005329  d :     0.026722
      dxz     :     0.006020
      dyz     :     0.005636
      dx2y2   :     0.007897
      dxy     :     0.001839
  8 H s       :     0.936909  s :     0.936909
      pz      :     0.009618  p :     0.020781
      px      :     0.006545
      py      :     0.004618
  9 C s       :     2.986481  s :     2.986481
      pz      :     1.017759  p :     2.971819
      px      :     1.003197
      py      :     0.950863
      dz2     :     0.003716  d :     0.026754
      dxz     :     0.004883
      dyz     :     0.007748
      dx2y2   :     0.007610
      dxy     :     0.002797
 10 H s       :     0.936889  s :     0.936889
      pz      :     0.010823  p :     0.020769
      px      :     0.006430
      py      :     0.003517
 11 C s       :     2.985931  s :     2.985931
      pz      :     1.004017  p :     2.970671
      px      :     1.002284
      py      :     0.964369
      dz2     :     0.003539  d :     0.026750
      dxz     :     0.005715
      dyz     :     0.007593
      dx2y2   :     0.007985
      dxy     :     0.001918
 12 C s       :     2.984236  s :     2.984236
      pz      :     1.008646  p :     2.977139
      px      :     1.007079
      py      :     0.961414
      dz2     :     0.003699  d :     0.026715
      dxz     :     0.006067
      dyz     :     0.007181
      dx2y2   :     0.007983
      dxy     :     0.001786
 13 H s       :     0.924508  s :     0.924508
      pz      :     0.010672  p :     0.024784
      px      :     0.008644
      py      :     0.005468
 14 H s       :     0.924133  s :     0.924133
      pz      :     0.010441  p :     0.024770
      px      :     0.008633
      py      :     0.005696
 15 H s       :     0.939282  s :     0.939282
      pz      :     0.005962  p :     0.024390
      px      :     0.014406
      py      :     0.004022
 16 H s       :     0.945461  s :     0.945461
      pz      :     0.011483  p :     0.024147
      px      :     0.005068
      py      :     0.007596
 17 H s       :     0.954442  s :     0.954442
      pz      :     0.010523  p :     0.024543
      px      :     0.008982
      py      :     0.005037
 18 H s       :     0.945874  s :     0.945874
      pz      :     0.004786  p :     0.024136
      px      :     0.005487
      py      :     0.013863
 19 H s       :     0.941295  s :     0.941295
      pz      :     0.005508  p :     0.024358
      px      :     0.014258
      py      :     0.004592
 20 H s       :     0.954399  s :     0.954399
      pz      :     0.009730  p :     0.024855
      px      :     0.009636
      py      :     0.005489
 21 H s       :     0.941546  s :     0.941546
      pz      :     0.005773  p :     0.024347
      px      :     0.014284
      py      :     0.004290
 22 H s       :     0.953689  s :     0.953689
      pz      :     0.010981  p :     0.024899
      px      :     0.009600
      py      :     0.004317
 23 H s       :     0.946338  s :     0.946338
      pz      :     0.007158  p :     0.024146
      px      :     0.005604
      py      :     0.011384
 24 H s       :     0.954428  s :     0.954428
      pz      :     0.011464  p :     0.024464
      px      :     0.008740
      py      :     0.004260
 25 H s       :     0.938807  s :     0.938807
      pz      :     0.005726  p :     0.024405
      px      :     0.014459
      py      :     0.004220
 26 H s       :     0.945633  s :     0.945633
      pz      :     0.008220  p :     0.024166
      px      :     0.005031
      py      :     0.010914


                     *******************************
                     * LOEWDIN POPULATION ANALYSIS *
                     *******************************

----------------------
LOEWDIN ATOMIC CHARGES
----------------------
   0 N :    0.044477
   1 C :   -0.300378
   2 N :    0.044554
   3 C :   -0.037269
   4 C :   -0.036359
   5 C :    0.030351
   6 C :    0.030026
   7 C :   -0.054890
   8 H :    0.031930
   9 C :   -0.054803
  10 H :    0.031822
  11 C :   -0.054664
  12 C :   -0.054788
  13 H :    0.035115
  14 H :    0.035243
  15 H :    0.030005
  16 H :    0.026365
  17 H :    0.022301
  18 H :    0.026205
  19 H :    0.029238
  20 H :    0.020488
  21 H :    0.029154
  22 H :    0.020346
  23 H :    0.026112
  24 H :    0.022773
  25 H :    0.030322
  26 H :    0.026327

-------------------------------
LOEWDIN REDUCED ORBITAL CHARGES
-------------------------------
  0 N s       :     3.056602  s :     3.056602
      pz      :     1.206601  p :     3.820852
      px      :     1.197979
      py      :     1.416271
      dz2     :     0.022149  d :     0.078069
      dxz     :     0.024677
      dyz     :     0.011209
      dx2y2   :     0.011863
      dxy     :     0.008171
  1 C s       :     3.185973  s :     3.185973
      pz      :     1.359936  p :     2.974353
      px      :     0.826638
      py      :     0.787780
      dz2     :     0.014105  d :     0.140052
      dxz     :     0.063655
      dyz     :     0.013721
      dx2y2   :     0.021997
      dxy     :     0.026574
  2 N s       :     3.056791  s :     3.056791
      pz      :     1.207100  p :     3.820545
      px      :     1.197908
      py      :     1.415538
      dz2     :     0.021949  d :     0.078109
      dxz     :     0.024799
      dyz     :     0.011442
      dx2y2   :     0.011886
      dxy     :     0.008034
  3 C s       :     2.852920  s :     2.852920
      pz      :     0.945418  p :     3.062415
      px      :     1.054550
      py      :     1.062447
      dz2     :     0.037329  d :     0.121934
      dxz     :     0.035759
      dyz     :     0.016875
      dx2y2   :     0.015265
      dxy     :     0.016706
  4 C s       :     2.852966  s :     2.852966
      pz      :     0.943757  p :     3.061286
      px      :     1.054583
      py      :     1.062946
      dz2     :     0.037804  d :     0.122107
      dxz     :     0.035600
      dyz     :     0.017077
      dx2y2   :     0.014595
      dxy     :     0.017031
  5 C s       :     2.829652  s :     2.829652
      pz      :     1.051044  p :     3.007596
      px      :     0.901860
      py      :     1.054692
      dz2     :     0.020043  d :     0.132401
      dxz     :     0.028655
      dyz     :     0.024486
      dx2y2   :     0.037236
      dxy     :     0.021981
  6 C s       :     2.829639  s :     2.829639
      pz      :     1.053384  p :     3.007896
      px      :     0.901553
      py      :     1.052959
      dz2     :     0.017511  d :     0.132440
      dxz     :     0.029870
      dyz     :     0.025887
      dx2y2   :     0.038192
      dxy     :     0.020981
  7 C s       :     2.831097  s :     2.831097
      pz      :     1.039316  p :     3.152433
      px      :     1.069629
      py      :     1.043488
      dz2     :     0.013312  d :     0.071361
      dxz     :     0.015930
      dyz     :     0.016233
      dx2y2   :     0.021285
      dxy     :     0.004601
  8 H s       :     0.902788  s :     0.902788
      pz      :     0.028599  p :     0.065282
      px      :     0.020109
      py      :     0.016574
  9 C s       :     2.832735  s :     2.832735
      pz      :     1.068239  p :     3.150852
      px      :     1.067092
      py      :     1.015521
      dz2     :     0.010082  d :     0.071215
      dxz     :     0.012988
      dyz     :     0.019613
      dx2y2   :     0.021286
      dxy     :     0.007246
 10 H s       :     0.902910  s :     0.902910
      pz      :     0.031460  p :     0.065268
      px      :     0.019840
      py      :     0.013967
 11 C s       :     2.832987  s :     2.832987
      pz      :     1.058108  p :     3.150512
      px      :     1.066575
      py      :     1.025828
      dz2     :     0.008600  d :     0.071166
      dxz     :     0.015244
      dyz     :     0.020526
      dx2y2   :     0.021862
      dxy     :     0.004934
 12 C s       :     2.830615  s :     2.830615
      pz      :     1.057892  p :     3.152773
      px      :     1.069714
      py      :     1.025167
      dz2     :     0.008794  d :     0.071400
      dxz     :     0.016157
      dyz     :     0.020082
      dx2y2   :     0.021992
      dxy     :     0.004375
 13 H s       :     0.890615  s :     0.890615
      pz      :     0.031409  p :     0.074270
      px      :     0.024834
      py      :     0.018027
 14 H s       :     0.890537  s :     0.890537
      pz      :     0.030853  p :     0.074219
      px      :     0.024801
      py      :     0.018566
 15 H s       :     0.902667  s :     0.902667
      pz      :     0.015758  p :     0.067328
      px      :     0.038391
      py      :     0.013178
 16 H s       :     0.906489  s :     0.906489
      pz      :     0.030530  p :     0.067146
      px      :     0.013223
      py      :     0.023394
 17 H s       :     0.909268  s :     0.909268
      pz      :     0.028372  p :     0.068431
      px      :     0.023703
      py      :     0.016356
 18 H s       :     0.906600  s :     0.906600
      pz      :     0.014692  p :     0.067196
      px      :     0.014184
      py      :     0.038320
 19 H s       :     0.903410  s :     0.903410
      pz      :     0.016564  p :     0.067352
      px      :     0.037907
      py      :     0.012882
 20 H s       :     0.909868  s :     0.909868
      pz      :     0.028577  p :     0.069644
      px      :     0.025460
      py      :     0.015607
 21 H s       :     0.903487  s :     0.903487
      pz      :     0.016369  p :     0.067358
      px      :     0.037990
      py      :     0.012999
 22 H s       :     0.909768  s :     0.909768
      pz      :     0.031122  p :     0.069886
      px      :     0.025394
      py      :     0.013370
 23 H s       :     0.906692  s :     0.906692
      pz      :     0.020075  p :     0.067196
      px      :     0.014464
      py      :     0.032657
 24 H s       :     0.909054  s :     0.909054
      pz      :     0.031652  p :     0.068173
      px      :     0.023065
      py      :     0.013456
 25 H s       :     0.902352  s :     0.902352
      pz      :     0.015748  p :     0.067327
      px      :     0.038569
      py      :     0.013010
 26 H s       :     0.906534  s :     0.906534
      pz      :     0.022361  p :     0.067138
      px      :     0.013160
      py      :     0.031618


                      *****************************
                      * MAYER POPULATION ANALYSIS *
                      *****************************

  NA   - Mulliken gross atomic population
  ZA   - Total nuclear charge
  QA   - Mulliken gross atomic charge
  VA   - Mayer's total valence
  BVA  - Mayer's bonded valence
  FA   - Mayer's free valence

  ATOM       NA         ZA         QA         VA         BVA        FA
  0 N      7.2042     7.0000    -0.2042     3.3392     3.3392    -0.0000
  1 C      6.1869     6.0000    -0.1869     2.7575     2.7575    -0.0000
  2 N      7.2036     7.0000    -0.2036     3.3398     3.3398    -0.0000
  3 C      5.9807     6.0000     0.0193     3.8422     3.8422     0.0000
  4 C      5.9798     6.0000     0.0202     3.8426     3.8426     0.0000
  5 C      6.0151     6.0000    -0.0151     4.0887     4.0887    -0.0000
  6 C      6.0172     6.0000    -0.0172     4.0904     4.0904    -0.0000
  7 C      5.9884     6.0000     0.0116     3.9460     3.9460     0.0000
  8 H      0.9577     1.0000     0.0423     0.9785     0.9785    -0.0000
  9 C      5.9851     6.0000     0.0149     3.9503     3.9503    -0.0000
 10 H      0.9577     1.0000     0.0423     0.9782     0.9782     0.0000
 11 C      5.9834     6.0000     0.0166     3.9508     3.9508    -0.0000
 12 C      5.9881     6.0000     0.0119     3.9457     3.9457    -0.0000
 13 H      0.9493     1.0000     0.0507     1.0005     1.0005     0.0000
 14 H      0.9489     1.0000     0.0511     1.0003     1.0003    -0.0000
 15 H      0.9637     1.0000     0.0363     0.9943     0.9943     0.0000
 16 H      0.9696     1.0000     0.0304     0.9953     0.9953    -0.0000
 17 H      0.9790     1.0000     0.0210     1.0178     1.0178    -0.0000
 18 H      0.9700     1.0000     0.0300     0.9952     0.9952     0.0000
 19 H      0.9657     1.0000     0.0343     0.9939     0.9939     0.0000
 20 H      0.9793     1.0000     0.0207     1.0293     1.0293     0.0000
 21 H      0.9659     1.0000     0.0341     0.9937     0.9937     0.0000
 22 H      0.9786     1.0000     0.0214     1.0308     1.0308     0.0000
 23 H      0.9705     1.0000     0.0295     0.9957     0.9957     0.0000
 24 H      0.9789     1.0000     0.0211     1.0150     1.0150    -0.0000
 25 H      0.9632     1.0000     0.0368     0.9945     0.9945     0.0000
 26 H      0.9698     1.0000     0.0302     0.9958     0.9958    -0.0000

  Mayer bond orders larger than 0.100000
B(  0-N ,  1-C ) :   1.2476 B(  0-N ,  4-C ) :   1.1440 B(  0-N ,  5-C ) :   0.9045 
B(  1-C ,  2-N ) :   1.2496 B(  2-N ,  3-C ) :   1.1428 B(  2-N ,  6-C ) :   0.9053 
B(  3-C ,  4-C ) :   1.6008 B(  3-C , 13-H ) :   0.9944 B(  4-C , 14-H ) :   0.9943 
B(  5-C ,  7-C ) :   1.0674 B(  5-C ,  8-H ) :   0.9461 B(  5-C ,  9-C ) :   1.0700 
B(  6-C , 10-H ) :   0.9460 B(  6-C , 11-C ) :   1.0706 B(  6-C , 12-C ) :   1.0671 
B(  7-C , 18-H ) :   0.9696 B(  7-C , 19-H ) :   0.9718 B(  7-C , 20-H ) :   0.9607 
B(  9-C , 15-H ) :   0.9734 B(  9-C , 16-H ) :   0.9688 B(  9-C , 17-H ) :   0.9636 
B( 11-C , 24-H ) :   0.9639 B( 11-C , 25-H ) :   0.9736 B( 11-C , 26-H ) :   0.9686 
B( 12-C , 21-H ) :   0.9712 B( 12-C , 22-H ) :   0.9597 B( 12-C , 23-H ) :   0.9697 


-------
TIMINGS
-------

Total SCF time: 0 days 0 hours 6 min 40 sec 

Total time                  ....     400.332 sec
Sum of individual times     ....     399.765 sec  ( 99.9%)

Fock matrix formation       ....     394.169 sec  ( 98.5%)
  Split-RI-J                ....      15.013 sec  (  3.8% of F)
  Chain of spheres X        ....     321.429 sec  ( 81.5% of F)
  XC integration            ....      33.455 sec  (  8.5% of F)
[...]
     70      -0.000836   0.001832   0.346180   0.017770  -0.495828  -0.010065
     71       0.000634  -0.001346  -0.262064  -0.013357   0.372959   0.007208
     72      -0.004210   0.000606  -0.185225   0.004568  -0.120748   0.004559
     73       0.000120  -0.000011  -0.000691   0.000076  -0.002037  -0.000110
     74      -0.006386   0.000963  -0.297485   0.007416  -0.195902   0.007272
     75       0.003079   0.001136  -0.598100   0.019451  -0.478587   0.012062
     76      -0.000042  -0.000027   0.018995  -0.000593   0.014092  -0.000416
     77      -0.000677  -0.000298   0.152299  -0.004915   0.121337  -0.003091
     78       0.001908  -0.000046  -0.033388   0.001613  -0.036070   0.000470
     79      -0.009137   0.000112   0.197699  -0.008796   0.199587  -0.002596
     80      -0.005366   0.000046   0.119169  -0.005268   0.119398  -0.001587
                 78         79         80    
      0      -0.000025   0.000374  -0.000921
      1      -0.000033   0.000119  -0.000479
      2      -0.000061   0.000650  -0.002643
      3       0.000229  -0.001835   0.000005
      4      -0.000191   0.000047  -0.000182
      5      -0.000096  -0.000012  -0.000941
      6      -0.000229   0.000369   0.000917
      7       0.000241  -0.000145  -0.000565
      8       0.000217  -0.000650  -0.002628
      9      -0.000237   0.039549   0.050419
     10      -0.000028   0.008294   0.007988
     11      -0.000162   0.046989   0.046801
     12       0.000082   0.039438  -0.050587
     13       0.000005  -0.010062   0.010341
     14      -0.000034  -0.046465   0.046458
     15      -0.000638   0.000471  -0.000265
     16       0.000215  -0.000123   0.000085
     17       0.000808  -0.000460   0.000357
     18       0.006001   0.000491   0.000278
     19       0.000304   0.000027   0.000045
     20       0.008718   0.000510   0.000388
     21      -0.005168   0.000067   0.000021
     22       0.001443   0.000002   0.000023
     23       0.002743  -0.000017   0.000054
     24       0.006084  -0.004304   0.003124
     25      -0.002414   0.001127  -0.000663
     26      -0.009069   0.003854  -0.002223
     27      -0.003666   0.000080   0.000005
     28       0.000453  -0.000023   0.000020
     29       0.001190  -0.000008   0.000034
     30      -0.059777  -0.004443  -0.003200
     31      -0.004601   0.000019   0.000048
     32      -0.094507  -0.004492  -0.002687
     33       0.026750   0.000087   0.000005
     34      -0.002431  -0.000026  -0.000017
     35       0.006234   0.000011   0.000025
     36       0.073589   0.000060  -0.000029
     37      -0.009814   0.000001  -0.000011
     38       0.048677   0.000017   0.000065
     39       0.002159  -0.464259  -0.466893
     40       0.000348  -0.091853  -0.090573
     41       0.002215  -0.523154  -0.517116
     42       0.000353  -0.463214   0.468762
     43      -0.000010   0.112664  -0.112242
     44      -0.000633   0.517032  -0.514186
     45       0.029692  -0.001670   0.000623
     46       0.001489  -0.000428   0.000270
     47       0.007606  -0.000492   0.000203
     48      -0.000233  -0.000016  -0.000018
     49      -0.000263   0.000161  -0.000066
     50       0.000525  -0.000266   0.000108
     51       0.014952  -0.000486   0.000324
     52      -0.007182   0.000442  -0.000305
     53      -0.022582   0.000869  -0.000580
     54      -0.002721   0.000013  -0.000081
     55      -0.008219  -0.000159  -0.000121
     56      -0.002715  -0.000079  -0.000039
     57       0.039163  -0.001579   0.000568
     58       0.000518   0.000246  -0.000203
     59       0.010000  -0.000649   0.000312
     60       0.025990  -0.000458   0.000382
     61      -0.009424   0.000043  -0.000030
     62      -0.040658   0.000934  -0.000775
     63      -0.542293  -0.001580  -0.000557
     64       0.033237   0.000431   0.000308
     65       0.132111   0.000557   0.000235
     66      -0.390008  -0.000423  -0.000397
     67      -0.045516  -0.000235  -0.000209
     68      -0.626928  -0.000862  -0.000796
     69       0.047542   0.000029   0.000111
     70       0.125742  -0.000099   0.000191
     71      -0.090213   0.000078  -0.000152
     72      -0.095159  -0.000459  -0.000259
     73       0.002055   0.000160   0.000109
     74      -0.151900  -0.000928  -0.000538
     75      -0.224130  -0.001711  -0.000649
     76       0.006852  -0.000264  -0.000176
     77       0.057922   0.000588   0.000273
     78      -0.003227  -0.000045  -0.000017
     79       0.024198   0.000288   0.000221
     80       0.015471   0.000285   0.000187


-----------
IR SPECTRUM
-----------

 Mode   freq       eps      Int      T**2         TX        TY        TZ
       cm**-1   L/(mol*cm) km/mol    a.u.
----------------------------------------------------------------------------
  6:     44.32   0.000008    0.04  0.000060  ( 0.000175  0.007112 -0.003030)
  7:     55.98   0.001770    8.95  0.009870  ( 0.004873  0.097279 -0.019566)
  8:     88.22   0.001444    7.29  0.005106  (-0.000957 -0.070013  0.014260)
  9:    147.11   0.000308    1.56  0.000653  (-0.000073  0.005827  0.024888)
 10:    173.25   0.000002    0.01  0.000003  ( 0.001285 -0.001336 -0.000186)
 11:    243.54   0.000083    0.42  0.000107  ( 0.009749 -0.002909  0.001823)
 12:    249.80   0.000027    0.13  0.000033  (-0.004817  0.003128 -0.000473)
 13:    269.95   0.000644    3.25  0.000745  ( 0.027241 -0.001547 -0.000318)
 14:    283.06   0.000005    0.03  0.000006  (-0.001938  0.000002 -0.001373)
 15:    314.75   0.000381    1.93  0.000378  ( 0.001697  0.000755  0.019352)
 16:    326.61   0.001240    6.26  0.001184  (-0.034163  0.004090  0.000800)
 17:    344.24   0.000584    2.95  0.000529  (-0.021484  0.008092 -0.001391)
 18:    402.90   0.003915   19.79  0.003033  ( 0.006076  0.053804 -0.010037)
 19:    456.89   0.000011    0.06  0.000008  (-0.000246 -0.000995 -0.002557)
 20:    486.40   0.000132    0.67  0.000084  (-0.000262 -0.002061 -0.008952)
 21:    529.43   0.000057    0.29  0.000034  ( 0.005786  0.000296 -0.000221)
 22:    613.93   0.000503    2.54  0.000256  ( 0.000150 -0.002101 -0.015852)
 23:    673.47   0.000006    0.03  0.000003  ( 0.001565  0.000041 -0.000741)
 24:    686.01   0.002302   11.63  0.001047  (-0.002705  0.031781 -0.005459)
 25:    723.15   0.002688   13.58  0.001160  ( 0.033570  0.005655 -0.000919)
 26:    754.38   0.015141   76.52  0.006263  (-0.002483 -0.077742  0.014611)
 27:    884.40   0.000002    0.01  0.000001  ( 0.000043 -0.000005 -0.000813)
 28:    909.53   0.000007    0.03  0.000002  (-0.000781  0.000543  0.001174)
 29:    919.71   0.001401    7.08  0.000475  ( 0.021801  0.000303  0.000185)
 30:    931.91   0.000465    2.35  0.000156  ( 0.002780 -0.012101  0.001188)
 31:    933.11   0.000554    2.80  0.000185  ( 0.000642 -0.013211  0.003230)
 32:    961.06   0.000007    0.04  0.000002  (-0.000258 -0.001236 -0.000881)
 33:    961.78   0.000192    0.97  0.000062  (-0.000133  0.007784 -0.001267)
 34:   1011.97   0.004350   21.98  0.001342  (-0.036616  0.000884 -0.000160)
 35:   1022.99   0.000352    1.78  0.000107  ( 0.000763  0.002355  0.010068)
 36:   1091.49   0.004798   24.25  0.001372  (-0.000146 -0.006593 -0.036444)
 37:   1119.37   0.000633    3.20  0.000177  ( 0.000320 -0.002574 -0.013032)
 38:   1144.54   0.010393   52.52  0.002834  (-0.053219  0.001179 -0.000085)
 39:   1160.12   0.004304   21.75  0.001158  ( 0.033821  0.003628 -0.000831)
 40:   1170.49   0.000273    1.38  0.000073  (-0.003265  0.007873  0.000264)
 41:   1170.94   0.003232   16.33  0.000861  (-0.006919  0.028065 -0.005093)
 42:   1190.01   0.001035    5.23  0.000271  ( 0.000614 -0.002373 -0.016289)
 43:   1227.02   0.008651   43.72  0.002200  (-0.046904  0.000266 -0.000440)
 44:   1326.80   0.014384   72.69  0.003383  ( 0.058163  0.000105 -0.000305)
 45:   1333.22   0.000050    0.25  0.000012  (-0.002733  0.000728  0.001926)
 46:   1348.35   0.000012    0.06  0.000003  (-0.001271 -0.001080  0.000006)
 47:   1348.50   0.000046    0.23  0.000011  (-0.002955 -0.000912  0.001029)
 48:   1393.07   0.000636    3.21  0.000142  (-0.010496  0.000118  0.005683)
 49:   1394.10   0.002134   10.78  0.000478  ( 0.002671  0.003441  0.021418)
 50:   1400.78   0.002057   10.40  0.000458  ( 0.001491  0.021300 -0.001528)
 51:   1400.95   0.007228   36.53  0.001610  ( 0.002496  0.039205 -0.008166)
 52:   1413.13   0.003490   17.64  0.000771  (-0.000496  0.004849  0.027332)
 53:   1434.07   0.006544   33.07  0.001424  (-0.037710 -0.000579  0.001264)
 54:   1445.90   0.000134    0.68  0.000029  ( 0.001513 -0.004761  0.001979)
 55:   1446.13   0.000527    2.66  0.000114  ( 0.003956 -0.002898  0.009470)
 56:   1450.68   0.009209   46.54  0.001981  ( 0.002724 -0.009200 -0.043462)
 57:   1453.05   0.000347    1.75  0.000074  (-0.000727  0.002368 -0.008265)
 58:   1453.80   0.000163    0.82  0.000035  ( 0.004464 -0.003797 -0.000826)
 59:   1456.87   0.006396   32.32  0.001370  (-0.036829  0.002849 -0.002356)
 60:   1467.34   0.000024    0.12  0.000005  (-0.002141  0.000145  0.000677)
 61:   1474.92   0.012732   64.34  0.002694  (-0.051892  0.000062 -0.001043)
 62:   1482.12   0.002983   15.08  0.000628  (-0.024998 -0.001778 -0.000318)
 63:   1493.41   0.004555   23.02  0.000952  (-0.000869 -0.005422 -0.030359)
 64:   1647.99   0.000373    1.89  0.000071  (-0.000003  0.001153  0.008325)
 65:   3064.55   0.005024   25.39  0.000512  (-0.004856 -0.020841  0.007328)
 66:   3064.81   0.004788   24.19  0.000487  (-0.003766 -0.021739  0.000852)
 67:   3068.35   0.002649   13.38  0.000269  (-0.008783  0.006521 -0.012235)
 68:   3069.75   0.003087   15.60  0.000314  ( 0.007705 -0.012579 -0.009808)
 69:   3107.88   0.004360   22.03  0.000438  ( 0.017430 -0.001409  0.011488)
 70:   3108.18   0.004644   23.47  0.000466  ( 0.010013 -0.004328 -0.018635)
 71:   3169.01   0.004585   23.17  0.000451  (-0.003172 -0.014283 -0.015408)
 72:   3170.01   0.004513   22.81  0.000444  ( 0.001086 -0.011569  0.017585)
 73:   3172.13   0.004292   21.69  0.000422  (-0.006594 -0.014191 -0.013319)
 74:   3172.39   0.002093   10.58  0.000206  ( 0.005463 -0.011272  0.007000)
 75:   3173.30   0.002110   10.66  0.000208  (-0.012320 -0.003818 -0.006416)
 76:   3173.59   0.006033   30.49  0.000593  ( 0.018569  0.005191 -0.014881)
 77:   3176.74   0.010465   52.89  0.001028  (-0.030295  0.005677  0.008833)
 78:   3178.24   0.006869   34.71  0.000674  ( 0.022374 -0.002996  0.012839)
 79:   3280.86   0.001492    7.54  0.000142  (-0.011912  0.000150  0.000046)
 80:   3301.82   0.000180    0.91  0.000017  ( 0.000120 -0.000979 -0.004003)

* The epsilon (eps) is given for a Dirac delta lineshape.
** The dipole moment derivative (T) already includes vibrational overlap.

The first frequency considered to be a vibration is 6
The total number of vibrations considered is 75


--------------------------
THERMOCHEMISTRY AT 298.15K
--------------------------

Temperature         ... 298.15 K
Pressure            ... 1.00 atm
Total Mass          ... 152.24 AMU

Throughout the following assumptions are being made:
  (1) The electronic state is orbitally nondegenerate
  (2) There are no thermally accessible electronically excited states
  (3) Hindered rotations indicated by low frequency modes are not
      treated as such but are treated as vibrations and this may
      cause some error
  (4) All equations used are the standard statistical mechanics
      equations for an ideal gas
  (5) All vibrations are strictly harmonic

freq.      44.32  E(vib)   ...       0.53 
freq.      55.98  E(vib)   ...       0.52 
freq.      88.22  E(vib)   ...       0.48 
freq.     147.11  E(vib)   ...       0.41 
freq.     173.25  E(vib)   ...       0.38 
freq.     243.54  E(vib)   ...       0.31 
freq.     249.80  E(vib)   ...       0.31 
freq.     269.95  E(vib)   ...       0.29 
freq.     283.06  E(vib)   ...       0.28 
freq.     314.75  E(vib)   ...       0.25 
freq.     326.61  E(vib)   ...       0.24 
freq.     344.24  E(vib)   ...       0.23 
freq.     402.90  E(vib)   ...       0.19 
freq.     456.89  E(vib)   ...       0.16 
freq.     486.40  E(vib)   ...       0.15 
freq.     529.43  E(vib)   ...       0.13 
freq.     613.93  E(vib)   ...       0.10 
freq.     673.47  E(vib)   ...       0.08 
freq.     686.01  E(vib)   ...       0.07 
freq.     723.15  E(vib)   ...       0.07 
freq.     754.38  E(vib)   ...       0.06 
freq.     884.40  E(vib)   ...       0.04 
freq.     909.53  E(vib)   ...       0.03 
freq.     919.71  E(vib)   ...       0.03 
freq.     931.91  E(vib)   ...       0.03 
freq.     933.11  E(vib)   ...       0.03 
freq.     961.06  E(vib)   ...       0.03 
freq.     961.78  E(vib)   ...       0.03 
freq.    1011.97  E(vib)   ...       0.02 
freq.    1022.99  E(vib)   ...       0.02 
freq.    1091.49  E(vib)   ...       0.02 
freq.    1119.37  E(vib)   ...       0.01 
freq.    1144.54  E(vib)   ...       0.01 
freq.    1160.12  E(vib)   ...       0.01 
freq.    1170.49  E(vib)   ...       0.01 
freq.    1170.94  E(vib)   ...       0.01 
freq.    1190.01  E(vib)   ...       0.01 
freq.    1227.02  E(vib)   ...       0.01 
freq.    1326.80  E(vib)   ...       0.01 
freq.    1333.22  E(vib)   ...       0.01 
freq.    1348.35  E(vib)   ...       0.01 
freq.    1348.50  E(vib)   ...       0.01 
freq.    1393.07  E(vib)   ...       0.00 
freq.    1394.10  E(vib)   ...       0.00 
freq.    1400.78  E(vib)   ...       0.00 
freq.    1400.95  E(vib)   ...       0.00 
freq.    1413.13  E(vib)   ...       0.00 
freq.    1434.07  E(vib)   ...       0.00 
freq.    1445.90  E(vib)   ...       0.00 
freq.    1446.13  E(vib)   ...       0.00 
freq.    1450.68  E(vib)   ...       0.00 
freq.    1453.05  E(vib)   ...       0.00 
freq.    1453.80  E(vib)   ...       0.00 
freq.    1456.87  E(vib)   ...       0.00 
freq.    1467.34  E(vib)   ...       0.00 
freq.    1474.92  E(vib)   ...       0.00 
freq.    1482.12  E(vib)   ...       0.00 
freq.    1493.41  E(vib)   ...       0.00 
freq.    1647.99  E(vib)   ...       0.00 
freq.    3064.55  E(vib)   ...       0.00 
freq.    3064.81  E(vib)   ...       0.00 
freq.    3068.35  E(vib)   ...       0.00 
freq.    3069.75  E(vib)   ...       0.00 
freq.    3107.88  E(vib)   ...       0.00 
freq.    3108.18  E(vib)   ...       0.00 
freq.    3169.01  E(vib)   ...       0.00 
freq.    3170.01  E(vib)   ...       0.00 
freq.    3172.13  E(vib)   ...       0.00 
freq.    3172.39  E(vib)   ...       0.00 
freq.    3173.30  E(vib)   ...       0.00 
freq.    3173.59  E(vib)   ...       0.00 
freq.    3176.74  E(vib)   ...       0.00 
freq.    3178.24  E(vib)   ...       0.00 
freq.    3280.86  E(vib)   ...       0.00 
freq.    3301.82  E(vib)   ...       0.00 

------------
INNER ENERGY
------------

The inner energy is: U= E(el) + E(ZPE) + E(vib) + E(rot) + E(trans)
    E(el)   - is the total energy from the electronic structure calculation
              = E(kin-el) + E(nuc-el) + E(el-el) + E(nuc-nuc)
    E(ZPE)  - the the zero temperature vibrational energy from the frequency calculation
    E(vib)  - the the finite temperature correction to E(ZPE) due to population
              of excited vibrational states
    E(rot)  - is the rotational thermal energy
    E(trans)- is the translational thermal energy

Summary of contributions to the inner energy U:
Electronic energy                ...   -461.63178356 Eh
Zero point energy                ...      0.24192911 Eh     151.81 kcal/mol
Thermal vibrational correction   ...      0.00902422 Eh       5.66 kcal/mol
Thermal rotational correction    ...      0.00141627 Eh       0.89 kcal/mol
Thermal translational correction ...      0.00141627 Eh       0.89 kcal/mol
-----------------------------------------------------------------------
Total thermal energy                   -461.37799769 Eh


Summary of corrections to the electronic energy:
(perhaps to be used in another calculation)
Total thermal correction                  0.01185676 Eh       7.44 kcal/mol
Non-thermal (ZPE) correction              0.24192911 Eh     151.81 kcal/mol
-----------------------------------------------------------------------
Total correction                          0.25378588 Eh     159.25 kcal/mol


--------
ENTHALPY
--------

The enthalpy is H = U + kB*T
                kB is Boltzmann's constant
Total free energy                 ...   -461.37799769 Eh 
Thermal Enthalpy correction       ...      0.00094421 Eh       0.59 kcal/mol
-----------------------------------------------------------------------
Total Enthalpy                    ...   -461.37705348 Eh


Note: Only C1 symmetry has been detected, increase convergence thresholds 
      if your molecule has a higher symmetry. Symmetry factor of 1.0 is   
      used for the rotational entropy correction. 
 

Note: Rotational entropy computed according to Herzberg 
Infrared and Raman Spectra, Chapter V,1, Van Nostrand Reinhold, 1945 
Point Group:  C1, Symmetry Number:   1  
Rotational constants in cm-1:     0.066693     0.021118     0.020211 

Vibrational entropy computed according to the QRRHO of S. Grimme
Chem.Eur.J. 2012 18 9955


-------
ENTROPY
-------

The entropy contributions are T*S = T*(S(el)+S(vib)+S(rot)+S(trans))
     S(el)   - electronic entropy
     S(vib)  - vibrational entropy
     S(rot)  - rotational entropy
     S(trans)- translational entropy
The entropies will be listed as multiplied by the temperature to get
units of energy

Electronic entropy                ...      0.00000000 Eh      0.00 kcal/mol
Vibrational entropy               ...      0.01541356 Eh      9.67 kcal/mol
Rotational entropy                ...      0.01445209 Eh      9.07 kcal/mol
Translational entropy             ...      0.01946649 Eh     12.22 kcal/mol
-----------------------------------------------------------------------
Final entropy term                ...      0.04933215 Eh     30.96 kcal/mol

In case the symmetry of your molecule has not been determined correctly
or in case you have a reason to use a different symmetry number we print 
out the resulting rotational entropy values for sn=1,12 :
 --------------------------------------------------------
|  sn= 1 | S(rot)=       0.01445209 Eh      9.07 kcal/mol|
|  sn= 2 | S(rot)=       0.01379763 Eh      8.66 kcal/mol|
|  sn= 3 | S(rot)=       0.01341480 Eh      8.42 kcal/mol|
|  sn= 4 | S(rot)=       0.01314318 Eh      8.25 kcal/mol|
|  sn= 5 | S(rot)=       0.01293249 Eh      8.12 kcal/mol|
|  sn= 6 | S(rot)=       0.01276034 Eh      8.01 kcal/mol|
|  sn= 7 | S(rot)=       0.01261480 Eh      7.92 kcal/mol|
|  sn= 8 | S(rot)=       0.01248872 Eh      7.84 kcal/mol|
|  sn= 9 | S(rot)=       0.01237751 Eh      7.77 kcal/mol|
|  sn=10 | S(rot)=       0.01227803 Eh      7.70 kcal/mol|
|  sn=11 | S(rot)=       0.01218804 Eh      7.65 kcal/mol|
|  sn=12 | S(rot)=       0.01210589 Eh      7.60 kcal/mol|
 --------------------------------------------------------


-------------------
GIBBS FREE ENERGY
-------------------

The Gibbs free energy is G = H - T*S

Total enthalpy                    ...   -461.37705348 Eh 
Total entropy correction          ...     -0.04933215 Eh    -30.96 kcal/mol
-----------------------------------------------------------------------
Final Gibbs free energy         ...   -461.42638563 Eh

For completeness - the Gibbs free energy minus the electronic energy
G-E(el)                           ...      0.20539794 Eh    128.89 kcal/mol


Timings for individual modules:

Sum of individual times         ...     4821.522 sec (=  80.359 min)
GTO integral calculation        ...        3.204 sec (=   0.053 min)   0.1 %
SCF iterations                  ...     2649.150 sec (=  44.153 min)  54.9 %
SCF Gradient evaluation         ...      717.591 sec (=  11.960 min)  14.9 %
Geometry relaxation             ...        0.624 sec (=   0.010 min)   0.0 %
Analytical frequency calculation...     1450.954 sec (=  24.183 min)  30.1 %
                             ****ORCA TERMINATED NORMALLY****
TOTAL RUN TIME: 0 days 1 hours 20 minutes 22 seconds 890 msec
