
                                 *****************
                                 * O   R   C   A *
                                 *****************

                                            #,                                       
                                            ###                                      
                                            ####                                     
                                            #####                                    
                                            ######                                   
                                           ########,                                 
                                     ,,################,,,,,                         
                               ,,#################################,,                 
                          ,,##########################################,,             
                       ,#########################################, ''#####,          
                    ,#############################################,,   '####,        
                  ,##################################################,,,,####,       
                ,###########''''           ''''###############################       
              ,#####''   ,,,,##########,,,,          '''####'''          '####       
            ,##' ,,,,###########################,,,                        '##       
           ' ,,###''''                  '''############,,,                           
         ,,##''                                '''############,,,,        ,,,,,,###''
      ,#''                                            '''#######################'''  
     '                                                          ''''####''''         
             ,#######,   #######,   ,#######,      ##                                
            ,#'     '#,  ##    ##  ,#'     '#,    #''#        ######   ,####,        
            ##       ##  ##   ,#'  ##            #'  '#       #        #'  '#        
            ##       ##  #######   ##           ,######,      #####,   #    #        
            '#,     ,#'  ##    ##  '#,     ,#' ,#      #,         ##   #,  ,#        
             '#######'   ##     ##  '#######'  #'      '#     #####' # '####'        



                  #######################################################
                  #                        -***-                        #
                  #          Department of theory and spectroscopy      #
                  #    Directorship and core code : Frank Neese         #
                  #        Max Planck Institute fuer Kohlenforschung    #
                  #                Kaiser Wilhelm Platz 1               #
                  #                 D-45470 Muelheim/Ruhr               #
                  #                      Germany                        #
                  #                                                     #
                  #                  All rights reserved                #
                  #                        -***-                        #
                  #######################################################


                         Program Version 5.0.4 -  RELEASE  -


 With contributions from (in alphabetic order):
   Daniel Aravena         : Magnetic Suceptibility
   Michael Atanasov       : Ab Initio Ligand Field Theory (pilot matlab implementation)
   Alexander A. Auer      : GIAO ZORA, VPT2 properties, NMR spectrum
   Ute Becker             : Parallelization
   Giovanni Bistoni       : ED, misc. LED, open-shell LED, HFLD
   Martin Brehm           : Molecular dynamics
   Dmytro Bykov           : SCF Hessian
   Vijay G. Chilkuri      : MRCI spin determinant printing, contributions to CSF-ICE
   Dipayan Datta          : RHF DLPNO-CCSD density
   Achintya Kumar Dutta   : EOM-CC, STEOM-CC
   Dmitry Ganyushin       : Spin-Orbit,Spin-Spin,Magnetic field MRCI
   Miquel Garcia          : C-PCM and meta-GGA Hessian, CC/C-PCM, Gaussian charge scheme
   Yang Guo               : DLPNO-NEVPT2, F12-NEVPT2, CIM, IAO-localization
   Andreas Hansen         : Spin unrestricted coupled pair/coupled cluster methods
   Benjamin Helmich-Paris : MC-RPA, TRAH-SCF, COSX integrals
   Lee Huntington         : MR-EOM, pCC
   Robert Izsak           : Overlap fitted RIJCOSX, COSX-SCS-MP3, EOM
   Marcus Kettner         : VPT2
   Christian Kollmar      : KDIIS, OOCD, Brueckner-CCSD(T), CCSD density, CASPT2, CASPT2-K
   Simone Kossmann        : Meta GGA functionals, TD-DFT gradient, OOMP2, MP2 Hessian
   Martin Krupicka        : Initial AUTO-CI
   Lucas Lang             : DCDCAS
   Marvin Lechner         : AUTO-CI (C++ implementation), FIC-MRCC
   Dagmar Lenk            : GEPOL surface, SMD
   Dimitrios Liakos       : Extrapolation schemes; Compound Job, initial MDCI parallelization
   Dimitrios Manganas     : Further ROCIS development; embedding schemes
   Dimitrios Pantazis     : SARC Basis sets
   Anastasios Papadopoulos: AUTO-CI, single reference methods and gradients
   Taras Petrenko         : DFT Hessian,TD-DFT gradient, ASA, ECA, R-Raman, ABS, FL, XAS/XES, NRVS
   Peter Pinski           : DLPNO-MP2, DLPNO-MP2 Gradient
   Christoph Reimann      : Effective Core Potentials
   Marius Retegan         : Local ZFS, SOC
   Christoph Riplinger    : Optimizer, TS searches, QM/MM, DLPNO-CCSD(T), (RO)-DLPNO pert. Triples
   Tobias Risthaus        : Range-separated hybrids, TD-DFT gradient, RPA, STAB
   Michael Roemelt        : Original ROCIS implementation
   Masaaki Saitow         : Open-shell DLPNO-CCSD energy and density
   Barbara Sandhoefer     : DKH picture change effects
   Avijit Sen             : IP-ROCIS
   Kantharuban Sivalingam : CASSCF convergence, NEVPT2, FIC-MRCI
   Bernardo de Souza      : ESD, SOC TD-DFT
   Georgi Stoychev        : AutoAux, RI-MP2 NMR, DLPNO-MP2 response
   Willem Van den Heuvel  : Paramagnetic NMR
   Boris Wezisla          : Elementary symmetry handling
   Frank Wennmohs         : Technical directorship


 We gratefully acknowledge several colleagues who have allowed us to
 interface, adapt or use parts of their codes:
   Stefan Grimme, W. Hujo, H. Kruse, P. Pracht,  : VdW corrections, initial TS optimization,
                  C. Bannwarth, S. Ehlert          DFT functionals, gCP, sTDA/sTD-DF
   Ed Valeev, F. Pavosevic, A. Kumar             : LibInt (2-el integral package), F12 methods
   Garnet Chan, S. Sharma, J. Yang, R. Olivares  : DMRG
   Ulf Ekstrom                                   : XCFun DFT Library
   Mihaly Kallay                                 : mrcc  (arbitrary order and MRCC methods)
   Jiri Pittner, Ondrej Demel                    : Mk-CCSD
   Frank Weinhold                                : gennbo (NPA and NBO analysis)
   Christopher J. Cramer and Donald G. Truhlar   : smd solvation model
   Lars Goerigk                                  : TD-DFT with DH, B97 family of functionals
   V. Asgeirsson, H. Jonsson                     : NEB implementation
   FAccTs GmbH                                   : IRC, NEB, NEB-TS, DLPNO-Multilevel, CI-OPT
                                                   MM, QMMM, 2- and 3-layer-ONIOM, Crystal-QMMM,
                                                   LR-CPCM, SF, NACMEs, symmetry and pop. for TD-DFT,
                                                   nearIR, NL-DFT gradient (VV10), updates on ESD,
                                                   ML-optimized integration grids
   S Lehtola, MJT Oliveira, MAL Marques          : LibXC Library
   Liviu Ungur et al                             : ANISO software


 Your calculation uses the libint2 library for the computation of 2-el integrals
 For citations please refer to: http://libint.valeyev.net

 Your ORCA version has been built with support for libXC version: 5.1.0
 For citations please refer to: https://tddft.org/programs/libxc/

 This ORCA versions uses:
   CBLAS   interface :  Fast vector & matrix operations
   LAPACKE interface :  Fast linear algebra routines
   SCALAPACK package :  Parallel linear algebra routines
   Shared memory     :  Shared parallel matrices
   BLAS/LAPACK       :  OpenBLAS 0.3.15  USE64BITINT DYNAMIC_ARCH NO_AFFINITY SkylakeX SINGLE_THREADED
        Core in use  :  SkylakeX
   Copyright (c) 2011-2014, The OpenBLAS Project




***************************************
The coordinates will be read from file: 4_deprot_aq_4.xyz
***************************************


Your calculation utilizes the atom-pairwise dispersion correction
based on tight binding partial charges (D4)
Cite in your paper:
E.Caldeweyher, C.Bannwarth, S.Grimme, J.Chem.Phys., (2017), 147, 034112.
E.Caldeweyher, S.Ehlert, A.Hansen, H.Neugebauer, S.Grimme, J.Chem.Phys., (2018), in progress.
   

XCFun DFT library Copyright 2009-2010 Ulf Ekstrom and contributors.
See http://admol.org/xcfun for more information.
This is free software; see the source code for copying conditions.
There is ABSOLUTELY NO WARRANTY; not even for MERCHANTABILITY or FITNESS FOR A PARTICULAR PURPOSE.
For details see the documentation.
Scientific users of this library should cite U. Ekstrom, L. Visscher, R. Bast, A. J. Thorvaldsen and K. Ruud;
J.Chem.Theor.Comp. 2010, DOI: 10.1021/ct100117s
XCFun Version 0.99 

================================================================================

----- Orbital basis set information -----
Your calculation utilizes the basis: def2-SVP
   F. Weigend and R. Ahlrichs, Phys. Chem. Chem. Phys. 7, 3297 (2005).

----- AuxJ basis set information -----
Your calculation utilizes the auxiliary basis: def2/J
   F. Weigend, Phys. Chem. Chem. Phys. 8, 1057 (2006).

================================================================================
                                        WARNINGS
                       Please study these warnings very carefully!
================================================================================


WARNING: Geometry Optimization
  ===> : Switching off AutoStart
         For restart on a previous wavefunction, please use MOREAD

INFO   : the flag for use of the SHARK integral package has been found!

================================================================================
                                       INPUT FILE
================================================================================
NAME = 4_deprot_aq_4.inp
|  1> # ORCA 5.0.4 - /users/bwb16179/postgrad/2024_03/DFT_Crest_Conformers/Opt/deprot/4_deprot_aq_4.inp # write input file
|  2> # Basic Mode
|  3> #
|  4> ! Opt Freq wB97X Def2-SVP D4 SlowConv TightSCF Defgrid2 Def2/J RIJCOSX CPCM(Water)
|  5> 
|  6> 
|  7> 
|  8> %maxcore 4500
|  9> 
| 10> %geom
| 11> Maxiter 150
| 12> END
| 13> 
| 14> * xyzfile 0 1 4_deprot_aq_4.xyz
| 15> 
| 16>                          ****END OF INPUT****
================================================================================

                       *****************************
                       * Geometry Optimization Run *
                       *****************************

Geometry optimization settings:
Update method            Update   .... BFGS
Choice of coordinates    CoordSys .... Z-matrix Internals
Initial Hessian          InHess   .... Almoef's Model

Convergence Tolerances:
Energy Change            TolE     ....  5.0000e-06 Eh
Max. Gradient            TolMAXG  ....  3.0000e-04 Eh/bohr
RMS Gradient             TolRMSG  ....  1.0000e-04 Eh/bohr
Max. Displacement        TolMAXD  ....  4.0000e-03 bohr
RMS Displacement         TolRMSD  ....  2.0000e-03 bohr
Strict Convergence                ....  False
------------------------------------------------------------------------------
                        ORCA OPTIMIZATION COORDINATE SETUP
------------------------------------------------------------------------------

The optimization will be done in new redundant internal coordinates
Making redundant internal coordinates   ...  (new redundants) done
Evaluating the initial hessian          ...  (Almloef) done
Evaluating the coordinates              ...  done
Calculating the B-matrix                .... done
Calculating the G-matrix                .... done
Diagonalizing the G-matrix              .... done
Small eigenvalue found = 1.274e-02
Small eigenvalue found = 2.122e-02
The first mode is                       ....   65
The number of degrees of freedom        ....   75

    -----------------------------------------------------------------
                    Redundant Internal Coordinates


    -----------------------------------------------------------------
         Definition                    Initial Value    Approx d2E/dq
    -----------------------------------------------------------------
      1. B(C   1,N   0)                  1.3578         0.629817   
      2. B(N   2,C   1)                  1.3578         0.629825   
      3. B(C   3,N   2)                  1.3716         0.598678   
      4. B(C   4,C   3)                  1.3525         0.717044   
      5. B(C   4,N   0)                  1.3716         0.598677   
      6. B(C   5,N   0)                  1.4442         0.458536   
      7. B(C   6,N   2)                  1.4442         0.458536   
      8. B(C   7,C   5)                  1.5284         0.375814   
      9. B(H   8,C   5)                  1.0978         0.349873   
     10. B(C   9,C   5)                  1.5283         0.375925   
     11. B(H  10,C   6)                  1.0978         0.349871   
     12. B(C  11,C   6)                  1.5283         0.375872   
     13. B(C  12,C   6)                  1.5283         0.375871   
     14. B(H  13,C   3)                  1.0717         0.385094   
     15. B(H  14,C   4)                  1.0717         0.385094   
     16. B(H  15,C   9)                  1.0867         0.364437   
     17. B(H  16,C   9)                  1.0879         0.362882   
     18. B(H  17,C   9)                  1.0866         0.364655   
     19. B(H  18,C   7)                  1.0866         0.364631   
     20. B(H  19,C   7)                  1.0879         0.362860   
     21. B(H  20,C   7)                  1.0867         0.364433   
     22. B(H  21,C  12)                  1.0879         0.362865   
     23. B(H  22,C  12)                  1.0867         0.364438   
     24. B(H  23,C  12)                  1.0866         0.364637   
     25. B(H  24,C  11)                  1.0879         0.362871   
     26. B(H  25,C  11)                  1.0866         0.364643   
     27. B(H  26,C  11)                  1.0867         0.364433   
     28. A(C   1,N   0,C   5)          123.2372         0.407138   
     29. A(C   4,N   0,C   5)          124.8690         0.403507   
     30. A(C   1,N   0,C   4)          111.8937         0.426932   
     31. A(N   0,C   1,N   2)          103.2980         0.430834   
     32. A(C   1,N   2,C   6)          123.2372         0.407139   
     33. A(C   1,N   2,C   3)          111.8941         0.426933   
     34. A(C   3,N   2,C   6)          124.8688         0.403507   
     35. A(N   2,C   3,C   4)          106.4570         0.439887   
     36. A(C   4,C   3,H  13)          130.7788         0.365914   
     37. A(N   2,C   3,H  13)          122.7643         0.352646   
     38. A(N   0,C   4,H  14)          122.7631         0.352646   
     39. A(C   3,C   4,H  14)          130.7796         0.365914   
     40. A(N   0,C   4,C   3)          106.4573         0.439887   
     41. A(H   8,C   5,C   9)          109.4314         0.323121   
     42. A(C   7,C   5,C   9)          110.9192         0.364113   
     43. A(N   0,C   5,C   9)          109.7199         0.374416   
     44. A(C   7,C   5,H   8)          109.4246         0.323106   
     45. A(N   0,C   5,H   8)          107.5663         0.331873   
     46. A(N   0,C   5,C   7)          109.7135         0.374397   
     47. A(H  10,C   6,C  11)          109.4278         0.323114   
     48. A(N   2,C   6,C  11)          109.7180         0.374407   
     49. A(C  11,C   6,C  12)          110.9201         0.364114   
     50. A(H  10,C   6,C  12)          109.4292         0.323113   
     51. A(N   2,C   6,C  12)          109.7140         0.374407   
     52. A(N   2,C   6,H  10)          107.5658         0.331873   
     53. A(H  19,C   7,H  20)          108.8098         0.291737   
     54. A(H  18,C   7,H  20)          109.3780         0.291960   
     55. A(C   5,C   7,H  20)          110.4475         0.325276   
     56. A(H  18,C   7,H  19)          108.6116         0.291762   
     57. A(C   5,C   7,H  19)          110.4319         0.325045   
     58. A(C   5,C   7,H  18)          109.1301         0.325305   
     59. A(H  16,C   9,H  17)          108.6092         0.291767   
     60. A(H  15,C   9,H  17)          109.3853         0.291964   
     61. A(C   5,C   9,H  17)          109.1272         0.325324   
     62. A(H  15,C   9,H  16)          108.8124         0.291740   
     63. A(C   5,C   9,H  16)          110.4321         0.325064   
     64. A(C   5,C   9,H  15)          110.4429         0.325292   
     65. A(H  25,C  11,H  26)          109.3814         0.291962   
     66. A(H  24,C  11,H  26)          108.8110         0.291738   
     67. A(H  24,C  11,H  25)          108.6101         0.291764   
     68. A(C   6,C  11,H  25)          109.1312         0.325315   
     69. A(C   6,C  11,H  24)          110.4318         0.325055   
     70. A(C   6,C  11,H  26)          110.4435         0.325284   
     71. A(H  22,C  12,H  23)          109.3815         0.291962   
     72. A(H  21,C  12,H  23)          108.6102         0.291763   
     73. A(C   6,C  12,H  23)          109.1290         0.325314   
     74. A(H  21,C  12,H  22)          108.8111         0.291738   
     75. A(C   6,C  12,H  22)          110.4445         0.325285   
     76. A(C   6,C  12,H  21)          110.4328         0.325054   
     77. D(N   2,C   1,N   0,C   4)      0.0096         0.029170   
     78. D(N   2,C   1,N   0,C   5)    179.9350         0.029170   
     79. D(C   3,N   2,C   1,N   0)     -0.0050         0.029171   
     80. D(C   6,N   2,C   1,N   0)    179.9853         0.029171   
     81. D(H  13,C   3,N   2,C   6)      0.0103         0.028871   
     82. D(C   4,C   3,N   2,C   1)     -0.0013         0.028871   
     83. D(H  13,C   3,N   2,C   1)   -179.9995         0.028871   
     84. D(C   4,C   3,N   2,C   6)   -179.9914         0.028871   
     85. D(H  14,C   4,C   3,N   2)    179.9955         0.036363   
     86. D(H  14,C   4,N   0,C   5)      0.0757         0.028871   
     87. D(N   0,C   4,C   3,N   2)      0.0070         0.036363   
     88. D(N   0,C   4,C   3,H  13)   -179.9950         0.036363   
     89. D(C   3,C   4,N   0,C   5)   -179.9347         0.028871   
     90. D(C   3,C   4,N   0,C   1)     -0.0107         0.028871   
     91. D(H  14,C   4,C   3,H  13)     -0.0065         0.036363   
     92. D(H  14,C   4,N   0,C   1)    179.9997         0.028871   
     93. D(H   8,C   5,N   0,C   4)     -0.3410         0.017946   
     94. D(C   9,C   5,N   0,C   4)   -119.2986         0.017946   
     95. D(H   8,C   5,N   0,C   1)    179.7433         0.017946   
     96. D(C   9,C   5,N   0,C   1)     60.7857         0.017946   
     97. D(C   7,C   5,N   0,C   4)    118.6049         0.017946   
     98. D(C   7,C   5,N   0,C   1)    -61.3108         0.017946   
     99. D(C  12,C   6,N   2,C   3)    118.9295         0.017946   
    100. D(C  11,C   6,N   2,C   3)   -118.9738         0.017946   
    101. D(C  11,C   6,N   2,C   1)     61.0371         0.017946   
    102. D(C  12,C   6,N   2,C   1)    -61.0596         0.017946   
    103. D(H  10,C   6,N   2,C   3)     -0.0218         0.017946   
    104. D(H  10,C   6,N   2,C   1)    179.9891         0.017946   
    105. D(H  18,C   7,C   5,H   8)    177.4362         0.011270   
    106. D(H  18,C   7,C   5,N   0)     59.6414         0.011270   
    107. D(H  18,C   7,C   5,C   9)    -61.7370         0.011270   
    108. D(H  20,C   7,C   5,C   9)     58.5369         0.011270   
    109. D(H  20,C   7,C   5,H   8)    -62.2898         0.011270   
    110. D(H  20,C   7,C   5,N   0)    179.9154         0.011270   
    111. D(H  19,C   7,C   5,C   9)    178.9418         0.011270   
    112. D(H  19,C   7,C   5,H   8)     58.1150         0.011270   
    113. D(H  19,C   7,C   5,N   0)    -59.6798         0.011270   
    114. D(H  17,C   9,C   5,H   8)   -177.4007         0.011276   
    115. D(H  17,C   9,C   5,C   7)     61.7765         0.011276   
    116. D(H  17,C   9,C   5,N   0)    -59.5981         0.011276   
    117. D(H  16,C   9,C   5,H   8)    -58.0842         0.011276   
    118. D(H  16,C   9,C   5,C   7)   -178.9070         0.011276   
    119. D(H  16,C   9,C   5,N   0)     59.7184         0.011276   
    120. D(H  15,C   9,C   5,H   8)     62.3210         0.011276   
    121. D(H  15,C   9,C   5,C   7)    -58.5018         0.011276   
    122. D(H  15,C   9,C   5,N   0)   -179.8764         0.011276   
    123. D(H  26,C  11,C   6,H  10)     62.2678         0.011273   
    124. D(H  26,C  11,C   6,N   2)   -179.9335         0.011273   
    125. D(H  25,C  11,C   6,C  12)     61.7175         0.011273   
    126. D(H  25,C  11,C   6,H  10)   -177.4557         0.011273   
    127. D(H  25,C  11,C   6,N   2)    -59.6571         0.011273   
    128. D(H  24,C  11,C   6,C  12)   -178.9625         0.011273   
    129. D(H  24,C  11,C   6,H  10)    -58.1358         0.011273   
    130. D(H  26,C  11,C   6,C  12)    -58.5589         0.011273   
    131. D(H  24,C  11,C   6,N   2)     59.6629         0.011273   
    132. D(H  23,C  12,C   6,N   2)     59.6159         0.011273   
    133. D(H  22,C  12,C   6,C  11)     58.5146         0.011273   
    134. D(H  22,C  12,C   6,H  10)    -62.3113         0.011273   
    135. D(H  22,C  12,C   6,N   2)    179.8916         0.011273   
    136. D(H  21,C  12,C   6,C  11)    178.9196         0.011273   
    137. D(H  21,C  12,C   6,H  10)     58.0937         0.011273   
    138. D(H  23,C  12,C   6,H  10)    177.4130         0.011273   
    139. D(H  21,C  12,C   6,N   2)    -59.7034         0.011273   
    140. D(H  23,C  12,C   6,C  11)    -61.7611         0.011273   
    -----------------------------------------------------------------

Number of atoms                         .... 27
Number of degrees of freedom            .... 140

         *************************************************************
         *                GEOMETRY OPTIMIZATION CYCLE   1            *
         *************************************************************
---------------------------------
CARTESIAN COORDINATES (ANGSTROEM)
---------------------------------
  N     -1.064832    0.003968    0.418559
  C      0.000005   -0.007012   -0.423867
  N      1.064838    0.005558    0.418535
  C      0.676263    0.023763    1.733842
  C     -0.676250    0.022855    1.733854
  C     -2.435122   -0.002061   -0.037549
  C      2.435128   -0.000103   -0.037578
  C     -2.706177    1.249277   -0.872179
  H     -3.080075    0.004849    0.850847
  C     -2.702572   -1.268481   -0.850156
  H      3.080076    0.013070    0.850752
  C      2.703593    1.247030   -0.879232
  C      2.705129   -1.270577   -0.843055
  H      1.376255    0.035653    2.545311
  H     -1.376255    0.033714    2.545327
  H     -3.730880   -1.284019   -1.201364
  H     -2.525813   -2.153718   -0.242992
  H     -2.029764   -1.292978   -1.703023
  H     -2.033908    1.260490   -1.725772
  H     -2.531363    2.145498   -0.280738
  H     -3.734679    1.256132   -1.223105
  H      2.529979   -2.152751   -0.230962
  H      3.733510   -1.286143   -1.194043
  H      2.032531   -1.301151   -1.695908
  H      2.526625    2.146203   -0.292952
  H      2.031521    1.251907   -1.733028
  H      3.732187    1.254131   -1.229885

----------------------------
CARTESIAN COORDINATES (A.U.)
----------------------------
  NO LB      ZA    FRAG     MASS         X           Y           Z
   0 N     7.0000    0    14.007   -2.012240    0.007498    0.790962
   1 C     6.0000    0    12.011    0.000009   -0.013250   -0.800993
   2 N     7.0000    0    14.007    2.012252    0.010503    0.790917
   3 C     6.0000    0    12.011    1.277952    0.044906    3.276486
   4 C     6.0000    0    12.011   -1.277928    0.043190    3.276509
   5 C     6.0000    0    12.011   -4.601714   -0.003894   -0.070957
   6 C     6.0000    0    12.011    4.601725   -0.000195   -0.071013
   7 C     6.0000    0    12.011   -5.113933    2.360792   -1.648179
   8 H     1.0000    0     1.008   -5.820498    0.009163    1.607868
   9 C     6.0000    0    12.011   -5.107121   -2.397082   -1.606562
  10 H     1.0000    0     1.008    5.820501    0.024699    1.607688
  11 C     6.0000    0    12.011    5.109051    2.356546   -1.661509
  12 C     6.0000    0    12.011    5.111952   -2.401043   -1.593143
  13 H     1.0000    0     1.008    2.600745    0.067374    4.809941
  14 H     1.0000    0     1.008   -2.600744    0.063709    4.809971
  15 H     1.0000    0     1.008   -7.050342   -2.426445   -2.270249
  16 H     1.0000    0     1.008   -4.773095   -4.069937   -0.459187
  17 H     1.0000    0     1.008   -3.835697   -2.443374   -3.218246
  18 H     1.0000    0     1.008   -3.843529    2.381981   -3.261236
  19 H     1.0000    0     1.008   -4.783584    4.054403   -0.530517
  20 H     1.0000    0     1.008   -7.057521    2.373746   -2.311333
  21 H     1.0000    0     1.008    4.780967   -4.068110   -0.436455
  22 H     1.0000    0     1.008    7.055312   -2.430458   -2.256415
  23 H     1.0000    0     1.008    3.840927   -2.458819   -3.204802
  24 H     1.0000    0     1.008    4.774630    4.055737   -0.553598
  25 H     1.0000    0     1.008    3.839018    2.365761   -3.274949
  26 H     1.0000    0     1.008    7.052812    2.369965   -2.324146

--------------------------------
INTERNAL COORDINATES (ANGSTROEM)
--------------------------------
 N      0   0   0     0.000000000000     0.00000000     0.00000000
 C      1   0   0     1.357821445909     0.00000000     0.00000000
 N      2   1   0     1.357817942061   103.29796936     0.00000000
 C      3   2   1     1.371624141794   111.89405125     0.00000000
 C      4   3   2     1.352513634779   106.45696949     0.00000000
 C      1   2   3     1.444218261109   123.23720744   179.93503803
 C      3   2   1     1.444218528474   123.23717379   179.98534794
 C      6   1   2     1.528373177661   109.71349256   298.68922906
 H      6   1   2     1.097843097101   107.56631895   179.74330970
 C      6   1   2     1.528292948447   109.71992728    60.78568169
 H      7   3   2     1.097844266486   107.56575107   179.98908262
 C      7   3   2     1.528331317202   109.71802740    61.03710027
 C      7   3   2     1.528331783747   109.71400427   298.94042450
 H      4   3   2     1.071733408320   122.76425966   180.00048427
 H      5   4   3     1.071733350158   130.77964210   179.99547543
 H     10   6   1     1.086740947757   110.44285652   180.12355221
 H     10   6   1     1.087904912588   110.43209424    59.71837176
 H     10   6   1     1.086578472368   109.12718869   300.40185528
 H      8   6   1     1.086596541510   109.13010520    59.64140647
 H      8   6   1     1.087921634679   110.43191350   300.32021816
 H      8   6   1     1.086744221186   110.44751376   179.91539280
 H     13   7   3     1.087917864256   110.43277163   300.29662550
 H     13   7   3     1.086740182361   110.44450508   179.89157970
 H     13   7   3     1.086591675830   109.12895720    59.61588500
 H     12   7   3     1.087913285875   110.43181388    59.66287809
 H     12   7   3     1.086587633329   109.13120636   300.34290388
 H     12   7   3     1.086744397685   110.44346350   180.06648243

---------------------------
INTERNAL COORDINATES (A.U.)
---------------------------
 N      0   0   0     0.000000000000     0.00000000     0.00000000
 C      1   0   0     2.565910671533     0.00000000     0.00000000
 N      2   1   0     2.565904050219   103.29796936     0.00000000
 C      3   2   1     2.591993986665   111.89405125     0.00000000
 C      4   3   2     2.555880362127   106.45696949     0.00000000
 C      1   2   3     2.729176991104   123.23720744   179.93503803
 C      3   2   1     2.729177496351   123.23717379   179.98534794
 C      6   1   2     2.888206736210   109.71349256   298.68922906
 H      6   1   2     2.074622791537   107.56631895   179.74330970
 C      6   1   2     2.888055124968   109.71992728    60.78568169
 H      7   3   2     2.074625001354   107.56575107   179.98908262
 C      7   3   2     2.888127631407   109.71802740    61.03710027
 C      7   3   2     2.888128513050   109.71400427   298.94042450
 H      4   3   2     2.025282630299   122.76425966   180.00048427
 H      5   4   3     2.025282520388   130.77964210   179.99547543
 H     10   6   1     2.053642769779   110.44285652   180.12355221
 H     10   6   1     2.055842344538   110.43209424    59.71837176
 H     10   6   1     2.053335735790   109.12718869   300.40185528
 H      8   6   1     2.053369881519   109.13010520    59.64140647
 H      8   6   1     2.055873944711   110.43191350   300.32021816
 H      8   6   1     2.053648955663   110.44751376   179.91539280
 H     13   7   3     2.055866819645   110.43277163   300.29662550
 H     13   7   3     2.053641323390   110.44450508   179.89157970
 H     13   7   3     2.053360686717   109.12895720    59.61588500
 H     12   7   3     2.055858167757   110.43181388    59.66287809
 H     12   7   3     2.053353047498   109.13120636   300.34290388
 H     12   7   3     2.053649289197   110.44346350   180.06648243

---------------------
BASIS SET INFORMATION
---------------------
There are 3 groups of distinct atoms

 Group   1 Type N   : 7s4p1d contracted to 3s2p1d pattern {511/31/1}
 Group   2 Type C   : 7s4p1d contracted to 3s2p1d pattern {511/31/1}
 Group   3 Type H   : 4s1p contracted to 2s1p pattern {31/1}

Atom   0N    basis set group =>   1
Atom   1C    basis set group =>   2
Atom   2N    basis set group =>   1
Atom   3C    basis set group =>   2
Atom   4C    basis set group =>   2
Atom   5C    basis set group =>   2
Atom   6C    basis set group =>   2
Atom   7C    basis set group =>   2
Atom   8H    basis set group =>   3
Atom   9C    basis set group =>   2
Atom  10H    basis set group =>   3
Atom  11C    basis set group =>   2
Atom  12C    basis set group =>   2
Atom  13H    basis set group =>   3
Atom  14H    basis set group =>   3
Atom  15H    basis set group =>   3
Atom  16H    basis set group =>   3
Atom  17H    basis set group =>   3
Atom  18H    basis set group =>   3
Atom  19H    basis set group =>   3
Atom  20H    basis set group =>   3
Atom  21H    basis set group =>   3
Atom  22H    basis set group =>   3
Atom  23H    basis set group =>   3
Atom  24H    basis set group =>   3
Atom  25H    basis set group =>   3
Atom  26H    basis set group =>   3
---------------------------------
AUXILIARY/J BASIS SET INFORMATION
---------------------------------
There are 3 groups of distinct atoms

 Group   1 Type N   : 12s5p4d2f1g contracted to 6s4p3d1f1g pattern {711111/2111/211/2/1}
 Group   2 Type C   : 12s5p4d2f1g contracted to 6s4p3d1f1g pattern {711111/2111/211/2/1}
 Group   3 Type H   : 5s2p1d contracted to 3s1p1d pattern {311/2/1}

Atom   0N    basis set group =>   1
Atom   1C    basis set group =>   2
Atom   2N    basis set group =>   1
Atom   3C    basis set group =>   2
Atom   4C    basis set group =>   2
Atom   5C    basis set group =>   2
Atom   6C    basis set group =>   2
Atom   7C    basis set group =>   2
Atom   8H    basis set group =>   3
Atom   9C    basis set group =>   2
Atom  10H    basis set group =>   3
Atom  11C    basis set group =>   2
Atom  12C    basis set group =>   2
Atom  13H    basis set group =>   3
Atom  14H    basis set group =>   3
Atom  15H    basis set group =>   3
Atom  16H    basis set group =>   3
Atom  17H    basis set group =>   3
Atom  18H    basis set group =>   3
Atom  19H    basis set group =>   3
Atom  20H    basis set group =>   3
Atom  21H    basis set group =>   3
Atom  22H    basis set group =>   3
Atom  23H    basis set group =>   3
Atom  24H    basis set group =>   3
Atom  25H    basis set group =>   3
Atom  26H    basis set group =>   3
------------------------------------------------------------------------------
                           ORCA GTO INTEGRAL CALCULATION
                           -- RI-GTO INTEGRALS CHOSEN --
------------------------------------------------------------------------------
------------------------------------------------------------------------------
                   ___                                                        
                  /   \      - P O W E R E D   B Y -                         
                 /     \                                                     
                 |  |  |   _    _      __       _____    __    __             
                 |  |  |  | |  | |    /  \     |  _  \  |  |  /  |          
                  \  \/   | |  | |   /    \    | | | |  |  | /  /          
                 / \  \   | |__| |  /  /\  \   | |_| |  |  |/  /          
                |  |  |   |  __  | /  /__\  \  |    /   |      \           
                |  |  |   | |  | | |   __   |  |    \   |  |\   \          
                \     /   | |  | | |  |  |  |  | |\  \  |  | \   \       
                 \___/    |_|  |_| |__|  |__|  |_| \__\ |__|  \__/        
                                                                              
                      - O R C A' S   B I G   F R I E N D -                    
                                      &                                       
                       - I N T E G R A L  F E E D E R -                       
                                                                              
 v1 FN, 2020, v2 2021                                                         
------------------------------------------------------------------------------


Reading SHARK input file 4_deprot_aq_4.SHARKINP.tmp ... ok
----------------------
SHARK INTEGRAL PACKAGE
----------------------

Number of atoms                             ...     27
Number of basis functions                   ...    234
Number of shells                            ...    114
Maximum angular momentum                    ...      2
Integral batch strategy                     ... SHARK/LIBINT Hybrid
RI-J (if used) integral strategy            ... SPLIT-RIJ (Revised 2003 algorithm where possible)
Printlevel                                  ...      1
Contraction scheme used                     ... SEGMENTED contraction
Coulomb Range Separation                    ... NOT USED
Exchange Range Separation                   ... Long Range
   Mu parameter                             ...  0.300000
   Scaling (regular/separated)              ...  0.157706  0.842294
Finite Nucleus Model                        ... NOT USED
Auxiliary Coulomb fitting basis             ... AVAILABLE
   # of basis functions in Aux-J            ...    715
   # of shells in Aux-J                     ...    245
   Maximum angular momentum in Aux-J        ...      4
Auxiliary J/K fitting basis                 ... NOT available
Auxiliary Correlation fitting basis         ... NOT available
Auxiliary 'external' fitting basis          ... NOT available
Integral threshold                          ...     2.500000e-11
Primitive cut-off                           ...     2.500000e-12
Primitive pair pre-selection threshold      ...     2.500000e-12

Calculating pre-screening integrals         ... done (  0.1 sec) Dimension = 114
Organizing shell pair data                  ... done (  0.0 sec)
Shell pair information
Total number of shell pairs                 ...      6555
Shell pairs after pre-screening             ...      5762
Total number of primitive shell pairs       ...     22769
Primitive shell pairs kept                  ...     14113
          la=0 lb=0:   1934 shell pairs
          la=1 lb=0:   2167 shell pairs
          la=1 lb=1:    629 shell pairs
          la=2 lb=0:    627 shell pairs
          la=2 lb=1:    348 shell pairs
          la=2 lb=2:     57 shell pairs

Calculating one electron integrals          ... done (  0.1 sec)
Calculating RI/J V-Matrix + Cholesky decomp.... done (  0.0 sec)
Calculating Nuclear repulsion               ... done (  0.0 sec) ENN=    641.109186361703 Eh

SHARK setup successfully completed in   0.4 seconds

Maximum memory used throughout the entire GTOINT-calculation: 35.6 MB
-------------------------------------------------------------------------------
                                 ORCA SCF
-------------------------------------------------------------------------------

------------
SCF SETTINGS
------------
Hamiltonian:
 Density Functional     Method          .... DFT(GTOs)
 Exchange Functional    Exchange        .... WB97X
 Correlation Functional Correlation     .... WB97X
 Gradients option       PostSCFGGA      .... off
 Hybrid DFT is turned on
   Fraction HF Exchange ScalHFX         ....  0.157706
   Scaling of DF-GGA-X  ScalDFX         ....  0.000000
   Scaling of DF-GGA-C  ScalDFC         ....  1.000000
   Scaling of DF-LDA-C  ScalLDAC        ....  1.000000
   Perturbative correction              ....  0.000000
   Density functional embedding theory  .... OFF
 Long-range corrected/Screened/Range-Separated Hybrid DFT is turned on
   Amount of maximum screened exact exchange              ....  0.842294
   Range separation parameter mu (erf(mu*r12)/r12)        ....  0.300000
 RI-approximation to the Coulomb term is turned on
   Number of AuxJ basis functions       .... 715
   RIJ-COSX (HFX calculated with COS-X)).... on


General Settings:
 Integral files         IntName         .... 4_deprot_aq_4
 Hartree-Fock type      HFTyp           .... RHF
 Total Charge           Charge          ....    0
 Multiplicity           Mult            ....    1
 Number of Electrons    NEL             ....   84
 Basis Dimension        Dim             ....  234
 Nuclear Repulsion      ENuc            ....    641.1091863617 Eh

Convergence Acceleration:
 DIIS                   CNVDIIS         .... on
   Start iteration      DIISMaxIt       ....     0
   Startup error        DIISStart       ....  0.200000
   # of expansion vecs  DIISMaxEq       ....     5
   Bias factor          DIISBfac        ....   1.050
   Max. coefficient     DIISMaxC        ....  10.000
 Trust-Rad. Augm. Hess. CNVTRAH         .... auto
   Auto Start mean grad. ratio tolernc. ....  1.125000
   Auto Start start iteration           ....    20
   Auto Start num. interpolation iter.  ....    10
   Max. Number of Micro iterations      ....    16
   Max. Number of Macro iterations      .... Maxiter - #DIIS iter
   Number of Davidson start vectors     ....     2
   Converg. threshold I  (grad. norm)   ....   1.000e-05
   Converg. threshold II (energy diff.) ....   1.000e-08
   Grad. Scal. Fac. for Micro threshold ....   0.100
   Minimum threshold for Micro iter.    ....   0.010
   NR start threshold (gradient norm)   ....   0.001
   Initial trust radius                 ....   0.400
   Minimum AH scaling param. (alpha)    ....   1.000
   Maximum AH scaling param. (alpha)    .... 1000.000
   Orbital update algorithm             .... Taylor
   White noise on init. David. guess    .... on
   Maximum white noise                  ....   0.010
   Quad. conv. algorithm                .... NR
 SOSCF                  CNVSOSCF        .... on
   Start iteration      SOSCFMaxIt      ....   150
   Startup grad/error   SOSCFStart      ....  0.001000
 Level Shifting         CNVShift        .... on
   Level shift para.    LevelShift      ....    0.2500
   Turn off err/grad.   ShiftErr        ....    0.0000
 Zerner damping         CNVZerner       .... off
 Static damping         CNVDamp         .... on
   Fraction old density DampFac         ....    0.8500
   Max. Damping (<1)    DampMax         ....    0.9800
   Min. Damping (>=0)   DampMin         ....    0.0000
   Turn off err/grad.   DampErr         ....    0.0300
 Fernandez-Rico         CNVRico         .... off

SCF Procedure:
 Maximum # iterations   MaxIter         ....   125
 SCF integral mode      SCFMode         .... Direct
   Integral package                     .... SHARK and LIBINT hybrid scheme
 Reset frequency        DirectResetFreq ....    20
 Integral Threshold     Thresh          ....  2.500e-11 Eh
 Primitive CutOff       TCut            ....  2.500e-12 Eh

Convergence Tolerance:
 Convergence Check Mode ConvCheckMode   .... Total+1el-Energy
 Convergence forced     ConvForced      .... 0
 Energy Change          TolE            ....  1.000e-08 Eh
 1-El. energy change                    ....  1.000e-05 Eh
 Orbital Gradient       TolG            ....  1.000e-05
 Orbital Rotation angle TolX            ....  1.000e-05
 DIIS Error             TolErr          ....  5.000e-07


Diagonalization of the overlap matrix:
Smallest eigenvalue                        ... 1.462e-03
Time for diagonalization                   ...    0.013 sec
Threshold for overlap eigenvalues          ... 1.000e-08
Number of eigenvalues below threshold      ... 0
Time for construction of square roots      ...    0.004 sec
Total time needed                          ...    0.018 sec

Time for model grid setup =    0.565 sec

------------------------------
INITIAL GUESS: MODEL POTENTIAL
------------------------------
Loading Hartree-Fock densities                     ... done
Calculating cut-offs                               ... done
Initializing the effective Hamiltonian             ... done
Setting up the integral package (SHARK)            ... done
Starting the Coulomb interaction                   ... done (   0.6 sec)
Reading the grid                                   ... done
Mapping shells                                     ... done
Starting the XC term evaluation                    ... done (   0.7 sec)
  promolecular density results
     # of electrons  =     83.995122359
     EX              =    -63.901384900
     EC              =     -2.782106075
     EX+EC           =    -66.683490974
Transforming the Hamiltonian                       ... done (   0.0 sec)
Diagonalizing the Hamiltonian                      ... done (   0.0 sec)
Back transforming the eigenvectors                 ... done (   0.0 sec)
Now organizing SCF variables                       ... done
                      ------------------
                      INITIAL GUESS DONE (   1.8 sec)
                      ------------------
-------------------
DFT GRID GENERATION
-------------------

General Integration Accuracy     IntAcc      ... 4.388
Radial Grid Type                 RadialGrid  ... OptM3 with GC (2021)
Angular Grid (max. ang.)         AngularGrid ... 4 (Lebedev-302)
Angular grid pruning method      GridPruning ... 4 (adaptive)
Weight generation scheme         WeightScheme... Becke
Basis function cutoff            BFCut       ... 1.0000e-11
Integration weight cutoff        WCut        ... 1.0000e-14
Angular grids for H and He will be reduced by one unit
Partially contracted basis set               ... off
Rotationally invariant grid construction     ... off

Total number of grid points                  ...   116960
Total number of batches                      ...     1838
Average number of points per batch           ...       63
Average number of grid points per atom       ...     4332
Time for grid setup =    2.112 sec

--------------------
COSX GRID GENERATION
--------------------

GRIDX 1
-------
General Integration Accuracy     IntAcc      ... 3.816
Radial Grid Type                 RadialGrid  ... OptM3 with GC (2021)
Angular Grid (max. ang.)         AngularGrid ... 1 (Lebedev-50)
Angular grid pruning method      GridPruning ... 4 (adaptive)
Weight generation scheme         WeightScheme... Becke
Basis function cutoff            BFCut       ... 1.0000e-11
Integration weight cutoff        WCut        ... 1.0000e-14
Angular grids for H and He will be reduced by one unit
Partially contracted basis set               ... on
Rotationally invariant grid construction     ... off

Total number of grid points                  ...    14936
Total number of batches                      ...      246
Average number of points per batch           ...       60
Average number of grid points per atom       ...      553
UseSFitting                                  ... on

GRIDX 2
-------
General Integration Accuracy     IntAcc      ... 4.020
Radial Grid Type                 RadialGrid  ... OptM3 with GC (2021)
Angular Grid (max. ang.)         AngularGrid ... 2 (Lebedev-110)
Angular grid pruning method      GridPruning ... 4 (adaptive)
Weight generation scheme         WeightScheme... Becke
Basis function cutoff            BFCut       ... 1.0000e-11
Integration weight cutoff        WCut        ... 1.0000e-14
Angular grids for H and He will be reduced by one unit
Partially contracted basis set               ... on
Rotationally invariant grid construction     ... off

Total number of grid points                  ...    31425
Total number of batches                      ...      505
Average number of points per batch           ...       62
Average number of grid points per atom       ...     1164
UseSFitting                                  ... on

GRIDX 3
-------
General Integration Accuracy     IntAcc      ... 4.338
Radial Grid Type                 RadialGrid  ... OptM3 with GC (2021)
Angular Grid (max. ang.)         AngularGrid ... 3 (Lebedev-194)
Angular grid pruning method      GridPruning ... 4 (adaptive)
Weight generation scheme         WeightScheme... Becke
Basis function cutoff            BFCut       ... 1.0000e-11
Integration weight cutoff        WCut        ... 1.0000e-14
Angular grids for H and He will be reduced by one unit
Partially contracted basis set               ... on
Rotationally invariant grid construction     ... off

Total number of grid points                  ...    68444
Total number of batches                      ...     1083
Average number of points per batch           ...       63
Average number of grid points per atom       ...     2535
UseSFitting                                  ... on

Time for X-Grid setup             =    2.733 sec


--------------------
CPCM SOLVATION MODEL
--------------------
CPCM parameters:
  Epsilon                                         ...      80.4000
  Refrac                                          ...       1.3300
  Rsolv                                           ...       1.3000
  Surface type                                    ... GAUSSIAN VDW
  Epsilon function type                           ...         CPCM
Radii:
 Radius for N  used is    3.5149 Bohr (=   1.8600 Ang.)
 Radius for C  used is    3.8550 Bohr (=   2.0400 Ang.)
 Radius for H  used is    2.4944 Bohr (=   1.3200 Ang.)
Calculating surface                               ...        done! (  0.0s)
GEPOL surface points                              ...         1445
GEPOL Volume                                      ...    1416.2931
GEPOL Surface-area                                ...     782.7362
Calculating surface distance matrix               ...        done! (  0.0s)
Performing Cholesky decomposition & store         ...        done! (  0.1s)
Overall time for CPCM initialization              ...                 0.1s
--------------
SCF ITERATIONS
--------------
ITER       Energy         Delta-E        Max-DP      RMS-DP      [F,P]     Damp
               ***  Starting incremental Fock matrix formation  ***
  0   -461.3618267724   0.000000000000 0.03379919  0.00072960  0.1551873 0.8500
  1   -461.4154216204  -0.053594848018 0.03483089  0.00069501  0.1250029 0.8500
                               ***Turning on DIIS***
  2   -461.4564148734  -0.040993252941 0.03025990  0.00056933  0.0959307 0.8500
  3   -461.4869651963  -0.030550322919 0.02419687  0.00040246  0.0726741 0.8500
  4   -461.5105500849  -0.023584888604 0.01981130  0.00030500  0.0578302 0.8500
  5   -461.5291287948  -0.018578709933 0.01663029  0.00024828  0.0477979 0.8500
  6   -461.5442137840  -0.015084989225 0.01411483  0.00020851  0.0401873 0.8500
  7   -461.5566802886  -0.012466504571 0.01209823  0.00017903  0.0340235 0.8500
  8   -461.5670928739  -0.010412585314 0.06926395  0.00102598  0.0287660 0.0000
  9   -461.6230061809  -0.055913306997 0.00148812  0.00004011  0.0012282 0.0000
                      *** Initiating the SOSCF procedure ***
                           *** Shutting down DIIS ***
                      *** Re-Reading the Fockian *** 
                      *** Removing any level shift *** 
ITER      Energy       Delta-E        Grad      Rot      Max-DP    RMS-DP
 10   -461.62302833  -0.0000221521  0.000317  0.000317  0.000683  0.000019
               *** Restarting incremental Fock matrix formation ***
 11   -461.62307896  -0.0000506307  0.000227  0.000510  0.000406  0.000013
 12   -461.62307979  -0.0000008227  0.000073  0.000372  0.000278  0.000009
 13   -461.62308001  -0.0000002233  0.000034  0.000032  0.000162  0.000003
 14   -461.62308004  -0.0000000341  0.000005  0.000012  0.000072  0.000001
 15   -461.62308006  -0.0000000133  0.000004  0.000014  0.000013  0.000000
                  ***Gradient check signals convergence***
              ***Rediagonalizing the Fockian in SOSCF/NRSCF***

               *****************************************************
               *                     SUCCESS                       *
               *           SCF CONVERGED AFTER  16 CYCLES          *
               *****************************************************

Old exchange energy                            =    -21.383504297 Eh
New exchange energy                            =    -21.383521206 Eh
Exchange energy change after final integration =     -0.000016909 Eh
Total energy after final integration           =   -461.623096974 Eh
Final COS-X integration done in                =    72.810 sec

----------------
TOTAL SCF ENERGY
----------------

Total Energy       :         -461.62309697 Eh          -12561.40308 eV

Components:
Nuclear Repulsion  :          641.10918636 Eh           17445.46787 eV
Electronic Energy  :        -1102.73228334 Eh          -30006.87095 eV
One Electron Energy:        -1893.92762404 Eh          -51536.39071 eV
Two Electron Energy:          791.19534070 Eh           21529.51976 eV
Max COSX asymmetry :            0.00000311 Eh               0.00008 eV
CPCM Dielectric    :           -0.01338708 Eh              -0.36428 eV

Virial components:
Potential Energy   :         -918.05568460 Eh          -24981.56522 eV
Kinetic Energy     :          456.43258763 Eh           12420.16214 eV
Virial Ratio       :            2.01137191


DFT components:
N(Alpha)           :       42.000028998409 electrons
N(Beta)            :       42.000028998409 electrons
N(Total)           :       84.000057996818 electrons
E(XC)              :      -47.164668840903 Eh       
DFET-embed. en.    :        0.000000000000 Eh       
CPCM Solvation Model Properties:
Surface-charge          :           -0.02598948
Charge-correction       :           -0.00036174 Eh              -0.00984 eV
Free-energy (cav+disp)  :  This term is not implemented in the current solvation scheme

---------------
SCF CONVERGENCE
---------------

  Last Energy change         ...   -8.3544e-09  Tolerance :   1.0000e-08
  Last MAX-Density change    ...    4.4409e-15  Tolerance :   1.0000e-07
  Last RMS-Density change    ...    3.8397e-17  Tolerance :   5.0000e-09
  Last Orbital Gradient      ...    6.1263e-07  Tolerance :   1.0000e-05
  Last Orbital Rotation      ...    1.3671e-06  Tolerance :   1.0000e-05

             **** THE GBW FILE WAS UPDATED (4_deprot_aq_4.gbw) ****
             **** DENSITY 4_deprot_aq_4.scfp WAS UPDATED ****
             **** ENERGY FILE WAS UPDATED (4_deprot_aq_4.en.tmp) ****
             **** THE GBW FILE WAS UPDATED (4_deprot_aq_4.gbw) ****
             **** DENSITY 4_deprot_aq_4.scfp WAS UPDATED ****
----------------
ORBITAL ENERGIES
----------------

  NO   OCC          E(Eh)            E(eV) 
   0   2.0000     -14.445858      -393.0918 
   1   2.0000     -14.445856      -393.0917 
   2   2.0000     -10.305949      -280.4391 
   3   2.0000     -10.305919      -280.4383 
   4   2.0000     -10.289576      -279.9936 
   5   2.0000     -10.288983      -279.9775 
   6   2.0000     -10.271904      -279.5127 
   7   2.0000     -10.254653      -279.0433 
   8   2.0000     -10.254634      -279.0428 
   9   2.0000     -10.254618      -279.0424 
  10   2.0000     -10.254597      -279.0418 
  11   2.0000      -1.152694       -31.3664 
  12   2.0000      -1.047576       -28.5060 
  13   2.0000      -0.938250       -25.5311 
  14   2.0000      -0.884773       -24.0759 
  15   2.0000      -0.857748       -23.3405 
  16   2.0000      -0.807273       -21.9670 
  17   2.0000      -0.806553       -21.9474 
  18   2.0000      -0.778187       -21.1756 
  19   2.0000      -0.726635       -19.7727 
  20   2.0000      -0.698394       -19.0043 
  21   2.0000      -0.655580       -17.8392 
  22   2.0000      -0.625674       -17.0254 
  23   2.0000      -0.579325       -15.7642 
  24   2.0000      -0.572188       -15.5700 
  25   2.0000      -0.566710       -15.4210 
  26   2.0000      -0.560213       -15.2442 
  27   2.0000      -0.536643       -14.6028 
  28   2.0000      -0.534440       -14.5429 
  29   2.0000      -0.525338       -14.2952 
  30   2.0000      -0.497397       -13.5349 
  31   2.0000      -0.490263       -13.3407 
  32   2.0000      -0.483644       -13.1606 
  33   2.0000      -0.480042       -13.0626 
  34   2.0000      -0.474374       -12.9084 
  35   2.0000      -0.454665       -12.3721 
  36   2.0000      -0.443221       -12.0607 
  37   2.0000      -0.441961       -12.0264 
  38   2.0000      -0.438536       -11.9332 
  39   2.0000      -0.369913       -10.0658 
  40   2.0000      -0.319625        -8.6974 
  41   2.0000      -0.318019        -8.6537 
  42   0.0000       0.124359         3.3840 
  43   0.0000       0.131639         3.5821 
  44   0.0000       0.154279         4.1981 
  45   0.0000       0.161156         4.3853 
  46   0.0000       0.179603         4.8873 
  47   0.0000       0.197402         5.3716 
  48   0.0000       0.197563         5.3760 
  49   0.0000       0.205674         5.5967 
  50   0.0000       0.215040         5.8515 
  51   0.0000       0.218089         5.9345 
  52   0.0000       0.219947         5.9851 
  53   0.0000       0.241028         6.5587 
  54   0.0000       0.242106         6.5880 
  55   0.0000       0.251005         6.8302 
  56   0.0000       0.259258         7.0548 
  57   0.0000       0.269944         7.3455 
  58   0.0000       0.272593         7.4176 
  59   0.0000       0.278290         7.5727 
  60   0.0000       0.284433         7.7398 
  61   0.0000       0.286187         7.7876 
  62   0.0000       0.290297         7.8994 
  63   0.0000       0.332192         9.0394 
  64   0.0000       0.333033         9.0623 
  65   0.0000       0.348024         9.4702 
  66   0.0000       0.366949         9.9852 
  67   0.0000       0.372168        10.1272 
  68   0.0000       0.389633        10.6024 
  69   0.0000       0.431033        11.7290 
  70   0.0000       0.461731        12.5643 
  71   0.0000       0.480906        13.0861 
  72   0.0000       0.498403        13.5622 
  73   0.0000       0.508553        13.8384 
  74   0.0000       0.519713        14.1421 
  75   0.0000       0.520516        14.1640 
  76   0.0000       0.526831        14.3358 
  77   0.0000       0.528881        14.3916 
  78   0.0000       0.573794        15.6137 
  79   0.0000       0.582059        15.8386 
  80   0.0000       0.602168        16.3858 
  81   0.0000       0.623705        16.9719 
  82   0.0000       0.624676        16.9983 
  83   0.0000       0.653352        17.7786 
  84   0.0000       0.673946        18.3390 
  85   0.0000       0.677276        18.4296 
  86   0.0000       0.679573        18.4921 
  87   0.0000       0.693951        18.8834 
  88   0.0000       0.714490        19.4423 
  89   0.0000       0.718985        19.5646 
  90   0.0000       0.741076        20.1657 
  91   0.0000       0.742702        20.2100 
  92   0.0000       0.747460        20.3394 
  93   0.0000       0.761881        20.7318 
  94   0.0000       0.764259        20.7965 
  95   0.0000       0.774458        21.0741 
  96   0.0000       0.777801        21.1651 
  97   0.0000       0.781729        21.2719 
  98   0.0000       0.783294        21.3145 
  99   0.0000       0.795461        21.6456 
 100   0.0000       0.797995        21.7145 
 101   0.0000       0.798193        21.7199 
 102   0.0000       0.810215        22.0471 
 103   0.0000       0.810791        22.0627 
 104   0.0000       0.812430        22.1073 
 105   0.0000       0.815283        22.1850 
 106   0.0000       0.825931        22.4747 
 107   0.0000       0.832273        22.6473 
 108   0.0000       0.836315        22.7573 
 109   0.0000       0.836535        22.7633 
 110   0.0000       0.853858        23.2346 
 111   0.0000       0.863791        23.5050 
 112   0.0000       0.863997        23.5106 
 113   0.0000       0.900009        24.4905 
 114   0.0000       0.901887        24.5416 
 115   0.0000       0.912074        24.8188 
 116   0.0000       1.000720        27.2310 
 117   0.0000       1.013635        27.5824 
 118   0.0000       1.062911        28.9233 
 119   0.0000       1.067939        29.0601 
 120   0.0000       1.113370        30.2963 
 121   0.0000       1.164748        31.6944 
 122   0.0000       1.169969        31.8365 
 123   0.0000       1.175249        31.9801 
 124   0.0000       1.195582        32.5334 
 125   0.0000       1.210301        32.9340 
 126   0.0000       1.229593        33.4589 
 127   0.0000       1.258439        34.2439 
 128   0.0000       1.300748        35.3951 
 129   0.0000       1.334105        36.3028 
 130   0.0000       1.336211        36.3601 
 131   0.0000       1.338655        36.4267 
 132   0.0000       1.350529        36.7498 
 133   0.0000       1.415654        38.5219 
 134   0.0000       1.419546        38.6278 
 135   0.0000       1.455340        39.6018 
 136   0.0000       1.494910        40.6786 
 137   0.0000       1.541197        41.9381 
 138   0.0000       1.542716        41.9794 
 139   0.0000       1.556149        42.3450 
 140   0.0000       1.600416        43.5495 
 141   0.0000       1.661110        45.2011 
 142   0.0000       1.662655        45.2431 
 143   0.0000       1.666221        45.3402 
 144   0.0000       1.671391        45.4809 
 145   0.0000       1.673489        45.5380 
 146   0.0000       1.678932        45.6861 
 147   0.0000       1.738630        47.3105 
 148   0.0000       1.756409        47.7943 
 149   0.0000       1.815378        49.3990 
 150   0.0000       1.829762        49.7903 
 151   0.0000       1.831869        49.8477 
 152   0.0000       1.845821        50.2273 
 153   0.0000       1.854406        50.4610 
 154   0.0000       1.887325        51.3567 
 155   0.0000       1.894194        51.5436 
 156   0.0000       1.900741        51.7218 
 157   0.0000       1.918232        52.1977 
 158   0.0000       1.922687        52.3190 
 159   0.0000       1.934431        52.6386 
 160   0.0000       1.941118        52.8205 
 161   0.0000       1.942257        52.8515 
 162   0.0000       1.956592        53.2416 
 163   0.0000       1.959696        53.3260 
 164   0.0000       1.973566        53.7035 
 165   0.0000       1.982379        53.9433 
 166   0.0000       1.993195        54.2376 
 167   0.0000       1.995676        54.3051 
 168   0.0000       1.996747        54.3343 
 169   0.0000       2.003675        54.5228 
 170   0.0000       2.010595        54.7111 
 171   0.0000       2.013640        54.7939 
 172   0.0000       2.046935        55.6999 
 173   0.0000       2.058622        56.0179 
 174   0.0000       2.064355        56.1740 
 175   0.0000       2.074815        56.4586 
 176   0.0000       2.077700        56.5371 
 177   0.0000       2.101846        57.1941 
 178   0.0000       2.113116        57.5008 
 179   0.0000       2.165338        58.9218 
 180   0.0000       2.165961        58.9388 
 181   0.0000       2.201517        59.9063 
 182   0.0000       2.223044        60.4921 
 183   0.0000       2.256925        61.4141 
 184   0.0000       2.265595        61.6500 
 185   0.0000       2.269934        61.7680 
 186   0.0000       2.338919        63.6452 
 187   0.0000       2.349018        63.9200 
 188   0.0000       2.380850        64.7862 
 189   0.0000       2.394352        65.1536 
 190   0.0000       2.396879        65.2224 
 191   0.0000       2.432079        66.1802 
 192   0.0000       2.476713        67.3948 
 193   0.0000       2.489311        67.7376 
 194   0.0000       2.500744        68.0487 
 195   0.0000       2.512371        68.3651 
 196   0.0000       2.522025        68.6278 
 197   0.0000       2.525103        68.7116 
 198   0.0000       2.536228        69.0143 
 199   0.0000       2.571291        69.9684 
 200   0.0000       2.625804        71.4518 
 201   0.0000       2.626983        71.4838 
 202   0.0000       2.629726        71.5585 
 203   0.0000       2.634878        71.6987 
 204   0.0000       2.692124        73.2564 
 205   0.0000       2.705524        73.6210 
 206   0.0000       2.716379        73.9164 
 207   0.0000       2.738275        74.5122 
 208   0.0000       2.825514        76.8861 
 209   0.0000       2.830289        77.0161 
 210   0.0000       2.832711        77.0820 
 211   0.0000       2.854851        77.6844 
 212   0.0000       2.881316        78.4046 
 213   0.0000       2.906738        79.0964 
 214   0.0000       2.968315        80.7719 
 215   0.0000       2.978665        81.0536 
 216   0.0000       3.002172        81.6932 
 217   0.0000       3.009773        81.9001 
 218   0.0000       3.014629        82.0322 
 219   0.0000       3.023997        82.2871 
 220   0.0000       3.031984        82.5045 
 221   0.0000       3.045624        82.8756 
 222   0.0000       3.049495        82.9810 
 223   0.0000       3.096298        84.2546 
 224   0.0000       3.099170        84.3327 
 225   0.0000       3.133644        85.2708 
 226   0.0000       3.150612        85.7325 
 227   0.0000       3.157111        85.9094 
 228   0.0000       3.160685        86.0066 
 229   0.0000       3.203940        87.1836 
 230   0.0000       3.319899        90.3390 
 231   0.0000       3.487800        94.9079 
 232   0.0000       3.489756        94.9611 
 233   0.0000       3.694844       100.5418 

                    ********************************
                    * MULLIKEN POPULATION ANALYSIS *
                    ********************************

-----------------------
MULLIKEN ATOMIC CHARGES
-----------------------
   0 N :   -0.204395
   1 C :   -0.184157
   2 N :   -0.204389
   3 C :    0.018207
   4 C :    0.018209
   5 C :   -0.014639
   6 C :   -0.014634
   7 C :    0.013417
   8 H :    0.042726
   9 C :    0.013288
  10 H :    0.042725
  11 C :    0.013336
  12 C :    0.013368
  13 H :    0.051446
  14 H :    0.051444
  15 H :    0.035301
  16 H :    0.030260
  17 H :    0.020419
  18 H :    0.020396
  19 H :    0.030259
  20 H :    0.035378
  21 H :    0.030264
  22 H :    0.035323
  23 H :    0.020423
  24 H :    0.030255
  25 H :    0.020411
  26 H :    0.035358
Sum of atomic charges:   -0.0000000

--------------------------------
MULLIKEN REDUCED ORBITAL CHARGES
--------------------------------
  0 N s       :     3.387667  s :     3.387667
      pz      :     1.116186  p :     3.783630
      px      :     1.162562
      py      :     1.504882
      dz2     :     0.008536  d :     0.033098
      dxz     :     0.009206
      dyz     :     0.006023
      dx2y2   :     0.005266
      dxy     :     0.004067
  1 C s       :     3.595138  s :     3.595138
      pz      :     1.156721  p :     2.524331
      px      :     0.653514
      py      :     0.714096
      dz2     :     0.008418  d :     0.064688
      dxz     :     0.027739
      dyz     :     0.009667
      dx2y2   :     0.007287
      dxy     :     0.011577
  2 N s       :     3.387667  s :     3.387667
      pz      :     1.116186  p :     3.783625
      px      :     1.162562
      py      :     1.504877
      dz2     :     0.008536  d :     0.033098
      dxz     :     0.009206
      dyz     :     0.006023
      dx2y2   :     0.005267
      dxy     :     0.004067
  3 C s       :     3.142131  s :     3.142131
      pz      :     0.803044  p :     2.791071
      px      :     0.905144
      py      :     1.082883
      dz2     :     0.014585  d :     0.048590
      dxz     :     0.013132
      dyz     :     0.008059
      dx2y2   :     0.004836
      dxy     :     0.007978
  4 C s       :     3.142133  s :     3.142133
      pz      :     0.803049  p :     2.791068
      px      :     0.905141
      py      :     1.082877
      dz2     :     0.014585  d :     0.048590
      dxz     :     0.013133
      dyz     :     0.008059
      dx2y2   :     0.004836
      dxy     :     0.007978
  5 C s       :     3.090904  s :     3.090904
      pz      :     1.025209  p :     2.866321
      px      :     0.815160
      py      :     1.025951
      dz2     :     0.008275  d :     0.057414
      dxz     :     0.012522
      dyz     :     0.010515
      dx2y2   :     0.016357
      dxy     :     0.009745
  6 C s       :     3.090901  s :     3.090901
      pz      :     1.025204  p :     2.866319
      px      :     0.815158
      py      :     1.025956
      dz2     :     0.008276  d :     0.057414
      dxz     :     0.012521
      dyz     :     0.010515
      dx2y2   :     0.016357
      dxy     :     0.009746
  7 C s       :     2.986113  s :     2.986113
      pz      :     1.004854  p :     2.973741
      px      :     1.006162
      py      :     0.962725
      dz2     :     0.003403  d :     0.026729
      dxz     :     0.006200
      dyz     :     0.007363
      dx2y2   :     0.008194
      dxy     :     0.001569
  8 H s       :     0.936480  s :     0.936480
      pz      :     0.010687  p :     0.020794
      px      :     0.006699
      py      :     0.003407
  9 C s       :     2.986085  s :     2.986085
      pz      :     1.006203  p :     2.973900
      px      :     1.006235
      py      :     0.961462
      dz2     :     0.003338  d :     0.026727
      dxz     :     0.006177
      dyz     :     0.007439
      dx2y2   :     0.008178
      dxy     :     0.001595
 10 H s       :     0.936481  s :     0.936481
      pz      :     0.010686  p :     0.020794
      px      :     0.006699
      py      :     0.003409
 11 C s       :     2.986106  s :     2.986106
      pz      :     1.004642  p :     2.973830
      px      :     1.006229
      py      :     0.962959
      dz2     :     0.003427  d :     0.026728
      dxz     :     0.006205
      dyz     :     0.007337
      dx2y2   :     0.008197
      dxy     :     0.001562
 12 C s       :     2.986098  s :     2.986098
      pz      :     1.006412  p :     2.973806
      px      :     1.006172
      py      :     0.961223
      dz2     :     0.003322  d :     0.026727
      dxz     :     0.006166
      dyz     :     0.007461
      dx2y2   :     0.008174
      dxy     :     0.001604
 13 H s       :     0.923764  s :     0.923764
      pz      :     0.010744  p :     0.024790
      px      :     0.008650
      py      :     0.005396
 14 H s       :     0.923766  s :     0.923766
      pz      :     0.010744  p :     0.024790
      px      :     0.008650
      py      :     0.005396
 15 H s       :     0.940322  s :     0.940322
      pz      :     0.005885  p :     0.024376
      px      :     0.014295
      py      :     0.004196
 16 H s       :     0.945603  s :     0.945603
      pz      :     0.007809  p :     0.024137
      px      :     0.005236
      py      :     0.011092
 17 H s       :     0.954867  s :     0.954867
      pz      :     0.011059  p :     0.024714
      px      :     0.009470
      py      :     0.004185
 18 H s       :     0.954901  s :     0.954901
      pz      :     0.011055  p :     0.024703
      px      :     0.009449
      py      :     0.004199
 19 H s       :     0.945603  s :     0.945603
      pz      :     0.007625  p :     0.024138
      px      :     0.005228
      py      :     0.011285
 20 H s       :     0.940244  s :     0.940244
      pz      :     0.005866  p :     0.024377
      px      :     0.014299
      py      :     0.004212
 21 H s       :     0.945599  s :     0.945599
      pz      :     0.007868  p :     0.024137
      px      :     0.005230
      py      :     0.011039
 22 H s       :     0.940299  s :     0.940299
      pz      :     0.005889  p :     0.024377
      px      :     0.014297
      py      :     0.004191
 23 H s       :     0.954868  s :     0.954868
      pz      :     0.011066  p :     0.024709
      px      :     0.009461
      py      :     0.004182
 24 H s       :     0.945608  s :     0.945608
      pz      :     0.007566  p :     0.024138
      px      :     0.005236
      py      :     0.011336
 25 H s       :     0.954882  s :     0.954882
      pz      :     0.011050  p :     0.024707
      px      :     0.009453
      py      :     0.004204
 26 H s       :     0.940266  s :     0.940266
      pz      :     0.005859  p :     0.024377
      px      :     0.014301
      py      :     0.004217


                     *******************************
                     * LOEWDIN POPULATION ANALYSIS *
                     *******************************

----------------------
LOEWDIN ATOMIC CHARGES
----------------------
   0 N :    0.045128
   1 C :   -0.300403
   2 N :    0.045129
   3 C :   -0.037507
   4 C :   -0.037505
   5 C :    0.030460
   6 C :    0.030459
   7 C :   -0.054773
   8 H :    0.032123
   9 C :   -0.054775
  10 H :    0.032123
  11 C :   -0.054775
  12 C :   -0.054770
  13 H :    0.035171
  14 H :    0.035170
  15 H :    0.029599
  16 H :    0.026350
  17 H :    0.021198
  18 H :    0.021244
  19 H :    0.026351
  20 H :    0.029626
  21 H :    0.026354
  22 H :    0.029608
  23 H :    0.021228
  24 H :    0.026348
  25 H :    0.021222
  26 H :    0.029618

-------------------------------
LOEWDIN REDUCED ORBITAL CHARGES
-------------------------------
  0 N s       :     3.056565  s :     3.056565
      pz      :     1.198767  p :     3.820209
      px      :     1.197967
      py      :     1.423475
      dz2     :     0.022466  d :     0.078099
      dxz     :     0.025467
      dyz     :     0.011563
      dx2y2   :     0.011202
      dxy     :     0.007401
  1 C s       :     3.184847  s :     3.184847
      pz      :     1.383281  p :     2.975765
      px      :     0.826554
      py      :     0.765930
      dz2     :     0.013889  d :     0.139791
      dxz     :     0.065115
      dyz     :     0.013744
      dx2y2   :     0.022002
      dxy     :     0.025041
  2 N s       :     3.056565  s :     3.056565
      pz      :     1.198766  p :     3.820207
      px      :     1.197969
      py      :     1.423472
      dz2     :     0.022466  d :     0.078099
      dxz     :     0.025467
      dyz     :     0.011563
      dx2y2   :     0.011202
      dxy     :     0.007401
  3 C s       :     2.852961  s :     2.852961
      pz      :     0.939759  p :     3.062486
      px      :     1.054511
      py      :     1.068216
      dz2     :     0.039208  d :     0.122060
      dxz     :     0.036425
      dyz     :     0.016268
      dx2y2   :     0.013989
      dxy     :     0.016170
  4 C s       :     2.852961  s :     2.852961
      pz      :     0.939761  p :     3.062483
      px      :     1.054510
      py      :     1.068212
      dz2     :     0.039207  d :     0.122061
      dxz     :     0.036426
      dyz     :     0.016267
      dx2y2   :     0.013990
      dxy     :     0.016170
  5 C s       :     2.829742  s :     2.829742
      pz      :     1.051708  p :     3.007465
      px      :     0.902269
      py      :     1.053489
      dz2     :     0.016846  d :     0.132332
      dxz     :     0.030505
      dyz     :     0.026408
      dx2y2   :     0.038720
      dxy     :     0.019852
  6 C s       :     2.829743  s :     2.829743
      pz      :     1.051705  p :     3.007465
      px      :     0.902269
      py      :     1.053491
      dz2     :     0.016850  d :     0.132332
      dxz     :     0.030503
      dyz     :     0.026406
      dx2y2   :     0.038720
      dxy     :     0.019854
  7 C s       :     2.832052  s :     2.832052
      pz      :     1.057174  p :     3.151442
      px      :     1.068726
      py      :     1.025542
      dz2     :     0.008078  d :     0.071279
      dxz     :     0.016523
      dyz     :     0.020346
      dx2y2   :     0.022526
      dxy     :     0.003807
  8 H s       :     0.902575  s :     0.902575
      pz      :     0.031097  p :     0.065302
      px      :     0.020484
      py      :     0.013721
  9 C s       :     2.831996  s :     2.831996
      pz      :     1.058141  p :     3.151496
      px      :     1.068771
      py      :     1.024584
      dz2     :     0.007948  d :     0.071283
      dxz     :     0.016463
      dyz     :     0.020477
      dx2y2   :     0.022523
      dxy     :     0.003871
 10 H s       :     0.902575  s :     0.902575
      pz      :     0.031094  p :     0.065301
      px      :     0.020483
      py      :     0.013724
 11 C s       :     2.832023  s :     2.832023
      pz      :     1.056959  p :     3.151470
      px      :     1.068762
      py      :     1.025749
      dz2     :     0.008129  d :     0.071282
      dxz     :     0.016534
      dyz     :     0.020302
      dx2y2   :     0.022528
      dxy     :     0.003788
 12 C s       :     2.832027  s :     2.832027
      pz      :     1.058348  p :     3.151464
      px      :     1.068736
      py      :     1.024379
      dz2     :     0.007919  d :     0.071280
      dxz     :     0.016435
      dyz     :     0.020510
      dx2y2   :     0.022519
      dxy     :     0.003897
 13 H s       :     0.890592  s :     0.890592
      pz      :     0.031590  p :     0.074238
      px      :     0.024821
      py      :     0.017827
 14 H s       :     0.890592  s :     0.890592
      pz      :     0.031590  p :     0.074237
      px      :     0.024821
      py      :     0.017826
 15 H s       :     0.903061  s :     0.903061
      pz      :     0.016414  p :     0.067340
      px      :     0.038022
      py      :     0.012904
 16 H s       :     0.906488  s :     0.906488
      pz      :     0.021497  p :     0.067162
      px      :     0.013580
      py      :     0.032084
 17 H s       :     0.909775  s :     0.909775
      pz      :     0.030893  p :     0.069027
      px      :     0.024992
      py      :     0.013142
 18 H s       :     0.909770  s :     0.909770
      pz      :     0.030929  p :     0.068987
      px      :     0.024935
      py      :     0.013122
 19 H s       :     0.906489  s :     0.906489
      pz      :     0.021056  p :     0.067160
      px      :     0.013562
      py      :     0.032543
 20 H s       :     0.903035  s :     0.903035
      pz      :     0.016410  p :     0.067339
      px      :     0.038036
      py      :     0.012893
 21 H s       :     0.906486  s :     0.906486
      pz      :     0.021634  p :     0.067160
      px      :     0.013566
      py      :     0.031960
 22 H s       :     0.903053  s :     0.903053
      pz      :     0.016404  p :     0.067340
      px      :     0.038028
      py      :     0.012907
 23 H s       :     0.909766  s :     0.909766
      pz      :     0.030890  p :     0.069006
      px      :     0.024966
      py      :     0.013151
 24 H s       :     0.906491  s :     0.906491
      pz      :     0.020917  p :     0.067161
      px      :     0.013580
      py      :     0.032664
 25 H s       :     0.909774  s :     0.909774
      pz      :     0.030940  p :     0.069004
      px      :     0.024946
      py      :     0.013118
 26 H s       :     0.903043  s :     0.903043
      pz      :     0.016410  p :     0.067339
      px      :     0.038038
      py      :     0.012891


                      *****************************
                      * MAYER POPULATION ANALYSIS *
                      *****************************

  NA   - Mulliken gross atomic population
  ZA   - Total nuclear charge
  QA   - Mulliken gross atomic charge
  VA   - Mayer's total valence
  BVA  - Mayer's bonded valence
  FA   - Mayer's free valence

  ATOM       NA         ZA         QA         VA         BVA        FA
  0 N      7.2044     7.0000    -0.2044     3.3428     3.3428    -0.0000
  1 C      6.1842     6.0000    -0.1842     2.7617     2.7617     0.0000
  2 N      7.2044     7.0000    -0.2044     3.3428     3.3428    -0.0000
  3 C      5.9818     6.0000     0.0182     3.8444     3.8444    -0.0000
  4 C      5.9818     6.0000     0.0182     3.8444     3.8444     0.0000
  5 C      6.0146     6.0000    -0.0146     4.0867     4.0867     0.0000
  6 C      6.0146     6.0000    -0.0146     4.0867     4.0867    -0.0000
  7 C      5.9866     6.0000     0.0134     3.9483     3.9483    -0.0000
  8 H      0.9573     1.0000     0.0427     0.9787     0.9787    -0.0000
  9 C      5.9867     6.0000     0.0133     3.9481     3.9481    -0.0000
 10 H      0.9573     1.0000     0.0427     0.9787     0.9787    -0.0000
 11 C      5.9867     6.0000     0.0133     3.9483     3.9483    -0.0000
 12 C      5.9866     6.0000     0.0134     3.9482     3.9482    -0.0000
 13 H      0.9486     1.0000     0.0514     1.0003     1.0003    -0.0000
 14 H      0.9486     1.0000     0.0514     1.0003     1.0003     0.0000
 15 H      0.9647     1.0000     0.0353     0.9942     0.9942    -0.0000
 16 H      0.9697     1.0000     0.0303     0.9950     0.9950    -0.0000
 17 H      0.9796     1.0000     0.0204     1.0239     1.0239    -0.0000
 18 H      0.9796     1.0000     0.0204     1.0235     1.0235     0.0000
 19 H      0.9697     1.0000     0.0303     0.9950     0.9950    -0.0000
 20 H      0.9646     1.0000     0.0354     0.9942     0.9942     0.0000
 21 H      0.9697     1.0000     0.0303     0.9950     0.9950    -0.0000
 22 H      0.9647     1.0000     0.0353     0.9942     0.9942    -0.0000
 23 H      0.9796     1.0000     0.0204     1.0237     1.0237    -0.0000
 24 H      0.9697     1.0000     0.0303     0.9950     0.9950    -0.0000
 25 H      0.9796     1.0000     0.0204     1.0237     1.0237    -0.0000
 26 H      0.9646     1.0000     0.0354     0.9942     0.9942    -0.0000

  Mayer bond orders larger than 0.100000
B(  0-N ,  1-C ) :   1.2513 B(  0-N ,  4-C ) :   1.1447 B(  0-N ,  5-C ) :   0.9036 
B(  1-C ,  2-N ) :   1.2513 B(  2-N ,  3-C ) :   1.1447 B(  2-N ,  6-C ) :   0.9036 
B(  3-C ,  4-C ) :   1.6009 B(  3-C , 13-H ) :   0.9939 B(  4-C , 14-H ) :   0.9939 
B(  5-C ,  7-C ) :   1.0685 B(  5-C ,  8-H ) :   0.9463 B(  5-C ,  9-C ) :   1.0684 
B(  6-C , 10-H ) :   0.9463 B(  6-C , 11-C ) :   1.0685 B(  6-C , 12-C ) :   1.0684 
B(  7-C , 18-H ) :   0.9624 B(  7-C , 19-H ) :   0.9693 B(  7-C , 20-H ) :   0.9727 
B(  9-C , 15-H ) :   0.9727 B(  9-C , 16-H ) :   0.9693 B(  9-C , 17-H ) :   0.9623 
B( 11-C , 24-H ) :   0.9693 B( 11-C , 25-H ) :   0.9624 B( 11-C , 26-H ) :   0.9727 
B( 12-C , 21-H ) :   0.9693 B( 12-C , 22-H ) :   0.9727 B( 12-C , 23-H ) :   0.9624 


-------
TIMINGS
-------

Total SCF time: 0 days 0 hours 8 min 24 sec 

Total time                  ....     504.969 sec
Sum of individual times     ....     504.146 sec  ( 99.8%)

Fock matrix formation       ....     497.177 sec  ( 98.5%)
  Split-RI-J                ....      18.977 sec  (  3.8% of F)
  Chain of spheres X        ....     406.119 sec  ( 81.7% of F)
  XC integration            ....      41.760 sec  (  8.4% of F)
[...]
     70      -0.008277   0.012245  -0.013184  -0.018769   0.001745   0.015143
     71      -0.132993   0.171718  -0.183704  -0.413887   0.038355   0.307669
     72      -0.088070  -0.063582   0.069948   0.001686   0.000250  -0.001325
     73       0.358120   0.256566  -0.282566  -0.039185   0.001978  -0.010496
     74       0.234357   0.167654  -0.184688  -0.028992   0.001594  -0.009017
     75       0.131857   0.107873  -0.116018   0.263994  -0.024863   0.170302
     76      -0.009396  -0.008222   0.008919  -0.011542   0.001091  -0.009071
     77       0.195795   0.161672  -0.173694   0.417008  -0.039253   0.269637
     78      -0.210232  -0.125398   0.143286   0.526925  -0.047480   0.332783
     79      -0.004383  -0.003312   0.003681   0.004287  -0.000393   0.003171
     80       0.048691   0.028368  -0.032612  -0.135418   0.012223  -0.085824
                 78         79         80    
      0       0.000205   0.000388  -0.000927
      1       0.000018   0.000014  -0.000051
      2       0.000161   0.000689  -0.002686
      3      -0.000001  -0.001819   0.000000
      4      -0.000029  -0.000000  -0.000017
      5      -0.000145  -0.000000  -0.000956
      6      -0.000202   0.000388   0.000927
      7       0.000016  -0.000014  -0.000051
      8       0.000158  -0.000689  -0.002686
      9      -0.000242   0.039403   0.050392
     10      -0.000002   0.000933   0.000932
     11      -0.000132   0.047672   0.047564
     12       0.000244   0.039401  -0.050394
     13      -0.000002  -0.000913   0.000907
     14      -0.000134  -0.047671   0.047566
     15      -0.004801   0.000484  -0.000279
     16       0.000055  -0.000005   0.000005
     17       0.006615  -0.000500   0.000393
     18       0.004753   0.000484   0.000279
     19       0.000060   0.000005   0.000005
     20       0.006547   0.000500   0.000393
     21      -0.041595   0.000080   0.000009
     22      -0.000836   0.000011   0.000003
     23       0.014734  -0.000013   0.000051
     24       0.046343  -0.004430   0.003244
     25      -0.000674   0.000032  -0.000023
     26      -0.072693   0.004410  -0.002701
     27      -0.045909   0.000078   0.000011
     28       0.000217  -0.000008  -0.000004
     29       0.017802  -0.000014   0.000052
     30      -0.045871  -0.004430  -0.003245
     31      -0.000719  -0.000037  -0.000026
     32      -0.071951  -0.004411  -0.002702
     33       0.041255   0.000080  -0.000009
     34      -0.000775  -0.000011   0.000003
     35       0.014684   0.000013   0.000051
     36       0.045327   0.000078  -0.000011
     37       0.000266   0.000008  -0.000004
     38       0.017508   0.000014   0.000052
     39       0.001254  -0.463110  -0.467217
     40       0.000032  -0.010406  -0.010314
     41       0.001134  -0.530623  -0.526073
     42      -0.001278  -0.463101   0.467239
     43       0.000031   0.010177  -0.010084
     44       0.001161   0.530605  -0.526090
     45       0.361492  -0.001630   0.000625
     46       0.007051  -0.000355   0.000255
     47       0.092843  -0.000574   0.000265
     48      -0.005060   0.000012  -0.000057
     49       0.002259   0.000135   0.000061
     50       0.000882  -0.000141  -0.000022
     51       0.195418  -0.000468   0.000360
     52      -0.015087   0.000210  -0.000164
     53      -0.309392   0.000937  -0.000711
     54       0.171285  -0.000468   0.000351
     55       0.009365  -0.000194   0.000151
     56      -0.271171   0.000941  -0.000696
     57      -0.002201   0.000006  -0.000049
     58       0.006919  -0.000151  -0.000035
     59       0.006665  -0.000156   0.000005
     60       0.331070  -0.001637   0.000631
     61      -0.003184   0.000337  -0.000243
     62       0.085459  -0.000579   0.000273
     63       0.004882   0.000011   0.000057
     64       0.001807  -0.000135   0.000060
     65       0.001157   0.000141  -0.000021
     66      -0.357066  -0.001630  -0.000625
     67       0.006929   0.000355   0.000255
     68       0.091727   0.000574   0.000265
     69      -0.192677  -0.000468  -0.000360
     70      -0.015084  -0.000210  -0.000164
     71      -0.305017  -0.000937  -0.000710
     72       0.002302   0.000007   0.000049
     73       0.006401   0.000150  -0.000036
     74       0.006304   0.000155   0.000004
     75      -0.170161  -0.000467  -0.000351
     76       0.009125   0.000193   0.000151
     77      -0.269426  -0.000940  -0.000697
     78      -0.328221  -0.001637  -0.000631
     79      -0.003188  -0.000337  -0.000243
     80       0.084699   0.000580   0.000273


-----------
IR SPECTRUM
-----------

 Mode   freq       eps      Int      T**2         TX        TY        TZ
       cm**-1   L/(mol*cm) km/mol    a.u.
----------------------------------------------------------------------------
  6:     42.02   0.002256   11.40  0.016751  (-0.000030  0.129414 -0.001883)
  7:     52.89   0.000000    0.00  0.000000  ( 0.000020  0.000314 -0.000008)
  8:     89.53   0.001089    5.50  0.003796  ( 0.000003  0.061603 -0.001028)
  9:    149.69   0.000289    1.46  0.000602  ( 0.000001 -0.000341  0.024542)
 10:    175.43   0.000000    0.00  0.000000  (-0.000268 -0.000000 -0.000011)
 11:    259.59   0.000020    0.10  0.000024  ( 0.000142 -0.004912  0.000156)
 12:    259.98   0.000002    0.01  0.000002  ( 0.001429  0.000250 -0.000002)
 13:    276.13   0.000741    3.74  0.000837  (-0.028933 -0.000026  0.000003)
 14:    289.79   0.000002    0.01  0.000002  (-0.000029 -0.000073  0.001366)
 15:    316.99   0.000381    1.93  0.000375  ( 0.000015 -0.000566  0.019359)
 16:    330.52   0.001274    6.44  0.001203  (-0.034681 -0.000002  0.000003)
 17:    346.51   0.000469    2.37  0.000423  (-0.020555 -0.000007  0.000002)
 18:    403.74   0.003945   19.94  0.003049  (-0.000013  0.055212 -0.000845)
 19:    456.54   0.000000    0.00  0.000000  ( 0.000245 -0.000001 -0.000007)
 20:    487.68   0.000121    0.61  0.000078  (-0.000000 -0.000236 -0.008811)
 21:    529.84   0.000044    0.22  0.000026  (-0.005100 -0.000001  0.000001)
 22:    614.71   0.000495    2.50  0.000251  ( 0.000000 -0.000465 -0.015839)
 23:    670.80   0.000000    0.00  0.000000  ( 0.000105 -0.000006 -0.000003)
 24:    683.36   0.003237   16.36  0.001478  ( 0.000011  0.038440 -0.000713)
 25:    723.06   0.002660   13.44  0.001148  ( 0.033885 -0.000025  0.000001)
 26:    743.76   0.014099   71.25  0.005916  (-0.000009  0.076897 -0.001633)
 27:    875.69   0.000000    0.00  0.000000  ( 0.000123  0.000003  0.000003)
 28:    911.54   0.000006    0.03  0.000002  (-0.000005 -0.000278 -0.001433)
 29:    922.05   0.001540    7.78  0.000521  ( 0.022828 -0.000020  0.000000)
 30:    934.18   0.000003    0.01  0.000001  (-0.000721  0.000681 -0.000014)
 31:    934.40   0.001001    5.06  0.000334  ( 0.000039  0.018279 -0.000265)
 32:    963.45   0.000000    0.00  0.000000  (-0.000156  0.000004 -0.000000)
 33:    964.13   0.000228    1.15  0.000074  (-0.000002  0.008589 -0.000011)
 34:   1012.36   0.004317   21.82  0.001331  ( 0.036481 -0.000001 -0.000000)
 35:   1024.03   0.000280    1.42  0.000085  (-0.000002  0.000084 -0.009240)
 36:   1088.94   0.004907   24.80  0.001406  (-0.000001  0.001247  0.037479)
 37:   1119.60   0.000678    3.43  0.000189  (-0.000003 -0.000274 -0.013742)
 38:   1145.82   0.010628   53.71  0.002895  ( 0.053801  0.000002  0.000001)
 39:   1160.91   0.004521   22.85  0.001215  ( 0.034860  0.000001 -0.000000)
 40:   1171.43   0.003357   16.96  0.000894  (-0.000002 -0.029901  0.000446)
 41:   1171.52   0.000003    0.01  0.000001  ( 0.000610  0.000645 -0.000006)
 42:   1191.12   0.001013    5.12  0.000265  ( 0.000004  0.000250 -0.016290)
 43:   1226.42   0.008455   42.73  0.002151  ( 0.046382  0.000011  0.000001)
 44:   1327.16   0.014280   72.17  0.003358  ( 0.057947 -0.000005  0.000000)
 45:   1333.38   0.000009    0.05  0.000002  (-0.000015 -0.000068  0.001477)
 46:   1349.48   0.000003    0.01  0.000001  (-0.000307 -0.000742  0.000017)
 47:   1349.50   0.000019    0.10  0.000004  ( 0.000087 -0.002111  0.000062)
 48:   1394.77   0.000503    2.54  0.000112  (-0.010606  0.000028  0.000043)
 49:   1395.89   0.002350   11.87  0.000525  ( 0.000021  0.000584  0.022911)
 50:   1402.14   0.000004    0.02  0.000001  ( 0.000126  0.000979 -0.000018)
 51:   1402.23   0.009106   46.02  0.002027  (-0.000007  0.045015 -0.000475)
 52:   1414.03   0.003546   17.92  0.000782  ( 0.000001 -0.000453 -0.027969)
 53:   1435.30   0.006809   34.41  0.001480  ( 0.038475  0.000012 -0.000004)
 54:   1447.86   0.000221    1.11  0.000048  (-0.000125  0.006801 -0.001122)
 55:   1447.87   0.000005    0.03  0.000001  (-0.000782 -0.000747  0.000073)
 56:   1452.47   0.010173   51.41  0.002186  ( 0.000004  0.000596  0.046747)
 57:   1455.58   0.000010    0.05  0.000002  ( 0.000657  0.001323 -0.000081)
 58:   1455.59   0.000123    0.62  0.000026  (-0.000072  0.005125 -0.000209)
 59:   1458.56   0.006218   31.42  0.001330  (-0.036473  0.000004 -0.000000)
 60:   1468.73   0.000004    0.02  0.000001  ( 0.000005  0.000272  0.000849)
 61:   1475.09   0.013359   67.51  0.002826  ( 0.053162  0.000007  0.000003)
 62:   1483.46   0.002414   12.20  0.000508  ( 0.022535 -0.000003 -0.000009)
 63:   1494.49   0.004299   21.73  0.000898  (-0.000001  0.000438  0.029959)
 64:   1648.58   0.000385    1.94  0.000073  (-0.000000 -0.000033  0.008533)
 65:   3066.63   0.011122   56.21  0.001132  ( 0.000057 -0.033615  0.001367)
 66:   3066.64   0.000031    0.16  0.000003  ( 0.000838  0.001576 -0.000050)
 67:   3069.31   0.001692    8.55  0.000172  (-0.013117 -0.000022  0.000114)
 68:   3069.41   0.002792   14.11  0.000284  (-0.000087 -0.002295 -0.016690)
 69:   3107.99   0.004081   20.62  0.000410  ( 0.020242  0.000012  0.000009)
 70:   3108.14   0.004974   25.13  0.000499  ( 0.000008 -0.000107 -0.022346)
 71:   3171.94   0.007584   38.33  0.000746  (-0.000118  0.026834  0.005108)
 72:   3171.95   0.000033    0.16  0.000003  ( 0.001076  0.001413  0.000222)
 73:   3172.95   0.001329    6.72  0.000131  ( 0.011343 -0.000127  0.001424)
 74:   3172.98   0.010990   55.54  0.001081  (-0.000502 -0.003897  0.032641)
 75:   3174.02   0.000068    0.34  0.000007  (-0.002132  0.000192  0.001456)
 76:   3174.02   0.000094    0.48  0.000009  ( 0.002719  0.000162  0.001353)
 77:   3177.38   0.018897   95.50  0.001856  (-0.043081 -0.000026 -0.000075)
 78:   3177.60   0.002046   10.34  0.000201  (-0.000227 -0.000341  0.014168)
 79:   3281.62   0.001341    6.78  0.000128  (-0.011293 -0.000002 -0.000000)
 80:   3302.52   0.000134    0.68  0.000013  ( 0.000000 -0.000118 -0.003562)

* The epsilon (eps) is given for a Dirac delta lineshape.
** The dipole moment derivative (T) already includes vibrational overlap.

The first frequency considered to be a vibration is 6
The total number of vibrations considered is 75


--------------------------
THERMOCHEMISTRY AT 298.15K
--------------------------

Temperature         ... 298.15 K
Pressure            ... 1.00 atm
Total Mass          ... 152.24 AMU

Throughout the following assumptions are being made:
  (1) The electronic state is orbitally nondegenerate
  (2) There are no thermally accessible electronically excited states
  (3) Hindered rotations indicated by low frequency modes are not
      treated as such but are treated as vibrations and this may
      cause some error
  (4) All equations used are the standard statistical mechanics
      equations for an ideal gas
  (5) All vibrations are strictly harmonic

freq.      42.02  E(vib)   ...       0.53 
freq.      52.89  E(vib)   ...       0.52 
freq.      89.53  E(vib)   ...       0.47 
freq.     149.69  E(vib)   ...       0.40 
freq.     175.43  E(vib)   ...       0.38 
freq.     259.59  E(vib)   ...       0.30 
freq.     259.98  E(vib)   ...       0.30 
freq.     276.13  E(vib)   ...       0.28 
freq.     289.79  E(vib)   ...       0.27 
freq.     316.99  E(vib)   ...       0.25 
freq.     330.52  E(vib)   ...       0.24 
freq.     346.51  E(vib)   ...       0.23 
freq.     403.74  E(vib)   ...       0.19 
freq.     456.54  E(vib)   ...       0.16 
freq.     487.68  E(vib)   ...       0.15 
freq.     529.84  E(vib)   ...       0.13 
freq.     614.71  E(vib)   ...       0.10 
freq.     670.80  E(vib)   ...       0.08 
freq.     683.36  E(vib)   ...       0.08 
freq.     723.06  E(vib)   ...       0.07 
freq.     743.76  E(vib)   ...       0.06 
freq.     875.69  E(vib)   ...       0.04 
freq.     911.54  E(vib)   ...       0.03 
freq.     922.05  E(vib)   ...       0.03 
freq.     934.18  E(vib)   ...       0.03 
freq.     934.40  E(vib)   ...       0.03 
freq.     963.45  E(vib)   ...       0.03 
freq.     964.13  E(vib)   ...       0.03 
freq.    1012.36  E(vib)   ...       0.02 
freq.    1024.03  E(vib)   ...       0.02 
freq.    1088.94  E(vib)   ...       0.02 
freq.    1119.60  E(vib)   ...       0.01 
freq.    1145.82  E(vib)   ...       0.01 
freq.    1160.91  E(vib)   ...       0.01 
freq.    1171.43  E(vib)   ...       0.01 
freq.    1171.52  E(vib)   ...       0.01 
freq.    1191.12  E(vib)   ...       0.01 
freq.    1226.42  E(vib)   ...       0.01 
freq.    1327.16  E(vib)   ...       0.01 
freq.    1333.38  E(vib)   ...       0.01 
freq.    1349.48  E(vib)   ...       0.01 
freq.    1349.50  E(vib)   ...       0.01 
freq.    1394.77  E(vib)   ...       0.00 
freq.    1395.89  E(vib)   ...       0.00 
freq.    1402.14  E(vib)   ...       0.00 
freq.    1402.23  E(vib)   ...       0.00 
freq.    1414.03  E(vib)   ...       0.00 
freq.    1435.30  E(vib)   ...       0.00 
freq.    1447.86  E(vib)   ...       0.00 
freq.    1447.87  E(vib)   ...       0.00 
freq.    1452.47  E(vib)   ...       0.00 
freq.    1455.58  E(vib)   ...       0.00 
freq.    1455.59  E(vib)   ...       0.00 
freq.    1458.56  E(vib)   ...       0.00 
freq.    1468.73  E(vib)   ...       0.00 
freq.    1475.09  E(vib)   ...       0.00 
freq.    1483.46  E(vib)   ...       0.00 
freq.    1494.49  E(vib)   ...       0.00 
freq.    1648.58  E(vib)   ...       0.00 
freq.    3066.63  E(vib)   ...       0.00 
freq.    3066.64  E(vib)   ...       0.00 
freq.    3069.31  E(vib)   ...       0.00 
freq.    3069.41  E(vib)   ...       0.00 
freq.    3107.99  E(vib)   ...       0.00 
freq.    3108.14  E(vib)   ...       0.00 
freq.    3171.94  E(vib)   ...       0.00 
freq.    3171.95  E(vib)   ...       0.00 
freq.    3172.95  E(vib)   ...       0.00 
freq.    3172.98  E(vib)   ...       0.00 
freq.    3174.02  E(vib)   ...       0.00 
freq.    3174.02  E(vib)   ...       0.00 
freq.    3177.38  E(vib)   ...       0.00 
freq.    3177.60  E(vib)   ...       0.00 
freq.    3281.62  E(vib)   ...       0.00 
freq.    3302.52  E(vib)   ...       0.00 

------------
INNER ENERGY
------------

The inner energy is: U= E(el) + E(ZPE) + E(vib) + E(rot) + E(trans)
    E(el)   - is the total energy from the electronic structure calculation
              = E(kin-el) + E(nuc-el) + E(el-el) + E(nuc-nuc)
    E(ZPE)  - the the zero temperature vibrational energy from the frequency calculation
    E(vib)  - the the finite temperature correction to E(ZPE) due to population
              of excited vibrational states
    E(rot)  - is the rotational thermal energy
    E(trans)- is the translational thermal energy

Summary of contributions to the inner energy U:
Electronic energy                ...   -461.63188381 Eh
Zero point energy                ...      0.24211774 Eh     151.93 kcal/mol
Thermal vibrational correction   ...      0.00896395 Eh       5.62 kcal/mol
Thermal rotational correction    ...      0.00141627 Eh       0.89 kcal/mol
Thermal translational correction ...      0.00141627 Eh       0.89 kcal/mol
-----------------------------------------------------------------------
Total thermal energy                   -461.37796957 Eh


Summary of corrections to the electronic energy:
(perhaps to be used in another calculation)
Total thermal correction                  0.01179649 Eh       7.40 kcal/mol
Non-thermal (ZPE) correction              0.24211774 Eh     151.93 kcal/mol
-----------------------------------------------------------------------
Total correction                          0.25391424 Eh     159.33 kcal/mol


--------
ENTHALPY
--------

The enthalpy is H = U + kB*T
                kB is Boltzmann's constant
Total free energy                 ...   -461.37796957 Eh 
Thermal Enthalpy correction       ...      0.00094421 Eh       0.59 kcal/mol
-----------------------------------------------------------------------
Total Enthalpy                    ...   -461.37702536 Eh


Note: Only C1 symmetry has been detected, increase convergence thresholds 
      if your molecule has a higher symmetry. Symmetry factor of 1.0 is   
      used for the rotational entropy correction. 
 

Note: Rotational entropy computed according to Herzberg 
Infrared and Raman Spectra, Chapter V,1, Van Nostrand Reinhold, 1945 
Point Group:  C1, Symmetry Number:   1  
Rotational constants in cm-1:     0.066668     0.021084     0.020231 

Vibrational entropy computed according to the QRRHO of S. Grimme
Chem.Eur.J. 2012 18 9955


-------
ENTROPY
-------

The entropy contributions are T*S = T*(S(el)+S(vib)+S(rot)+S(trans))
     S(el)   - electronic entropy
     S(vib)  - vibrational entropy
     S(rot)  - rotational entropy
     S(trans)- translational entropy
The entropies will be listed as multiplied by the temperature to get
units of energy

Electronic entropy                ...      0.00000000 Eh      0.00 kcal/mol
Vibrational entropy               ...      0.01528457 Eh      9.59 kcal/mol
Rotational entropy                ...      0.01445258 Eh      9.07 kcal/mol
Translational entropy             ...      0.01946649 Eh     12.22 kcal/mol
-----------------------------------------------------------------------
Final entropy term                ...      0.04920364 Eh     30.88 kcal/mol

In case the symmetry of your molecule has not been determined correctly
or in case you have a reason to use a different symmetry number we print 
out the resulting rotational entropy values for sn=1,12 :
 --------------------------------------------------------
|  sn= 1 | S(rot)=       0.01445258 Eh      9.07 kcal/mol|
|  sn= 2 | S(rot)=       0.01379812 Eh      8.66 kcal/mol|
|  sn= 3 | S(rot)=       0.01341529 Eh      8.42 kcal/mol|
|  sn= 4 | S(rot)=       0.01314366 Eh      8.25 kcal/mol|
|  sn= 5 | S(rot)=       0.01293298 Eh      8.12 kcal/mol|
|  sn= 6 | S(rot)=       0.01276083 Eh      8.01 kcal/mol|
|  sn= 7 | S(rot)=       0.01261529 Eh      7.92 kcal/mol|
|  sn= 8 | S(rot)=       0.01248921 Eh      7.84 kcal/mol|
|  sn= 9 | S(rot)=       0.01237800 Eh      7.77 kcal/mol|
|  sn=10 | S(rot)=       0.01227852 Eh      7.70 kcal/mol|
|  sn=11 | S(rot)=       0.01218853 Eh      7.65 kcal/mol|
|  sn=12 | S(rot)=       0.01210638 Eh      7.60 kcal/mol|
 --------------------------------------------------------


-------------------
GIBBS FREE ENERGY
-------------------

The Gibbs free energy is G = H - T*S

Total enthalpy                    ...   -461.37702536 Eh 
Total entropy correction          ...     -0.04920364 Eh    -30.88 kcal/mol
-----------------------------------------------------------------------
Final Gibbs free energy         ...   -461.42622901 Eh

For completeness - the Gibbs free energy minus the electronic energy
G-E(el)                           ...      0.20565480 Eh    129.05 kcal/mol


Timings for individual modules:

Sum of individual times         ...     4292.938 sec (=  71.549 min)
GTO integral calculation        ...        2.401 sec (=   0.040 min)   0.1 %
SCF iterations                  ...     2065.070 sec (=  34.418 min)  48.1 %
SCF Gradient evaluation         ...      499.001 sec (=   8.317 min)  11.6 %
Geometry relaxation             ...        0.393 sec (=   0.007 min)   0.0 %
Analytical frequency calculation...     1726.074 sec (=  28.768 min)  40.2 %
                             ****ORCA TERMINATED NORMALLY****
TOTAL RUN TIME: 0 days 1 hours 11 minutes 34 seconds 21 msec
