
                                 *****************
                                 * O   R   C   A *
                                 *****************

                                            #,                                       
                                            ###                                      
                                            ####                                     
                                            #####                                    
                                            ######                                   
                                           ########,                                 
                                     ,,################,,,,,                         
                               ,,#################################,,                 
                          ,,##########################################,,             
                       ,#########################################, ''#####,          
                    ,#############################################,,   '####,        
                  ,##################################################,,,,####,       
                ,###########''''           ''''###############################       
              ,#####''   ,,,,##########,,,,          '''####'''          '####       
            ,##' ,,,,###########################,,,                        '##       
           ' ,,###''''                  '''############,,,                           
         ,,##''                                '''############,,,,        ,,,,,,###''
      ,#''                                            '''#######################'''  
     '                                                          ''''####''''         
             ,#######,   #######,   ,#######,      ##                                
            ,#'     '#,  ##    ##  ,#'     '#,    #''#        ######   ,####,        
            ##       ##  ##   ,#'  ##            #'  '#       #        #'  '#        
            ##       ##  #######   ##           ,######,      #####,   #    #        
            '#,     ,#'  ##    ##  '#,     ,#' ,#      #,         ##   #,  ,#        
             '#######'   ##     ##  '#######'  #'      '#     #####' # '####'        



                  #######################################################
                  #                        -***-                        #
                  #          Department of theory and spectroscopy      #
                  #    Directorship and core code : Frank Neese         #
                  #        Max Planck Institute fuer Kohlenforschung    #
                  #                Kaiser Wilhelm Platz 1               #
                  #                 D-45470 Muelheim/Ruhr               #
                  #                      Germany                        #
                  #                                                     #
                  #                  All rights reserved                #
                  #                        -***-                        #
                  #######################################################


                         Program Version 5.0.4 -  RELEASE  -


 With contributions from (in alphabetic order):
   Daniel Aravena         : Magnetic Suceptibility
   Michael Atanasov       : Ab Initio Ligand Field Theory (pilot matlab implementation)
   Alexander A. Auer      : GIAO ZORA, VPT2 properties, NMR spectrum
   Ute Becker             : Parallelization
   Giovanni Bistoni       : ED, misc. LED, open-shell LED, HFLD
   Martin Brehm           : Molecular dynamics
   Dmytro Bykov           : SCF Hessian
   Vijay G. Chilkuri      : MRCI spin determinant printing, contributions to CSF-ICE
   Dipayan Datta          : RHF DLPNO-CCSD density
   Achintya Kumar Dutta   : EOM-CC, STEOM-CC
   Dmitry Ganyushin       : Spin-Orbit,Spin-Spin,Magnetic field MRCI
   Miquel Garcia          : C-PCM and meta-GGA Hessian, CC/C-PCM, Gaussian charge scheme
   Yang Guo               : DLPNO-NEVPT2, F12-NEVPT2, CIM, IAO-localization
   Andreas Hansen         : Spin unrestricted coupled pair/coupled cluster methods
   Benjamin Helmich-Paris : MC-RPA, TRAH-SCF, COSX integrals
   Lee Huntington         : MR-EOM, pCC
   Robert Izsak           : Overlap fitted RIJCOSX, COSX-SCS-MP3, EOM
   Marcus Kettner         : VPT2
   Christian Kollmar      : KDIIS, OOCD, Brueckner-CCSD(T), CCSD density, CASPT2, CASPT2-K
   Simone Kossmann        : Meta GGA functionals, TD-DFT gradient, OOMP2, MP2 Hessian
   Martin Krupicka        : Initial AUTO-CI
   Lucas Lang             : DCDCAS
   Marvin Lechner         : AUTO-CI (C++ implementation), FIC-MRCC
   Dagmar Lenk            : GEPOL surface, SMD
   Dimitrios Liakos       : Extrapolation schemes; Compound Job, initial MDCI parallelization
   Dimitrios Manganas     : Further ROCIS development; embedding schemes
   Dimitrios Pantazis     : SARC Basis sets
   Anastasios Papadopoulos: AUTO-CI, single reference methods and gradients
   Taras Petrenko         : DFT Hessian,TD-DFT gradient, ASA, ECA, R-Raman, ABS, FL, XAS/XES, NRVS
   Peter Pinski           : DLPNO-MP2, DLPNO-MP2 Gradient
   Christoph Reimann      : Effective Core Potentials
   Marius Retegan         : Local ZFS, SOC
   Christoph Riplinger    : Optimizer, TS searches, QM/MM, DLPNO-CCSD(T), (RO)-DLPNO pert. Triples
   Tobias Risthaus        : Range-separated hybrids, TD-DFT gradient, RPA, STAB
   Michael Roemelt        : Original ROCIS implementation
   Masaaki Saitow         : Open-shell DLPNO-CCSD energy and density
   Barbara Sandhoefer     : DKH picture change effects
   Avijit Sen             : IP-ROCIS
   Kantharuban Sivalingam : CASSCF convergence, NEVPT2, FIC-MRCI
   Bernardo de Souza      : ESD, SOC TD-DFT
   Georgi Stoychev        : AutoAux, RI-MP2 NMR, DLPNO-MP2 response
   Willem Van den Heuvel  : Paramagnetic NMR
   Boris Wezisla          : Elementary symmetry handling
   Frank Wennmohs         : Technical directorship


 We gratefully acknowledge several colleagues who have allowed us to
 interface, adapt or use parts of their codes:
   Stefan Grimme, W. Hujo, H. Kruse, P. Pracht,  : VdW corrections, initial TS optimization,
                  C. Bannwarth, S. Ehlert          DFT functionals, gCP, sTDA/sTD-DF
   Ed Valeev, F. Pavosevic, A. Kumar             : LibInt (2-el integral package), F12 methods
   Garnet Chan, S. Sharma, J. Yang, R. Olivares  : DMRG
   Ulf Ekstrom                                   : XCFun DFT Library
   Mihaly Kallay                                 : mrcc  (arbitrary order and MRCC methods)
   Jiri Pittner, Ondrej Demel                    : Mk-CCSD
   Frank Weinhold                                : gennbo (NPA and NBO analysis)
   Christopher J. Cramer and Donald G. Truhlar   : smd solvation model
   Lars Goerigk                                  : TD-DFT with DH, B97 family of functionals
   V. Asgeirsson, H. Jonsson                     : NEB implementation
   FAccTs GmbH                                   : IRC, NEB, NEB-TS, DLPNO-Multilevel, CI-OPT
                                                   MM, QMMM, 2- and 3-layer-ONIOM, Crystal-QMMM,
                                                   LR-CPCM, SF, NACMEs, symmetry and pop. for TD-DFT,
                                                   nearIR, NL-DFT gradient (VV10), updates on ESD,
                                                   ML-optimized integration grids
   S Lehtola, MJT Oliveira, MAL Marques          : LibXC Library
   Liviu Ungur et al                             : ANISO software


 Your calculation uses the libint2 library for the computation of 2-el integrals
 For citations please refer to: http://libint.valeyev.net

 Your ORCA version has been built with support for libXC version: 5.1.0
 For citations please refer to: https://tddft.org/programs/libxc/

 This ORCA versions uses:
   CBLAS   interface :  Fast vector & matrix operations
   LAPACKE interface :  Fast linear algebra routines
   SCALAPACK package :  Parallel linear algebra routines
   Shared memory     :  Shared parallel matrices
   BLAS/LAPACK       :  OpenBLAS 0.3.15  USE64BITINT DYNAMIC_ARCH NO_AFFINITY SkylakeX SINGLE_THREADED
        Core in use  :  SkylakeX
   Copyright (c) 2011-2014, The OpenBLAS Project




***************************************
The coordinates will be read from file: 4_deprot_aq_1.xyz
***************************************


Your calculation utilizes the atom-pairwise dispersion correction
based on tight binding partial charges (D4)
Cite in your paper:
E.Caldeweyher, C.Bannwarth, S.Grimme, J.Chem.Phys., (2017), 147, 034112.
E.Caldeweyher, S.Ehlert, A.Hansen, H.Neugebauer, S.Grimme, J.Chem.Phys., (2018), in progress.
   

XCFun DFT library Copyright 2009-2010 Ulf Ekstrom and contributors.
See http://admol.org/xcfun for more information.
This is free software; see the source code for copying conditions.
There is ABSOLUTELY NO WARRANTY; not even for MERCHANTABILITY or FITNESS FOR A PARTICULAR PURPOSE.
For details see the documentation.
Scientific users of this library should cite U. Ekstrom, L. Visscher, R. Bast, A. J. Thorvaldsen and K. Ruud;
J.Chem.Theor.Comp. 2010, DOI: 10.1021/ct100117s
XCFun Version 0.99 

================================================================================

----- Orbital basis set information -----
Your calculation utilizes the basis: def2-SVP
   F. Weigend and R. Ahlrichs, Phys. Chem. Chem. Phys. 7, 3297 (2005).

----- AuxJ basis set information -----
Your calculation utilizes the auxiliary basis: def2/J
   F. Weigend, Phys. Chem. Chem. Phys. 8, 1057 (2006).

================================================================================
                                        WARNINGS
                       Please study these warnings very carefully!
================================================================================


WARNING: Geometry Optimization
  ===> : Switching off AutoStart
         For restart on a previous wavefunction, please use MOREAD

INFO   : the flag for use of the SHARK integral package has been found!

================================================================================
                                       INPUT FILE
================================================================================
NAME = 4_deprot_aq_1.inp
|  1> # ORCA 5.0.4 - /users/bwb16179/postgrad/2024_03/DFT_Crest_Conformers/Opt/deprot/4_deprot_aq_1.inp # write input file
|  2> # Basic Mode
|  3> #
|  4> ! Opt Freq wB97X Def2-SVP D4 SlowConv TightSCF Defgrid2 Def2/J RIJCOSX CPCM(Water)
|  5> 
|  6> 
|  7> 
|  8> %maxcore 4500
|  9> 
| 10> %geom
| 11> Maxiter 150
| 12> END
| 13> 
| 14> * xyzfile 0 1 4_deprot_aq_1.xyz
| 15> 
| 16>                          ****END OF INPUT****
================================================================================

                       *****************************
                       * Geometry Optimization Run *
                       *****************************

Geometry optimization settings:
Update method            Update   .... BFGS
Choice of coordinates    CoordSys .... Z-matrix Internals
Initial Hessian          InHess   .... Almoef's Model

Convergence Tolerances:
Energy Change            TolE     ....  5.0000e-06 Eh
Max. Gradient            TolMAXG  ....  3.0000e-04 Eh/bohr
RMS Gradient             TolRMSG  ....  1.0000e-04 Eh/bohr
Max. Displacement        TolMAXD  ....  4.0000e-03 bohr
RMS Displacement         TolRMSD  ....  2.0000e-03 bohr
Strict Convergence                ....  False
------------------------------------------------------------------------------
                        ORCA OPTIMIZATION COORDINATE SETUP
------------------------------------------------------------------------------

The optimization will be done in new redundant internal coordinates
Making redundant internal coordinates   ...  (new redundants) done
Evaluating the initial hessian          ...  (Almloef) done
Evaluating the coordinates              ...  done
Calculating the B-matrix                .... done
Calculating the G-matrix                .... done
Diagonalizing the G-matrix              .... done
Small eigenvalue found = 2.064e-02
Small eigenvalue found = 2.084e-02
The first mode is                       ....   65
The number of degrees of freedom        ....   75

    -----------------------------------------------------------------
                    Redundant Internal Coordinates


    -----------------------------------------------------------------
         Definition                    Initial Value    Approx d2E/dq
    -----------------------------------------------------------------
      1. B(C   1,N   0)                  1.3573         0.631013   
      2. B(N   2,C   1)                  1.3573         0.631011   
      3. B(C   3,N   2)                  1.3731         0.595505   
      4. B(C   4,C   3)                  1.3517         0.719214   
      5. B(C   4,N   0)                  1.3731         0.595507   
      6. B(C   5,N   0)                  1.4425         0.461417   
      7. B(C   6,N   2)                  1.4425         0.461414   
      8. B(C   7,C   5)                  1.5293         0.374511   
      9. B(H   8,C   5)                  1.0962         0.352049   
     10. B(C   9,C   5)                  1.5293         0.374490   
     11. B(H  10,C   6)                  1.0962         0.352050   
     12. B(C  11,C   6)                  1.5293         0.374503   
     13. B(C  12,C   6)                  1.5293         0.374491   
     14. B(H  13,C   3)                  1.0710         0.386113   
     15. B(H  14,C   4)                  1.0710         0.386117   
     16. B(H  15,C   9)                  1.0880         0.362791   
     17. B(H  16,C   9)                  1.0868         0.364411   
     18. B(H  17,C   9)                  1.0877         0.363199   
     19. B(H  18,C   7)                  1.0880         0.362794   
     20. B(H  19,C   7)                  1.0877         0.363189   
     21. B(H  20,C   7)                  1.0868         0.364410   
     22. B(H  21,C  12)                  1.0877         0.363186   
     23. B(H  22,C  12)                  1.0868         0.364407   
     24. B(H  23,C  12)                  1.0880         0.362788   
     25. B(H  24,C  11)                  1.0880         0.362787   
     26. B(H  25,C  11)                  1.0868         0.364401   
     27. B(H  26,C  11)                  1.0877         0.363185   
     28. A(C   1,N   0,C   5)          122.9755         0.407726   
     29. A(C   4,N   0,C   5)          125.2431         0.403575   
     30. A(C   1,N   0,C   4)          111.7814         0.426671   
     31. A(N   0,C   1,N   2)          103.4565         0.431126   
     32. A(C   1,N   2,C   6)          122.9754         0.407725   
     33. A(C   1,N   2,C   3)          111.7816         0.426671   
     34. A(C   3,N   2,C   6)          125.2430         0.403575   
     35. A(N   2,C   3,C   4)          106.4901         0.439706   
     36. A(C   4,C   3,H  13)          130.1227         0.366269   
     37. A(N   2,C   3,H  13)          123.3872         0.352487   
     38. A(N   0,C   4,H  14)          123.3878         0.352488   
     39. A(C   3,C   4,H  14)          130.1217         0.366270   
     40. A(N   0,C   4,C   3)          106.4905         0.439706   
     41. A(H   8,C   5,C   9)          109.2136         0.323247   
     42. A(C   7,C   5,C   9)          111.2926         0.363659   
     43. A(N   0,C   5,C   9)          110.7866         0.374574   
     44. A(C   7,C   5,H   8)          109.2152         0.323250   
     45. A(N   0,C   5,H   8)          105.3489         0.332559   
     46. A(N   0,C   5,C   7)          110.7918         0.374577   
     47. A(H  10,C   6,C  11)          109.2133         0.323249   
     48. A(N   2,C   6,C  11)          110.7973         0.374575   
     49. A(C  11,C   6,C  12)          111.2909         0.363658   
     50. A(H  10,C   6,C  12)          109.2143         0.323248   
     51. A(N   2,C   6,C  12)          110.7844         0.374574   
     52. A(N   2,C   6,H  10)          105.3486         0.332559   
     53. A(H  19,C   7,H  20)          108.7056         0.291775   
     54. A(H  18,C   7,H  20)          108.5109         0.291725   
     55. A(C   5,C   7,H  20)          110.0827         0.325087   
     56. A(H  18,C   7,H  19)          108.6103         0.291571   
     57. A(C   5,C   7,H  19)          110.1096         0.324908   
     58. A(C   5,C   7,H  18)          110.7685         0.324850   
     59. A(H  16,C   9,H  17)          108.7060         0.291777   
     60. A(H  15,C   9,H  17)          108.6082         0.291572   
     61. A(C   5,C   9,H  17)          110.1080         0.324906   
     62. A(H  15,C   9,H  16)          108.5139         0.291725   
     63. A(C   5,C   9,H  16)          110.0841         0.325084   
     64. A(C   5,C   9,H  15)          110.7673         0.324846   
     65. A(H  25,C  11,H  26)          108.7053         0.291774   
     66. A(H  24,C  11,H  26)          108.6105         0.291570   
     67. A(H  24,C  11,H  25)          108.5121         0.291723   
     68. A(C   6,C  11,H  25)          110.0821         0.325085   
     69. A(C   6,C  11,H  24)          110.7696         0.324848   
     70. A(C   6,C  11,H  26)          110.1079         0.324906   
     71. A(H  22,C  12,H  23)          108.5127         0.291724   
     72. A(H  21,C  12,H  23)          108.6082         0.291570   
     73. A(C   6,C  12,H  23)          110.7654         0.324846   
     74. A(H  21,C  12,H  22)          108.7070         0.291775   
     75. A(C   6,C  12,H  22)          110.0875         0.325084   
     76. A(C   6,C  12,H  21)          110.1068         0.324905   
     77. D(N   2,C   1,N   0,C   4)      0.0002         0.029290   
     78. D(N   2,C   1,N   0,C   5)    179.9904         0.029290   
     79. D(C   3,N   2,C   1,N   0)     -0.0023         0.029290   
     80. D(C   6,N   2,C   1,N   0)   -179.9626         0.029290   
     81. D(H  13,C   3,N   2,C   6)     -0.0480         0.028545   
     82. D(C   4,C   3,N   2,C   1)      0.0035         0.028545   
     83. D(H  13,C   3,N   2,C   1)    179.9929         0.028545   
     84. D(C   4,C   3,N   2,C   6)    179.9627         0.028545   
     85. D(H  14,C   4,C   3,N   2)   -179.9983         0.036603   
     86. D(H  14,C   4,N   0,C   5)      0.0075         0.028545   
     87. D(N   0,C   4,C   3,N   2)     -0.0032         0.036603   
     88. D(N   0,C   4,C   3,H  13)   -179.9915         0.036603   
     89. D(C   3,C   4,N   0,C   5)   -179.9880         0.028545   
     90. D(C   3,C   4,N   0,C   1)      0.0019         0.028545   
     91. D(H  14,C   4,C   3,H  13)      0.0134         0.036603   
     92. D(H  14,C   4,N   0,C   1)    179.9974         0.028545   
     93. D(H   8,C   5,N   0,C   4)   -179.9222         0.018177   
     94. D(C   9,C   5,N   0,C   4)     62.0943         0.018177   
     95. D(H   8,C   5,N   0,C   1)      0.0889         0.018177   
     96. D(C   9,C   5,N   0,C   1)   -117.8945         0.018177   
     97. D(C   7,C   5,N   0,C   4)    -61.9341         0.018177   
     98. D(C   7,C   5,N   0,C   1)    118.0770         0.018177   
     99. D(C  12,C   6,N   2,C   3)    -61.9969         0.018176   
    100. D(C  11,C   6,N   2,C   3)     62.0316         0.018176   
    101. D(C  11,C   6,N   2,C   1)   -118.0136         0.018176   
    102. D(C  12,C   6,N   2,C   1)    117.9579         0.018176   
    103. D(H  10,C   6,N   2,C   3)   -179.9800         0.018176   
    104. D(H  10,C   6,N   2,C   1)     -0.0252         0.018176   
    105. D(H  18,C   7,C   5,H   8)   -179.3762         0.011196   
    106. D(H  18,C   7,C   5,N   0)     65.0179         0.011196   
    107. D(H  18,C   7,C   5,C   9)    -58.7207         0.011196   
    108. D(H  20,C   7,C   5,C   9)     61.2913         0.011196   
    109. D(H  20,C   7,C   5,H   8)    -59.3642         0.011196   
    110. D(H  20,C   7,C   5,N   0)   -174.9701         0.011196   
    111. D(H  19,C   7,C   5,C   9)   -178.8741         0.011196   
    112. D(H  19,C   7,C   5,H   8)     60.4704         0.011196   
    113. D(H  19,C   7,C   5,N   0)    -55.1355         0.011196   
    114. D(H  17,C   9,C   5,H   8)    -60.3487         0.011195   
    115. D(H  17,C   9,C   5,C   7)    178.9948         0.011195   
    116. D(H  17,C   9,C   5,N   0)     55.2533         0.011195   
    117. D(H  16,C   9,C   5,H   8)     59.4863         0.011195   
    118. D(H  16,C   9,C   5,C   7)    -61.1701         0.011195   
    119. D(H  16,C   9,C   5,N   0)    175.0883         0.011195   
    120. D(H  15,C   9,C   5,H   8)    179.5022         0.011195   
    121. D(H  15,C   9,C   5,C   7)     58.8457         0.011195   
    122. D(H  15,C   9,C   5,N   0)    -64.8958         0.011195   
    123. D(H  26,C  11,C   6,H  10)    -60.4564         0.011196   
    124. D(H  26,C  11,C   6,N   2)     55.1510         0.011196   
    125. D(H  25,C  11,C   6,C  12)    -61.2777         0.011196   
    126. D(H  25,C  11,C   6,H  10)     59.3764         0.011196   
    127. D(H  25,C  11,C   6,N   2)    174.9838         0.011196   
    128. D(H  24,C  11,C   6,C  12)     58.7361         0.011196   
    129. D(H  24,C  11,C   6,H  10)    179.3902         0.011196   
    130. D(H  26,C  11,C   6,C  12)    178.8895         0.011196   
    131. D(H  24,C  11,C   6,N   2)    -65.0024         0.011196   
    132. D(H  23,C  12,C   6,N   2)     64.9464         0.011195   
    133. D(H  22,C  12,C   6,C  11)     61.2160         0.011195   
    134. D(H  22,C  12,C   6,H  10)    -59.4375         0.011195   
    135. D(H  22,C  12,C   6,N   2)   -175.0382         0.011195   
    136. D(H  21,C  12,C   6,C  11)   -178.9464         0.011195   
    137. D(H  21,C  12,C   6,H  10)     60.4001         0.011195   
    138. D(H  23,C  12,C   6,H  10)   -179.4529         0.011195   
    139. D(H  21,C  12,C   6,N   2)    -55.2006         0.011195   
    140. D(H  23,C  12,C   6,C  11)    -58.7994         0.011195   
    -----------------------------------------------------------------

Number of atoms                         .... 27
Number of degrees of freedom            .... 140

         *************************************************************
         *                GEOMETRY OPTIMIZATION CYCLE   1            *
         *************************************************************
---------------------------------
CARTESIAN COORDINATES (ANGSTROEM)
---------------------------------
  N     -1.065603    0.000402    0.083607
  C     -0.000005   -0.001384    0.924306
  N      1.065588    0.000436    0.083599
  C      0.675835    0.003202   -1.232990
  C     -0.675856    0.003226   -1.232983
  C     -2.431539   -0.000817    0.547355
  C      2.431527   -0.001327    0.547341
  C     -3.162072    1.261613    0.087563
  H     -2.366454   -0.001659    1.641576
  C     -3.160369   -1.263518    0.085556
  H      2.366440   -0.003746    1.641558
  C      3.162072    1.261782    0.089418
  C      3.160415   -1.263321    0.083709
  H      1.366021    0.005072   -2.051959
  H     -1.366034    0.004930   -2.051955
  H     -3.246941   -1.284210   -0.998769
  H     -4.159404   -1.294893    0.512163
  H     -2.615772   -2.148380    0.407199
  H     -3.250624    1.282855   -0.996590
  H     -2.617570    2.146704    0.408762
  H     -4.160379    1.292002    0.515944
  H      2.615364   -2.148658    0.403300
  H      4.159158   -1.295753    0.510927
  H      3.247733   -1.281982   -1.000596
  H      3.250437    1.284757   -0.994720
  H      4.160451    1.291423    0.517697
  H      2.617671    2.146387    0.412134

----------------------------
CARTESIAN COORDINATES (A.U.)
----------------------------
  NO LB      ZA    FRAG     MASS         X           Y           Z
   0 N     7.0000    0    14.007   -2.013698    0.000759    0.157994
   1 C     6.0000    0    12.011   -0.000009   -0.002616    1.746685
   2 N     7.0000    0    14.007    2.013669    0.000824    0.157980
   3 C     6.0000    0    12.011    1.277144    0.006051   -2.330014
   4 C     6.0000    0    12.011   -1.277182    0.006097   -2.330000
   5 C     6.0000    0    12.011   -4.594943   -0.001545    1.034352
   6 C     6.0000    0    12.011    4.594921   -0.002508    1.034325
   7 C     6.0000    0    12.011   -5.975449    2.384103    0.165471
   8 H     1.0000    0     1.008   -4.471950   -0.003135    3.102129
   9 C     6.0000    0    12.011   -5.972231   -2.387702    0.161678
  10 H     1.0000    0     1.008    4.471924   -0.007079    3.102096
  11 C     6.0000    0    12.011    5.975450    2.384422    0.168975
  12 C     6.0000    0    12.011    5.972319   -2.387330    0.158187
  13 H     1.0000    0     1.008    2.581406    0.009584   -3.877641
  14 H     1.0000    0     1.008   -2.581429    0.009317   -3.877633
  15 H     1.0000    0     1.008   -6.135830   -2.426805   -1.887401
  16 H     1.0000    0     1.008   -7.860134   -2.446993    0.967848
  17 H     1.0000    0     1.008   -4.943093   -4.059850    0.769494
  18 H     1.0000    0     1.008   -6.142789    2.424244   -1.883282
  19 H     1.0000    0     1.008   -4.946491    4.056683    0.772448
  20 H     1.0000    0     1.008   -7.861976    2.441529    0.974993
  21 H     1.0000    0     1.008    4.942322   -4.060375    0.762127
  22 H     1.0000    0     1.008    7.859670   -2.448618    0.965513
  23 H     1.0000    0     1.008    6.137326   -2.422596   -1.890853
  24 H     1.0000    0     1.008    6.142436    2.427839   -1.879749
  25 H     1.0000    0     1.008    7.862114    2.440437    0.978306
  26 H     1.0000    0     1.008    4.946681    4.056083    0.778821

--------------------------------
INTERNAL COORDINATES (ANGSTROEM)
--------------------------------
 N      0   0   0     0.000000000000     0.00000000     0.00000000
 C      1   0   0     1.357305087269     0.00000000     0.00000000
 N      2   1   0     1.357305625510   103.45645169     0.00000000
 C      3   2   1     1.373070447937   111.78157402     0.00000000
 C      4   3   2     1.351690860243   106.49009929     0.00000000
 C      1   2   3     1.442513366569   122.97551507   179.99041312
 C      3   2   1     1.442515320716   122.97536327   180.03744061
 C      6   1   2     1.529318923723   110.79182217   118.07703769
 H      6   1   2     1.096154824059   105.34889725     0.08893885
 C      6   1   2     1.529334238564   110.78663892   242.10545560
 H      7   3   2     1.096154044283   105.34856096   359.97484539
 C      7   3   2     1.529324604506   110.79727010   241.98643585
 C      7   3   2     1.529332864772   110.78444038   117.95790864
 H      4   3   2     1.071013509917   123.38716236   179.99287518
 H      5   4   3     1.071010689841   130.12171706   180.00173749
 H     10   6   1     1.087973063694   110.76729887   295.10419917
 H     10   6   1     1.086760601420   110.08413400   175.08831198
 H     10   6   1     1.087667768326   110.10798648    55.25328135
 H      8   6   1     1.087971178957   110.76852473    65.01794404
 H      8   6   1     1.087675045651   110.10958230   304.86450623
 H      8   6   1     1.086761597175   110.08273728   185.02990502
 H     13   7   3     1.087677079943   110.10681424   304.79938912
 H     13   7   3     1.086763565559   110.08745734   184.96175565
 H     13   7   3     1.087975421641   110.76538960    64.94638626
 H     12   7   3     1.087976057469   110.76963755   294.99763577
 H     12   7   3     1.086767670357   110.08211875   174.98379111
 H     12   7   3     1.087678259858   110.10792319    55.15100019

---------------------------
INTERNAL COORDINATES (A.U.)
---------------------------
 N      0   0   0     0.000000000000     0.00000000     0.00000000
 C      1   0   0     2.564934895117     0.00000000     0.00000000
 N      2   1   0     2.564935912244   103.45645169     0.00000000
 C      3   2   1     2.594727109182   111.78157402     0.00000000
 C      4   3   2     2.554325543584   106.49009929     0.00000000
 C      1   2   3     2.725955207336   122.97551507   179.99041312
 C      3   2   1     2.725958900140   122.97536327   180.03744061
 C      6   1   2     2.889993937259   110.79182217   118.07703769
 H      6   1   2     2.071432417849   105.34889725     0.08893885
 C      6   1   2     2.890022878115   110.78663892   242.10545560
 H      7   3   2     2.071430944286   105.34856096   359.97484539
 C      7   3   2     2.890004672384   110.79727010   241.98643585
 C      7   3   2     2.890020282024   110.78444038   117.95790864
 H      4   3   2     2.023922219473   123.38716236   179.99287518
 H      5   4   3     2.023916890302   130.12171706   180.00173749
 H     10   6   1     2.055971131465   110.76729887   295.10419917
 H     10   6   1     2.053679909820   110.08413400   175.08831198
 H     10   6   1     2.055394206829   110.10798648    55.25328135
 H      8   6   1     2.055967569829   110.76852473    65.01794404
 H      8   6   1     2.055407958980   110.10958230   304.86450623
 H      8   6   1     2.053681791523   110.08273728   185.02990502
 H     13   7   3     2.055411803236   110.10681424   304.79938912
 H     13   7   3     2.053685511230   110.08745734   184.96175565
 H     13   7   3     2.055975587338   110.76538960    64.94638626
 H     12   7   3     2.055976788880   110.76963755   294.99763577
 H     12   7   3     2.053693268174   110.08211875   174.98379111
 H     12   7   3     2.055414032951   110.10792319    55.15100019

---------------------
BASIS SET INFORMATION
---------------------
There are 3 groups of distinct atoms

 Group   1 Type N   : 7s4p1d contracted to 3s2p1d pattern {511/31/1}
 Group   2 Type C   : 7s4p1d contracted to 3s2p1d pattern {511/31/1}
 Group   3 Type H   : 4s1p contracted to 2s1p pattern {31/1}

Atom   0N    basis set group =>   1
Atom   1C    basis set group =>   2
Atom   2N    basis set group =>   1
Atom   3C    basis set group =>   2
Atom   4C    basis set group =>   2
Atom   5C    basis set group =>   2
Atom   6C    basis set group =>   2
Atom   7C    basis set group =>   2
Atom   8H    basis set group =>   3
Atom   9C    basis set group =>   2
Atom  10H    basis set group =>   3
Atom  11C    basis set group =>   2
Atom  12C    basis set group =>   2
Atom  13H    basis set group =>   3
Atom  14H    basis set group =>   3
Atom  15H    basis set group =>   3
Atom  16H    basis set group =>   3
Atom  17H    basis set group =>   3
Atom  18H    basis set group =>   3
Atom  19H    basis set group =>   3
Atom  20H    basis set group =>   3
Atom  21H    basis set group =>   3
Atom  22H    basis set group =>   3
Atom  23H    basis set group =>   3
Atom  24H    basis set group =>   3
Atom  25H    basis set group =>   3
Atom  26H    basis set group =>   3
---------------------------------
AUXILIARY/J BASIS SET INFORMATION
---------------------------------
There are 3 groups of distinct atoms

 Group   1 Type N   : 12s5p4d2f1g contracted to 6s4p3d1f1g pattern {711111/2111/211/2/1}
 Group   2 Type C   : 12s5p4d2f1g contracted to 6s4p3d1f1g pattern {711111/2111/211/2/1}
 Group   3 Type H   : 5s2p1d contracted to 3s1p1d pattern {311/2/1}

Atom   0N    basis set group =>   1
Atom   1C    basis set group =>   2
Atom   2N    basis set group =>   1
Atom   3C    basis set group =>   2
Atom   4C    basis set group =>   2
Atom   5C    basis set group =>   2
Atom   6C    basis set group =>   2
Atom   7C    basis set group =>   2
Atom   8H    basis set group =>   3
Atom   9C    basis set group =>   2
Atom  10H    basis set group =>   3
Atom  11C    basis set group =>   2
Atom  12C    basis set group =>   2
Atom  13H    basis set group =>   3
Atom  14H    basis set group =>   3
Atom  15H    basis set group =>   3
Atom  16H    basis set group =>   3
Atom  17H    basis set group =>   3
Atom  18H    basis set group =>   3
Atom  19H    basis set group =>   3
Atom  20H    basis set group =>   3
Atom  21H    basis set group =>   3
Atom  22H    basis set group =>   3
Atom  23H    basis set group =>   3
Atom  24H    basis set group =>   3
Atom  25H    basis set group =>   3
Atom  26H    basis set group =>   3
------------------------------------------------------------------------------
                           ORCA GTO INTEGRAL CALCULATION
                           -- RI-GTO INTEGRALS CHOSEN --
------------------------------------------------------------------------------
------------------------------------------------------------------------------
                   ___                                                        
                  /   \      - P O W E R E D   B Y -                         
                 /     \                                                     
                 |  |  |   _    _      __       _____    __    __             
                 |  |  |  | |  | |    /  \     |  _  \  |  |  /  |          
                  \  \/   | |  | |   /    \    | | | |  |  | /  /          
                 / \  \   | |__| |  /  /\  \   | |_| |  |  |/  /          
                |  |  |   |  __  | /  /__\  \  |    /   |      \           
                |  |  |   | |  | | |   __   |  |    \   |  |\   \          
                \     /   | |  | | |  |  |  |  | |\  \  |  | \   \       
                 \___/    |_|  |_| |__|  |__|  |_| \__\ |__|  \__/        
                                                                              
                      - O R C A' S   B I G   F R I E N D -                    
                                      &                                       
                       - I N T E G R A L  F E E D E R -                       
                                                                              
 v1 FN, 2020, v2 2021                                                         
------------------------------------------------------------------------------


Reading SHARK input file 4_deprot_aq_1.SHARKINP.tmp ... ok
----------------------
SHARK INTEGRAL PACKAGE
----------------------

Number of atoms                             ...     27
Number of basis functions                   ...    234
Number of shells                            ...    114
Maximum angular momentum                    ...      2
Integral batch strategy                     ... SHARK/LIBINT Hybrid
RI-J (if used) integral strategy            ... SPLIT-RIJ (Revised 2003 algorithm where possible)
Printlevel                                  ...      1
Contraction scheme used                     ... SEGMENTED contraction
Coulomb Range Separation                    ... NOT USED
Exchange Range Separation                   ... Long Range
   Mu parameter                             ...  0.300000
   Scaling (regular/separated)              ...  0.157706  0.842294
Finite Nucleus Model                        ... NOT USED
Auxiliary Coulomb fitting basis             ... AVAILABLE
   # of basis functions in Aux-J            ...    715
   # of shells in Aux-J                     ...    245
   Maximum angular momentum in Aux-J        ...      4
Auxiliary J/K fitting basis                 ... NOT available
Auxiliary Correlation fitting basis         ... NOT available
Auxiliary 'external' fitting basis          ... NOT available
Integral threshold                          ...     2.500000e-11
Primitive cut-off                           ...     2.500000e-12
Primitive pair pre-selection threshold      ...     2.500000e-12

Calculating pre-screening integrals         ... done (  0.0 sec) Dimension = 114
Organizing shell pair data                  ... done (  0.0 sec)
Shell pair information
Total number of shell pairs                 ...      6555
Shell pairs after pre-screening             ...      5687
Total number of primitive shell pairs       ...     22769
Primitive shell pairs kept                  ...     14074
          la=0 lb=0:   1921 shell pairs
          la=1 lb=0:   2138 shell pairs
          la=1 lb=1:    614 shell pairs
          la=2 lb=0:    613 shell pairs
          la=2 lb=1:    344 shell pairs
          la=2 lb=2:     57 shell pairs

Calculating one electron integrals          ... done (  0.0 sec)
Calculating RI/J V-Matrix + Cholesky decomp.... done (  0.0 sec)
Calculating Nuclear repulsion               ... done (  0.0 sec) ENN=    635.216138291743 Eh

SHARK setup successfully completed in   0.3 seconds

Maximum memory used throughout the entire GTOINT-calculation: 35.4 MB
-------------------------------------------------------------------------------
                                 ORCA SCF
-------------------------------------------------------------------------------

------------
SCF SETTINGS
------------
Hamiltonian:
 Density Functional     Method          .... DFT(GTOs)
 Exchange Functional    Exchange        .... WB97X
 Correlation Functional Correlation     .... WB97X
 Gradients option       PostSCFGGA      .... off
 Hybrid DFT is turned on
   Fraction HF Exchange ScalHFX         ....  0.157706
   Scaling of DF-GGA-X  ScalDFX         ....  0.000000
   Scaling of DF-GGA-C  ScalDFC         ....  1.000000
   Scaling of DF-LDA-C  ScalLDAC        ....  1.000000
   Perturbative correction              ....  0.000000
   Density functional embedding theory  .... OFF
 Long-range corrected/Screened/Range-Separated Hybrid DFT is turned on
   Amount of maximum screened exact exchange              ....  0.842294
   Range separation parameter mu (erf(mu*r12)/r12)        ....  0.300000
 RI-approximation to the Coulomb term is turned on
   Number of AuxJ basis functions       .... 715
   RIJ-COSX (HFX calculated with COS-X)).... on


General Settings:
 Integral files         IntName         .... 4_deprot_aq_1
 Hartree-Fock type      HFTyp           .... RHF
 Total Charge           Charge          ....    0
 Multiplicity           Mult            ....    1
 Number of Electrons    NEL             ....   84
 Basis Dimension        Dim             ....  234
 Nuclear Repulsion      ENuc            ....    635.2161382917 Eh

Convergence Acceleration:
 DIIS                   CNVDIIS         .... on
   Start iteration      DIISMaxIt       ....     0
   Startup error        DIISStart       ....  0.200000
   # of expansion vecs  DIISMaxEq       ....     5
   Bias factor          DIISBfac        ....   1.050
   Max. coefficient     DIISMaxC        ....  10.000
 Trust-Rad. Augm. Hess. CNVTRAH         .... auto
   Auto Start mean grad. ratio tolernc. ....  1.125000
   Auto Start start iteration           ....    20
   Auto Start num. interpolation iter.  ....    10
   Max. Number of Micro iterations      ....    16
   Max. Number of Macro iterations      .... Maxiter - #DIIS iter
   Number of Davidson start vectors     ....     2
   Converg. threshold I  (grad. norm)   ....   1.000e-05
   Converg. threshold II (energy diff.) ....   1.000e-08
   Grad. Scal. Fac. for Micro threshold ....   0.100
   Minimum threshold for Micro iter.    ....   0.010
   NR start threshold (gradient norm)   ....   0.001
   Initial trust radius                 ....   0.400
   Minimum AH scaling param. (alpha)    ....   1.000
   Maximum AH scaling param. (alpha)    .... 1000.000
   Orbital update algorithm             .... Taylor
   White noise on init. David. guess    .... on
   Maximum white noise                  ....   0.010
   Quad. conv. algorithm                .... NR
 SOSCF                  CNVSOSCF        .... on
   Start iteration      SOSCFMaxIt      ....   150
   Startup grad/error   SOSCFStart      ....  0.001000
 Level Shifting         CNVShift        .... on
   Level shift para.    LevelShift      ....    0.2500
   Turn off err/grad.   ShiftErr        ....    0.0000
 Zerner damping         CNVZerner       .... off
 Static damping         CNVDamp         .... on
   Fraction old density DampFac         ....    0.8500
   Max. Damping (<1)    DampMax         ....    0.9800
   Min. Damping (>=0)   DampMin         ....    0.0000
   Turn off err/grad.   DampErr         ....    0.0300
 Fernandez-Rico         CNVRico         .... off

SCF Procedure:
 Maximum # iterations   MaxIter         ....   125
 SCF integral mode      SCFMode         .... Direct
   Integral package                     .... SHARK and LIBINT hybrid scheme
 Reset frequency        DirectResetFreq ....    20
 Integral Threshold     Thresh          ....  2.500e-11 Eh
 Primitive CutOff       TCut            ....  2.500e-12 Eh

Convergence Tolerance:
 Convergence Check Mode ConvCheckMode   .... Total+1el-Energy
 Convergence forced     ConvForced      .... 0
 Energy Change          TolE            ....  1.000e-08 Eh
 1-El. energy change                    ....  1.000e-05 Eh
 Orbital Gradient       TolG            ....  1.000e-05
 Orbital Rotation angle TolX            ....  1.000e-05
 DIIS Error             TolErr          ....  5.000e-07


Diagonalization of the overlap matrix:
Smallest eigenvalue                        ... 1.115e-03
Time for diagonalization                   ...    0.009 sec
Threshold for overlap eigenvalues          ... 1.000e-08
Number of eigenvalues below threshold      ... 0
Time for construction of square roots      ...    0.004 sec
Total time needed                          ...    0.014 sec

Time for model grid setup =    0.449 sec

------------------------------
INITIAL GUESS: MODEL POTENTIAL
------------------------------
Loading Hartree-Fock densities                     ... done
Calculating cut-offs                               ... done
Initializing the effective Hamiltonian             ... done
Setting up the integral package (SHARK)            ... done
Starting the Coulomb interaction                   ... done (   0.5 sec)
Reading the grid                                   ... done
Mapping shells                                     ... done
Starting the XC term evaluation                    ... done (   0.5 sec)
  promolecular density results
     # of electrons  =     83.983890899
     EX              =    -63.897935461
     EC              =     -2.781868203
     EX+EC           =    -66.679803664
Transforming the Hamiltonian                       ... done (   0.0 sec)
Diagonalizing the Hamiltonian                      ... done (   0.0 sec)
Back transforming the eigenvectors                 ... done (   0.0 sec)
Now organizing SCF variables                       ... done
                      ------------------
                      INITIAL GUESS DONE (   1.5 sec)
                      ------------------
-------------------
DFT GRID GENERATION
-------------------

General Integration Accuracy     IntAcc      ... 4.388
Radial Grid Type                 RadialGrid  ... OptM3 with GC (2021)
Angular Grid (max. ang.)         AngularGrid ... 4 (Lebedev-302)
Angular grid pruning method      GridPruning ... 4 (adaptive)
Weight generation scheme         WeightScheme... Becke
Basis function cutoff            BFCut       ... 1.0000e-11
Integration weight cutoff        WCut        ... 1.0000e-14
Angular grids for H and He will be reduced by one unit
Partially contracted basis set               ... off
Rotationally invariant grid construction     ... off

Total number of grid points                  ...   116952
Total number of batches                      ...     1843
Average number of points per batch           ...       63
Average number of grid points per atom       ...     4332
Time for grid setup =    1.665 sec

--------------------
COSX GRID GENERATION
--------------------

GRIDX 1
-------
General Integration Accuracy     IntAcc      ... 3.816
Radial Grid Type                 RadialGrid  ... OptM3 with GC (2021)
Angular Grid (max. ang.)         AngularGrid ... 1 (Lebedev-50)
Angular grid pruning method      GridPruning ... 4 (adaptive)
Weight generation scheme         WeightScheme... Becke
Basis function cutoff            BFCut       ... 1.0000e-11
Integration weight cutoff        WCut        ... 1.0000e-14
Angular grids for H and He will be reduced by one unit
Partially contracted basis set               ... on
Rotationally invariant grid construction     ... off

Total number of grid points                  ...    14931
Total number of batches                      ...      249
Average number of points per batch           ...       59
Average number of grid points per atom       ...      553
UseSFitting                                  ... on

GRIDX 2
-------
General Integration Accuracy     IntAcc      ... 4.020
Radial Grid Type                 RadialGrid  ... OptM3 with GC (2021)
Angular Grid (max. ang.)         AngularGrid ... 2 (Lebedev-110)
Angular grid pruning method      GridPruning ... 4 (adaptive)
Weight generation scheme         WeightScheme... Becke
Basis function cutoff            BFCut       ... 1.0000e-11
Integration weight cutoff        WCut        ... 1.0000e-14
Angular grids for H and He will be reduced by one unit
Partially contracted basis set               ... on
Rotationally invariant grid construction     ... off

Total number of grid points                  ...    31400
Total number of batches                      ...      502
Average number of points per batch           ...       62
Average number of grid points per atom       ...     1163
UseSFitting                                  ... on

GRIDX 3
-------
General Integration Accuracy     IntAcc      ... 4.338
Radial Grid Type                 RadialGrid  ... OptM3 with GC (2021)
Angular Grid (max. ang.)         AngularGrid ... 3 (Lebedev-194)
Angular grid pruning method      GridPruning ... 4 (adaptive)
Weight generation scheme         WeightScheme... Becke
Basis function cutoff            BFCut       ... 1.0000e-11
Integration weight cutoff        WCut        ... 1.0000e-14
Angular grids for H and He will be reduced by one unit
Partially contracted basis set               ... on
Rotationally invariant grid construction     ... off

Total number of grid points                  ...    68449
Total number of batches                      ...     1082
Average number of points per batch           ...       63
Average number of grid points per atom       ...     2535
UseSFitting                                  ... on

Time for X-Grid setup             =    2.170 sec


--------------------
CPCM SOLVATION MODEL
--------------------
CPCM parameters:
  Epsilon                                         ...      80.4000
  Refrac                                          ...       1.3300
  Rsolv                                           ...       1.3000
  Surface type                                    ... GAUSSIAN VDW
  Epsilon function type                           ...         CPCM
Radii:
 Radius for N  used is    3.5149 Bohr (=   1.8600 Ang.)
 Radius for C  used is    3.8550 Bohr (=   2.0400 Ang.)
 Radius for H  used is    2.4944 Bohr (=   1.3200 Ang.)
Calculating surface                               ...        done! (  0.0s)
GEPOL surface points                              ...         1448
GEPOL Volume                                      ...    1429.1900
GEPOL Surface-area                                ...     790.6720
Calculating surface distance matrix               ...        done! (  0.0s)
Performing Cholesky decomposition & store         ...        done! (  0.1s)
Overall time for CPCM initialization              ...                 0.1s
--------------
SCF ITERATIONS
--------------
ITER       Energy         Delta-E        Max-DP      RMS-DP      [F,P]     Damp
               ***  Starting incremental Fock matrix formation  ***
  0   -461.3683307311   0.000000000000 0.03718404  0.00072753  0.1534728 0.8500
  1   -461.4208026351  -0.052471904000 0.04016257  0.00069514  0.1238420 0.8500
                               ***Turning on DIIS***
  2   -461.4610347329  -0.040232097788 0.03583273  0.00057225  0.0952477 0.8500
  3   -461.4910970733  -0.030062340408 0.03008791  0.00041075  0.0723342 0.8500
  4   -461.5143468307  -0.023249757383 0.02524988  0.00031483  0.0576527 0.8500
  5   -461.5326828248  -0.018335994192 0.02136167  0.00025746  0.0477091 0.8500
  6   -461.5475796183  -0.014896793445 0.01819646  0.00021657  0.0401506 0.8500
  7   -461.5598941460  -0.012314527706 0.01561700  0.00018590  0.0340167 0.8500
  8   -461.5701810485  -0.010286902509 0.08990034  0.00106613  0.0287735 0.0000
  9   -461.6254120854  -0.055231036900 0.00177179  0.00003963  0.0011968 0.0000
                      *** Initiating the SOSCF procedure ***
                           *** Shutting down DIIS ***
                      *** Re-Reading the Fockian *** 
                      *** Removing any level shift *** 
ITER      Energy       Delta-E        Grad      Rot      Max-DP    RMS-DP
 10   -461.62543401  -0.0000219214  0.000201  0.000201  0.000681  0.000018
               *** Restarting incremental Fock matrix formation ***
 11   -461.62554069  -0.0001066881  0.000222  0.000488  0.001031  0.000013
 12   -461.62554137  -0.0000006750  0.000089  0.000207  0.000243  0.000008
 13   -461.62554159  -0.0000002199  0.000025  0.000024  0.000215  0.000002
 14   -461.62554161  -0.0000000153  0.000009  0.000024  0.000071  0.000001
 15   -461.62554160   0.0000000031  0.000003  0.000008  0.000020  0.000000
                  ***Gradient check signals convergence***
              ***Rediagonalizing the Fockian in SOSCF/NRSCF***

               *****************************************************
               *                     SUCCESS                       *
               *           SCF CONVERGED AFTER  16 CYCLES          *
               *****************************************************

Old exchange energy                            =    -21.383587881 Eh
New exchange energy                            =    -21.383633912 Eh
Exchange energy change after final integration =     -0.000046030 Eh
Total energy after final integration           =   -461.625587637 Eh
Final COS-X integration done in                =    55.826 sec

----------------
TOTAL SCF ENERGY
----------------

Total Energy       :         -461.62558764 Eh          -12561.47085 eV

Components:
Nuclear Repulsion  :          635.21613829 Eh           17285.10988 eV
Electronic Energy  :        -1096.84172593 Eh          -29846.58073 eV
One Electron Energy:        -1881.82843615 Eh          -51207.15507 eV
Two Electron Energy:          784.98671022 Eh           21360.57434 eV
Max COSX asymmetry :            0.00000312 Eh               0.00008 eV
CPCM Dielectric    :           -0.01587656 Eh              -0.43202 eV

Virial components:
Potential Energy   :         -918.05490492 Eh          -24981.54400 eV
Kinetic Energy     :          456.42931729 Eh           12420.07315 eV
Virial Ratio       :            2.01138461


DFT components:
N(Alpha)           :       41.999982199137 electrons
N(Beta)            :       41.999982199137 electrons
N(Total)           :       83.999964398273 electrons
E(XC)              :      -47.162275125523 Eh       
DFET-embed. en.    :        0.000000000000 Eh       
CPCM Solvation Model Properties:
Surface-charge          :           -0.02666671
Charge-correction       :           -0.00045506 Eh              -0.01238 eV
Free-energy (cav+disp)  :  This term is not implemented in the current solvation scheme

---------------
SCF CONVERGENCE
---------------

  Last Energy change         ...   -5.1351e-09  Tolerance :   1.0000e-08
  Last MAX-Density change    ...    1.3323e-15  Tolerance :   1.0000e-07
  Last RMS-Density change    ...    2.8236e-17  Tolerance :   5.0000e-09
  Last Orbital Gradient      ...    5.5756e-07  Tolerance :   1.0000e-05
  Last Orbital Rotation      ...    2.2516e-06  Tolerance :   1.0000e-05

             **** THE GBW FILE WAS UPDATED (4_deprot_aq_1.gbw) ****
             **** DENSITY 4_deprot_aq_1.scfp WAS UPDATED ****
             **** ENERGY FILE WAS UPDATED (4_deprot_aq_1.en.tmp) ****
             **** THE GBW FILE WAS UPDATED (4_deprot_aq_1.gbw) ****
             **** DENSITY 4_deprot_aq_1.scfp WAS UPDATED ****
----------------
ORBITAL ENERGIES
----------------

  NO   OCC          E(Eh)            E(eV) 
   0   2.0000     -14.445786      -393.0898 
   1   2.0000     -14.445784      -393.0898 
   2   2.0000     -10.305750      -280.4337 
   3   2.0000     -10.305715      -280.4328 
   4   2.0000     -10.291217      -280.0383 
   5   2.0000     -10.290615      -280.0219 
   6   2.0000     -10.274258      -279.5768 
   7   2.0000     -10.257992      -279.1342 
   8   2.0000     -10.257988      -279.1340 
   9   2.0000     -10.257985      -279.1340 
  10   2.0000     -10.257979      -279.1338 
  11   2.0000      -1.153422       -31.3862 
  12   2.0000      -1.048654       -28.5353 
  13   2.0000      -0.937737       -25.5171 
  14   2.0000      -0.883491       -24.0410 
  15   2.0000      -0.866675       -23.5834 
  16   2.0000      -0.810189       -22.0464 
  17   2.0000      -0.809759       -22.0347 
  18   2.0000      -0.764616       -20.8062 
  19   2.0000      -0.752344       -20.4723 
  20   2.0000      -0.678180       -18.4542 
  21   2.0000      -0.663587       -18.0571 
  22   2.0000      -0.624948       -17.0057 
  23   2.0000      -0.590567       -16.0701 
  24   2.0000      -0.580989       -15.8095 
  25   2.0000      -0.559779       -15.2324 
  26   2.0000      -0.558377       -15.1942 
  27   2.0000      -0.537562       -14.6278 
  28   2.0000      -0.535407       -14.5692 
  29   2.0000      -0.529099       -14.3975 
  30   2.0000      -0.501525       -13.6472 
  31   2.0000      -0.494523       -13.4567 
  32   2.0000      -0.487536       -13.2665 
  33   2.0000      -0.484753       -13.1908 
  34   2.0000      -0.470224       -12.7954 
  35   2.0000      -0.456398       -12.4192 
  36   2.0000      -0.444058       -12.0834 
  37   2.0000      -0.443304       -12.0629 
  38   2.0000      -0.434773       -11.8308 
  39   2.0000      -0.369798       -10.0627 
  40   2.0000      -0.323651        -8.8070 
  41   2.0000      -0.323063        -8.7910 
  42   0.0000       0.124933         3.3996 
  43   0.0000       0.130286         3.5453 
  44   0.0000       0.152845         4.1591 
  45   0.0000       0.153903         4.1879 
  46   0.0000       0.182342         4.9618 
  47   0.0000       0.182754         4.9730 
  48   0.0000       0.203758         5.5445 
  49   0.0000       0.207986         5.6596 
  50   0.0000       0.210200         5.7198 
  51   0.0000       0.219948         5.9851 
  52   0.0000       0.222916         6.0658 
  53   0.0000       0.228615         6.2209 
  54   0.0000       0.256610         6.9827 
  55   0.0000       0.260243         7.0816 
  56   0.0000       0.261430         7.1139 
  57   0.0000       0.269893         7.3442 
  58   0.0000       0.270885         7.3712 
  59   0.0000       0.275278         7.4907 
  60   0.0000       0.287609         7.8262 
  61   0.0000       0.293290         7.9808 
  62   0.0000       0.296429         8.0662 
  63   0.0000       0.331041         9.0081 
  64   0.0000       0.338772         9.2185 
  65   0.0000       0.344417         9.3721 
  66   0.0000       0.356491         9.7006 
  67   0.0000       0.361660         9.8413 
  68   0.0000       0.365717         9.9517 
  69   0.0000       0.430709        11.7202 
  70   0.0000       0.458665        12.4809 
  71   0.0000       0.487769        13.2729 
  72   0.0000       0.498622        13.5682 
  73   0.0000       0.511895        13.9294 
  74   0.0000       0.520883        14.1739 
  75   0.0000       0.522465        14.2170 
  76   0.0000       0.529055        14.3963 
  77   0.0000       0.531533        14.4637 
  78   0.0000       0.561439        15.2775 
  79   0.0000       0.574677        15.6378 
  80   0.0000       0.581940        15.8354 
  81   0.0000       0.629544        17.1308 
  82   0.0000       0.651164        17.7191 
  83   0.0000       0.658404        17.9161 
  84   0.0000       0.669915        18.2293 
  85   0.0000       0.674586        18.3564 
  86   0.0000       0.689261        18.7557 
  87   0.0000       0.702141        19.1062 
  88   0.0000       0.706723        19.2309 
  89   0.0000       0.712284        19.3822 
  90   0.0000       0.740803        20.1583 
  91   0.0000       0.742948        20.2166 
  92   0.0000       0.746325        20.3085 
  93   0.0000       0.750218        20.4145 
  94   0.0000       0.765012        20.8170 
  95   0.0000       0.770480        20.9658 
  96   0.0000       0.777926        21.1685 
  97   0.0000       0.780790        21.2464 
  98   0.0000       0.781774        21.2731 
  99   0.0000       0.783578        21.3222 
 100   0.0000       0.799551        21.7569 
 101   0.0000       0.802253        21.8304 
 102   0.0000       0.804522        21.8922 
 103   0.0000       0.811264        22.0756 
 104   0.0000       0.815183        22.1822 
 105   0.0000       0.818935        22.2843 
 106   0.0000       0.819151        22.2902 
 107   0.0000       0.828289        22.5389 
 108   0.0000       0.831815        22.6348 
 109   0.0000       0.842741        22.9322 
 110   0.0000       0.846711        23.0402 
 111   0.0000       0.849126        23.1059 
 112   0.0000       0.857105        23.3230 
 113   0.0000       0.864975        23.5372 
 114   0.0000       0.877738        23.8845 
 115   0.0000       0.956712        26.0334 
 116   0.0000       0.997477        27.1427 
 117   0.0000       1.041178        28.3319 
 118   0.0000       1.059024        28.8175 
 119   0.0000       1.093887        29.7662 
 120   0.0000       1.100166        29.9370 
 121   0.0000       1.111121        30.2351 
 122   0.0000       1.154163        31.4064 
 123   0.0000       1.163974        31.6734 
 124   0.0000       1.169933        31.8355 
 125   0.0000       1.184793        32.2399 
 126   0.0000       1.227518        33.4025 
 127   0.0000       1.259865        34.2827 
 128   0.0000       1.282707        34.9042 
 129   0.0000       1.299399        35.3585 
 130   0.0000       1.309770        35.6407 
 131   0.0000       1.372143        37.3379 
 132   0.0000       1.373450        37.3735 
 133   0.0000       1.407383        38.2968 
 134   0.0000       1.424521        38.7632 
 135   0.0000       1.484860        40.4051 
 136   0.0000       1.514299        41.2062 
 137   0.0000       1.522720        41.4353 
 138   0.0000       1.536711        41.8160 
 139   0.0000       1.598059        43.4854 
 140   0.0000       1.603078        43.6220 
 141   0.0000       1.644618        44.7523 
 142   0.0000       1.652770        44.9742 
 143   0.0000       1.659421        45.1552 
 144   0.0000       1.660963        45.1971 
 145   0.0000       1.664161        45.2841 
 146   0.0000       1.669169        45.4204 
 147   0.0000       1.701765        46.3074 
 148   0.0000       1.786310        48.6080 
 149   0.0000       1.809481        49.2385 
 150   0.0000       1.813799        49.3560 
 151   0.0000       1.832624        49.8682 
 152   0.0000       1.842108        50.1263 
 153   0.0000       1.870004        50.8854 
 154   0.0000       1.887542        51.3626 
 155   0.0000       1.899182        51.6794 
 156   0.0000       1.909005        51.9467 
 157   0.0000       1.918136        52.1951 
 158   0.0000       1.924085        52.3570 
 159   0.0000       1.935926        52.6792 
 160   0.0000       1.940014        52.7905 
 161   0.0000       1.941499        52.8309 
 162   0.0000       1.950902        53.0867 
 163   0.0000       1.966087        53.4999 
 164   0.0000       1.966465        53.5102 
 165   0.0000       1.969163        53.5836 
 166   0.0000       1.979333        53.8604 
 167   0.0000       1.981894        53.9301 
 168   0.0000       1.997902        54.3657 
 169   0.0000       1.998404        54.3793 
 170   0.0000       2.005734        54.5788 
 171   0.0000       2.006669        54.6042 
 172   0.0000       2.023631        55.0658 
 173   0.0000       2.056933        55.9720 
 174   0.0000       2.057566        55.9892 
 175   0.0000       2.070449        56.3398 
 176   0.0000       2.095288        57.0157 
 177   0.0000       2.101179        57.1760 
 178   0.0000       2.103984        57.2523 
 179   0.0000       2.165850        58.9358 
 180   0.0000       2.187575        59.5270 
 181   0.0000       2.197518        59.7975 
 182   0.0000       2.229977        60.6808 
 183   0.0000       2.247811        61.1660 
 184   0.0000       2.273793        61.8730 
 185   0.0000       2.302054        62.6421 
 186   0.0000       2.305668        62.7404 
 187   0.0000       2.320369        63.1404 
 188   0.0000       2.379105        64.7387 
 189   0.0000       2.382140        64.8213 
 190   0.0000       2.393701        65.1359 
 191   0.0000       2.401269        65.3419 
 192   0.0000       2.475838        67.3710 
 193   0.0000       2.479740        67.4771 
 194   0.0000       2.486690        67.6663 
 195   0.0000       2.515391        68.4473 
 196   0.0000       2.525825        68.7312 
 197   0.0000       2.532456        68.9116 
 198   0.0000       2.586006        70.3688 
 199   0.0000       2.592773        70.5529 
 200   0.0000       2.611904        71.0735 
 201   0.0000       2.627078        71.4864 
 202   0.0000       2.632128        71.6238 
 203   0.0000       2.634525        71.6891 
 204   0.0000       2.687945        73.1427 
 205   0.0000       2.710712        73.7622 
 206   0.0000       2.718439        73.9725 
 207   0.0000       2.719280        73.9954 
 208   0.0000       2.824574        76.8606 
 209   0.0000       2.834866        77.1406 
 210   0.0000       2.845011        77.4167 
 211   0.0000       2.853187        77.6392 
 212   0.0000       2.856405        77.7267 
 213   0.0000       2.901655        78.9581 
 214   0.0000       2.975023        80.9545 
 215   0.0000       2.994946        81.4966 
 216   0.0000       2.996912        81.5501 
 217   0.0000       2.997715        81.5720 
 218   0.0000       3.013825        82.0103 
 219   0.0000       3.017281        82.1044 
 220   0.0000       3.033061        82.5338 
 221   0.0000       3.045783        82.8800 
 222   0.0000       3.052688        83.0679 
 223   0.0000       3.093414        84.1761 
 224   0.0000       3.097750        84.2941 
 225   0.0000       3.142569        85.5136 
 226   0.0000       3.147714        85.6537 
 227   0.0000       3.153530        85.8119 
 228   0.0000       3.160582        86.0038 
 229   0.0000       3.191952        86.8574 
 230   0.0000       3.332035        90.6693 
 231   0.0000       3.459534        94.1387 
 232   0.0000       3.466541        94.3294 
 233   0.0000       3.697446       100.6126 

                    ********************************
                    * MULLIKEN POPULATION ANALYSIS *
                    ********************************

-----------------------
MULLIKEN ATOMIC CHARGES
-----------------------
   0 N :   -0.194484
   1 C :   -0.225129
   2 N :   -0.194488
   3 C :    0.022187
   4 C :    0.022184
   5 C :   -0.016304
   6 C :   -0.016299
   7 C :    0.004376
   8 H :    0.027157
   9 C :    0.004573
  10 H :    0.027155
  11 C :    0.004456
  12 C :    0.004477
  13 H :    0.053462
  14 H :    0.053467
  15 H :    0.030193
  16 H :    0.041590
  17 H :    0.033955
  18 H :    0.030225
  19 H :    0.034001
  20 H :    0.041636
  21 H :    0.033971
  22 H :    0.041615
  23 H :    0.030207
  24 H :    0.030215
  25 H :    0.041625
  26 H :    0.033979
Sum of atomic charges:    0.0000000

--------------------------------
MULLIKEN REDUCED ORBITAL CHARGES
--------------------------------
  0 N s       :     3.379152  s :     3.379152
      pz      :     1.113469  p :     3.782364
      px      :     1.163249
      py      :     1.505647
      dz2     :     0.008784  d :     0.032968
      dxz     :     0.009387
      dyz     :     0.005705
      dx2y2   :     0.004835
      dxy     :     0.004257
  1 C s       :     3.625040  s :     3.625040
      pz      :     1.157410  p :     2.534682
      px      :     0.660101
      py      :     0.717172
      dz2     :     0.008349  d :     0.065407
      dxz     :     0.028253
      dyz     :     0.009477
      dx2y2   :     0.007412
      dxy     :     0.011914
  2 N s       :     3.379152  s :     3.379152
      pz      :     1.113470  p :     3.782368
      px      :     1.163251
      py      :     1.505647
      dz2     :     0.008784  d :     0.032968
      dxz     :     0.009387
      dyz     :     0.005705
      dx2y2   :     0.004835
      dxy     :     0.004257
  3 C s       :     3.147916  s :     3.147916
      pz      :     0.801466  p :     2.781408
      px      :     0.903237
      py      :     1.076705
      dz2     :     0.014541  d :     0.048489
      dxz     :     0.013179
      dyz     :     0.007993
      dx2y2   :     0.004789
      dxy     :     0.007986
  4 C s       :     3.147912  s :     3.147912
      pz      :     0.801467  p :     2.781414
      px      :     0.903244
      py      :     1.076704
      dz2     :     0.014541  d :     0.048489
      dxz     :     0.013180
      dyz     :     0.007993
      dx2y2   :     0.004789
      dxy     :     0.007986
  5 C s       :     3.087095  s :     3.087095
      pz      :     1.043704  p :     2.871740
      px      :     0.815951
      py      :     1.012086
      dz2     :     0.012141  d :     0.057468
      dxz     :     0.008464
      dyz     :     0.006321
      dx2y2   :     0.016233
      dxy     :     0.014309
  6 C s       :     3.087089  s :     3.087089
      pz      :     1.043704  p :     2.871742
      px      :     0.815952
      py      :     1.012087
      dz2     :     0.012141  d :     0.057468
      dxz     :     0.008464
      dyz     :     0.006321
      dx2y2   :     0.016232
      dxy     :     0.014310
  7 C s       :     2.988485  s :     2.988485
      pz      :     1.015340  p :     2.980467
      px      :     1.001445
      py      :     0.963682
      dz2     :     0.008284  d :     0.026672
      dxz     :     0.003504
      dyz     :     0.003187
      dx2y2   :     0.005882
      dxy     :     0.005816
  8 H s       :     0.951908  s :     0.951908
      pz      :     0.015423  p :     0.020934
      px      :     0.002206
      py      :     0.003305
  9 C s       :     2.988386  s :     2.988386
      pz      :     1.015291  p :     2.980368
      px      :     1.001417
      py      :     0.963660
      dz2     :     0.008293  d :     0.026673
      dxz     :     0.003486
      dyz     :     0.003194
      dx2y2   :     0.005892
      dxy     :     0.005808
 10 H s       :     0.951911  s :     0.951911
      pz      :     0.015423  p :     0.020934
      px      :     0.002206
      py      :     0.003305
 11 C s       :     2.988456  s :     2.988456
      pz      :     1.015365  p :     2.980416
      px      :     1.001398
      py      :     0.963653
      dz2     :     0.008277  d :     0.026672
      dxz     :     0.003503
      dyz     :     0.003194
      dx2y2   :     0.005883
      dxy     :     0.005814
 12 C s       :     2.988435  s :     2.988435
      pz      :     1.015267  p :     2.980416
      px      :     1.001465
      py      :     0.963684
      dz2     :     0.008299  d :     0.026672
      dxz     :     0.003492
      dyz     :     0.003182
      dx2y2   :     0.005887
      dxy     :     0.005812
 13 H s       :     0.921577  s :     0.921577
      pz      :     0.010898  p :     0.024961
      px      :     0.008674
      py      :     0.005389
 14 H s       :     0.921572  s :     0.921572
      pz      :     0.010898  p :     0.024961
      px      :     0.008674
      py      :     0.005389
 15 H s       :     0.945363  s :     0.945363
      pz      :     0.015419  p :     0.024444
      px      :     0.004883
      py      :     0.004143
 16 H s       :     0.933964  s :     0.933964
      pz      :     0.006542  p :     0.024446
      px      :     0.013665
      py      :     0.004238
 17 H s       :     0.941951  s :     0.941951
      pz      :     0.005765  p :     0.024095
      px      :     0.007248
      py      :     0.011081
 18 H s       :     0.945331  s :     0.945331
      pz      :     0.015416  p :     0.024445
      px      :     0.004886
      py      :     0.004144
 19 H s       :     0.941904  s :     0.941904
      pz      :     0.005763  p :     0.024095
      px      :     0.007246
      py      :     0.011086
 20 H s       :     0.933919  s :     0.933919
      pz      :     0.006557  p :     0.024445
      px      :     0.013651
      py      :     0.004238
 21 H s       :     0.941935  s :     0.941935
      pz      :     0.005753  p :     0.024094
      px      :     0.007252
      py      :     0.011089
 22 H s       :     0.933940  s :     0.933940
      pz      :     0.006546  p :     0.024445
      px      :     0.013660
      py      :     0.004240
 23 H s       :     0.945349  s :     0.945349
      pz      :     0.015418  p :     0.024445
      px      :     0.004884
      py      :     0.004143
 24 H s       :     0.945341  s :     0.945341
      pz      :     0.015415  p :     0.024444
      px      :     0.004885
      py      :     0.004144
 25 H s       :     0.933929  s :     0.933929
      pz      :     0.006557  p :     0.024445
      px      :     0.013652
      py      :     0.004237
 26 H s       :     0.941927  s :     0.941927
      pz      :     0.005773  p :     0.024095
      px      :     0.007245
      py      :     0.011077


                     *******************************
                     * LOEWDIN POPULATION ANALYSIS *
                     *******************************

----------------------
LOEWDIN ATOMIC CHARGES
----------------------
   0 N :    0.041915
   1 C :   -0.323059
   2 N :    0.041913
   3 C :   -0.031599
   4 C :   -0.031600
   5 C :    0.025639
   6 C :    0.025637
   7 C :   -0.056253
   8 H :    0.027360
   9 C :   -0.056240
  10 H :    0.027359
  11 C :   -0.056253
  12 C :   -0.056244
  13 H :    0.034500
  14 H :    0.034499
  15 H :    0.026543
  16 H :    0.033692
  17 H :    0.027852
  18 H :    0.026545
  19 H :    0.027867
  20 H :    0.033712
  21 H :    0.027858
  22 H :    0.033700
  23 H :    0.026543
  24 H :    0.026544
  25 H :    0.033710
  26 H :    0.027859

-------------------------------
LOEWDIN REDUCED ORBITAL CHARGES
-------------------------------
  0 N s       :     3.058304  s :     3.058304
      pz      :     1.199516  p :     3.822246
      px      :     1.197088
      py      :     1.425642
      dz2     :     0.022463  d :     0.077534
      dxz     :     0.025830
      dyz     :     0.011282
      dx2y2   :     0.010449
      dxy     :     0.007510
  1 C s       :     3.203696  s :     3.203696
      pz      :     1.385400  p :     2.977212
      px      :     0.821342
      py      :     0.770470
      dz2     :     0.013864  d :     0.142151
      dxz     :     0.066039
      dyz     :     0.013235
      dx2y2   :     0.022742
      dxy     :     0.026271
  2 N s       :     3.058305  s :     3.058305
      pz      :     1.199517  p :     3.822248
      px      :     1.197087
      py      :     1.425644
      dz2     :     0.022463  d :     0.077534
      dxz     :     0.025830
      dyz     :     0.011282
      dx2y2   :     0.010449
      dxy     :     0.007509
  3 C s       :     2.850485  s :     2.850485
      pz      :     0.943924  p :     3.059603
      px      :     1.054083
      py      :     1.061596
      dz2     :     0.039069  d :     0.121511
      dxz     :     0.036645
      dyz     :     0.015970
      dx2y2   :     0.013804
      dxy     :     0.016024
  4 C s       :     2.850483  s :     2.850483
      pz      :     0.943925  p :     3.059605
      px      :     1.054085
      py      :     1.061595
      dz2     :     0.039069  d :     0.121512
      dxz     :     0.036645
      dyz     :     0.015970
      dx2y2   :     0.013804
      dxy     :     0.016024
  5 C s       :     2.829634  s :     2.829634
      pz      :     1.055645  p :     3.011400
      px      :     0.907605
      py      :     1.048150
      dz2     :     0.031191  d :     0.133327
      dxz     :     0.018718
      dyz     :     0.012786
      dx2y2   :     0.036025
      dxy     :     0.034608
  6 C s       :     2.829633  s :     2.829633
      pz      :     1.055644  p :     3.011404
      px      :     0.907609
      py      :     1.048151
      dz2     :     0.031190  d :     0.133326
      dxz     :     0.018718
      dyz     :     0.012786
      dx2y2   :     0.036023
      dxy     :     0.034609
  7 C s       :     2.831527  s :     2.831527
      pz      :     1.066484  p :     3.153812
      px      :     1.059448
      py      :     1.027880
      dz2     :     0.021958  d :     0.070913
      dxz     :     0.009064
      dyz     :     0.007891
      dx2y2   :     0.015628
      dxy     :     0.016372
  8 H s       :     0.906320  s :     0.906320
      pz      :     0.043799  p :     0.066320
      px      :     0.009259
      py      :     0.013261
  9 C s       :     2.831535  s :     2.831535
      pz      :     1.066437  p :     3.153791
      px      :     1.059482
      py      :     1.027871
      dz2     :     0.021977  d :     0.070914
      dxz     :     0.009016
      dyz     :     0.007916
      dx2y2   :     0.015659
      dxy     :     0.016345
 10 H s       :     0.906321  s :     0.906321
      pz      :     0.043799  p :     0.066320
      px      :     0.009259
      py      :     0.013262
 11 C s       :     2.831535  s :     2.831535
      pz      :     1.066518  p :     3.153806
      px      :     1.059440
      py      :     1.027848
      dz2     :     0.021945  d :     0.070912
      dxz     :     0.009060
      dyz     :     0.007906
      dx2y2   :     0.015632
      dxy     :     0.016369
 12 C s       :     2.831536  s :     2.831536
      pz      :     1.066403  p :     3.153794
      px      :     1.059491
      py      :     1.027901
      dz2     :     0.021987  d :     0.070913
      dxz     :     0.009033
      dyz     :     0.007891
      dx2y2   :     0.015642
      dxy     :     0.016359
 13 H s       :     0.890621  s :     0.890621
      pz      :     0.032427  p :     0.074879
      px      :     0.024755
      py      :     0.017696
 14 H s       :     0.890622  s :     0.890622
      pz      :     0.032428  p :     0.074879
      px      :     0.024755
      py      :     0.017696
 15 H s       :     0.905675  s :     0.905675
      pz      :     0.041129  p :     0.067783
      px      :     0.013557
      py      :     0.013097
 16 H s       :     0.898896  s :     0.898896
      pz      :     0.017261  p :     0.067412
      px      :     0.037091
      py      :     0.013059
 17 H s       :     0.904806  s :     0.904806
      pz      :     0.015302  p :     0.067342
      px      :     0.019737
      py      :     0.032302
 18 H s       :     0.905671  s :     0.905671
      pz      :     0.041118  p :     0.067784
      px      :     0.013570
      py      :     0.013096
 19 H s       :     0.904792  s :     0.904792
      pz      :     0.015296  p :     0.067341
      px      :     0.019734
      py      :     0.032312
 20 H s       :     0.898875  s :     0.898875
      pz      :     0.017298  p :     0.067413
      px      :     0.037057
      py      :     0.013058
 21 H s       :     0.904802  s :     0.904802
      pz      :     0.015271  p :     0.067341
      px      :     0.019748
      py      :     0.032322
 22 H s       :     0.898889  s :     0.898889
      pz      :     0.017274  p :     0.067412
      px      :     0.037077
      py      :     0.013061
 23 H s       :     0.905674  s :     0.905674
      pz      :     0.041129  p :     0.067783
      px      :     0.013561
      py      :     0.013093
 24 H s       :     0.905674  s :     0.905674
      pz      :     0.041115  p :     0.067782
      px      :     0.013568
      py      :     0.013099
 25 H s       :     0.898878  s :     0.898878
      pz      :     0.017295  p :     0.067412
      px      :     0.037060
      py      :     0.013056
 26 H s       :     0.904800  s :     0.904800
      pz      :     0.015318  p :     0.067340
      px      :     0.019731
      py      :     0.032291


                      *****************************
                      * MAYER POPULATION ANALYSIS *
                      *****************************

  NA   - Mulliken gross atomic population
  ZA   - Total nuclear charge
  QA   - Mulliken gross atomic charge
  VA   - Mayer's total valence
  BVA  - Mayer's bonded valence
  FA   - Mayer's free valence

  ATOM       NA         ZA         QA         VA         BVA        FA
  0 N      7.1945     7.0000    -0.1945     3.3238     3.3238     0.0000
  1 C      6.2251     6.0000    -0.2251     2.7186     2.7186     0.0000
  2 N      7.1945     7.0000    -0.1945     3.3239     3.3239    -0.0000
  3 C      5.9778     6.0000     0.0222     3.8532     3.8532     0.0000
  4 C      5.9778     6.0000     0.0222     3.8532     3.8532    -0.0000
  5 C      6.0163     6.0000    -0.0163     4.0966     4.0966     0.0000
  6 C      6.0163     6.0000    -0.0163     4.0966     4.0966     0.0000
  7 C      5.9956     6.0000     0.0044     3.9504     3.9504     0.0000
  8 H      0.9728     1.0000     0.0272     1.0051     1.0051     0.0000
  9 C      5.9954     6.0000     0.0046     3.9503     3.9503     0.0000
 10 H      0.9728     1.0000     0.0272     1.0051     1.0051     0.0000
 11 C      5.9955     6.0000     0.0045     3.9504     3.9504    -0.0000
 12 C      5.9955     6.0000     0.0045     3.9504     3.9504    -0.0000
 13 H      0.9465     1.0000     0.0535     1.0003     1.0003     0.0000
 14 H      0.9465     1.0000     0.0535     1.0003     1.0003    -0.0000
 15 H      0.9698     1.0000     0.0302     1.0014     1.0014     0.0000
 16 H      0.9584     1.0000     0.0416     0.9948     0.9948     0.0000
 17 H      0.9660     1.0000     0.0340     0.9963     0.9963     0.0000
 18 H      0.9698     1.0000     0.0302     1.0014     1.0014     0.0000
 19 H      0.9660     1.0000     0.0340     0.9963     0.9963     0.0000
 20 H      0.9584     1.0000     0.0416     0.9948     0.9948     0.0000
 21 H      0.9660     1.0000     0.0340     0.9963     0.9963     0.0000
 22 H      0.9584     1.0000     0.0416     0.9948     0.9948    -0.0000
 23 H      0.9698     1.0000     0.0302     1.0014     1.0014     0.0000
 24 H      0.9698     1.0000     0.0302     1.0014     1.0014    -0.0000
 25 H      0.9584     1.0000     0.0416     0.9948     0.9948     0.0000
 26 H      0.9660     1.0000     0.0340     0.9963     0.9963     0.0000

  Mayer bond orders larger than 0.100000
B(  0-N ,  1-C ) :   1.2392 B(  0-N ,  4-C ) :   1.1326 B(  0-N ,  5-C ) :   0.9190 
B(  1-C ,  2-N ) :   1.2392 B(  2-N ,  3-C ) :   1.1326 B(  2-N ,  6-C ) :   0.9190 
B(  3-C ,  4-C ) :   1.6224 B(  3-C , 13-H ) :   0.9933 B(  4-C , 14-H ) :   0.9933 
B(  5-C ,  7-C ) :   1.0703 B(  5-C ,  8-H ) :   0.9322 B(  5-C ,  9-C ) :   1.0703 
B(  6-C , 10-H ) :   0.9322 B(  6-C , 11-C ) :   1.0703 B(  6-C , 12-C ) :   1.0703 
B(  7-C , 18-H ) :   0.9643 B(  7-C , 19-H ) :   0.9684 B(  7-C , 20-H ) :   0.9727 
B(  9-C , 15-H ) :   0.9642 B(  9-C , 16-H ) :   0.9728 B(  9-C , 17-H ) :   0.9684 
B( 11-C , 24-H ) :   0.9643 B( 11-C , 25-H ) :   0.9727 B( 11-C , 26-H ) :   0.9684 
B( 12-C , 21-H ) :   0.9684 B( 12-C , 22-H ) :   0.9727 B( 12-C , 23-H ) :   0.9642 


-------
TIMINGS
-------

Total SCF time: 0 days 0 hours 6 min 29 sec 

Total time                  ....     389.106 sec
Sum of individual times     ....     388.558 sec  ( 99.9%)

Fock matrix formation       ....     383.000 sec  ( 98.4%)
  Split-RI-J                ....      14.721 sec  (  3.8% of F)
  Chain of spheres X        ....     311.898 sec  ( 81.4% of F)
  XC integration            ....      32.709 sec  (  8.5% of F)
[...]
     70       0.013706   0.015373  -0.015376   0.001827  -0.001894  -0.000236
     71       0.381745   0.357330  -0.357147  -0.018596   0.019262   0.058135
     72       0.029170  -0.027571   0.027537  -0.006321   0.006525  -0.009655
     73       0.014967  -0.016574   0.016577   0.001780  -0.001843   0.000055
     74      -0.381439   0.357487  -0.357305   0.018308  -0.018975   0.058075
     75      -0.189900   0.143351  -0.141831   0.339184  -0.349398   0.365023
     76      -0.001795   0.001285  -0.001318   0.008117  -0.008375   0.009212
     77      -0.074264   0.054814  -0.054140   0.143217  -0.147539   0.153440
     78       0.128049  -0.139584   0.140625   0.156699  -0.161344   0.144782
     79      -0.207039   0.228432  -0.230137  -0.262122   0.269894  -0.241726
     80      -0.075658   0.084871  -0.085542  -0.103737   0.106809  -0.095828
                 78         79         80    
      0       0.000398   0.000110   0.000663
      1       0.000000   0.000001   0.000006
      2       0.000018  -0.000626  -0.002679
      3       0.000001  -0.001789  -0.000000
      4       0.000000   0.000000   0.000002
      5       0.000117   0.000000  -0.001002
      6      -0.000398   0.000110  -0.000663
      7       0.000000  -0.000001   0.000006
      8       0.000018   0.000626  -0.002679
      9      -0.000102   0.038953  -0.049766
     10       0.000000   0.000106  -0.000105
     11      -0.000179  -0.047927   0.047886
     12       0.000103   0.038952   0.049766
     13       0.000000  -0.000114  -0.000115
     14      -0.000180   0.047926   0.047887
     15      -0.000774   0.000321   0.000187
     16      -0.000005  -0.000000  -0.000001
     17       0.002321   0.000145   0.000512
     18       0.000771   0.000321  -0.000187
     19      -0.000005   0.000000  -0.000001
     20       0.002313  -0.000145   0.000512
     21      -0.041951   0.000093   0.000049
     22      -0.019382   0.000109   0.000086
     23       0.009834   0.000586   0.000482
     24      -0.000398  -0.001003  -0.001766
     25       0.000032  -0.000003   0.000000
     26      -0.024388   0.001705  -0.001481
     27      -0.041629   0.000092   0.000048
     28       0.019117  -0.000109  -0.000087
     29       0.009835   0.000581   0.000478
     30       0.000397  -0.001003   0.001766
     31       0.000043   0.000004   0.000001
     32      -0.024309  -0.001705  -0.001481
     33       0.041666   0.000093  -0.000049
     34      -0.019244  -0.000109   0.000086
     35       0.009767  -0.000585   0.000482
     36       0.041612   0.000092  -0.000049
     37       0.019115   0.000110  -0.000087
     38       0.009836  -0.000581   0.000479
     39      -0.000490  -0.457851   0.461821
     40      -0.000001  -0.001193   0.001183
     41       0.000388   0.535222  -0.530909
     42       0.000489  -0.457833  -0.461822
     43      -0.000002   0.001289   0.001280
     44       0.000388  -0.535219  -0.530927
     45      -0.009734  -0.000673  -0.000510
     46       0.000121  -0.000404  -0.000299
     47      -0.059629  -0.006475  -0.005168
     48       0.364142   0.000593   0.000753
     49       0.010135  -0.000175  -0.000132
     50      -0.152912  -0.000658  -0.000595
     51       0.143428  -0.001023  -0.000776
     52      -0.239053   0.001840   0.001341
     53       0.094121  -0.000668  -0.000489
     54      -0.009800  -0.000672  -0.000507
     55      -0.000024   0.000414   0.000307
     56      -0.059679  -0.006538  -0.005217
     57       0.144485  -0.001028  -0.000780
     58       0.241365  -0.001851  -0.001351
     59       0.095519  -0.000674  -0.000493
     60       0.366983   0.000603   0.000758
     61      -0.009357   0.000177   0.000134
     62      -0.154248  -0.000662  -0.000597
     63      -0.143421  -0.001024   0.000777
     64      -0.239126  -0.001842   0.001343
     65       0.093945   0.000667  -0.000489
     66      -0.363937   0.000595  -0.000754
     67       0.010187   0.000175  -0.000132
     68      -0.152899   0.000660  -0.000596
     69       0.009732  -0.000675   0.000511
     70       0.000165   0.000400  -0.000296
     71      -0.059475   0.006483  -0.005174
     72       0.009737  -0.000671   0.000506
     73       0.000020  -0.000418   0.000310
     74      -0.059413   0.006529  -0.005210
     75      -0.364547   0.000601  -0.000757
     76      -0.009245  -0.000178   0.000135
     77      -0.153177   0.000660  -0.000596
     78      -0.143459  -0.001027   0.000779
     79       0.239550   0.001848  -0.001348
     80       0.094993   0.000675  -0.000494


-----------
IR SPECTRUM
-----------

 Mode   freq       eps      Int      T**2         TX        TY        TZ
       cm**-1   L/(mol*cm) km/mol    a.u.
----------------------------------------------------------------------------
  6:     23.04   0.000020    0.10  0.000267  (-0.000004 -0.016337 -0.000131)
  7:     27.24   0.000000    0.00  0.000000  (-0.000009  0.000009  0.000005)
  8:    115.75   0.003730   18.85  0.010055  ( 0.000003  0.100276  0.000249)
  9:    149.13   0.000000    0.00  0.000000  (-0.000003 -0.000005 -0.000017)
 10:    159.15   0.000483    2.44  0.000948  (-0.000001 -0.000068  0.030782)
 11:    231.84   0.000000    0.00  0.000000  ( 0.000027 -0.000303  0.000013)
 12:    231.95   0.000084    0.43  0.000113  ( 0.000037  0.010649  0.000055)
 13:    251.20   0.000102    0.52  0.000127  (-0.011273  0.000016  0.000002)
 14:    262.68   0.000005    0.03  0.000006  (-0.000010 -0.000061 -0.002494)
 15:    270.27   0.000001    0.01  0.000001  (-0.000003 -0.000028  0.001142)
 16:    299.49   0.000964    4.87  0.001005  (-0.031697  0.000007 -0.000000)
 17:    354.55   0.000783    3.96  0.000690  (-0.026258 -0.000025 -0.000000)
 18:    404.06   0.004669   23.59  0.003606  ( 0.000012 -0.060047 -0.000109)
 19:    444.94   0.000000    0.00  0.000000  (-0.000042 -0.000000 -0.000002)
 20:    458.52   0.000036    0.18  0.000025  (-0.000000  0.000014  0.004976)
 21:    573.88   0.003605   18.22  0.001960  ( 0.044277 -0.000008  0.000000)
 22:    635.43   0.000048    0.24  0.000023  ( 0.000000 -0.000096  0.004833)
 23:    674.98   0.002230   11.27  0.001031  (-0.000011  0.032110  0.000073)
 24:    682.73   0.000000    0.00  0.000000  (-0.000036  0.000001  0.000004)
 25:    689.98   0.002206   11.15  0.000998  (-0.031585 -0.000010 -0.000000)
 26:    749.57   0.013667   69.07  0.005690  (-0.000015 -0.075432 -0.000203)
 27:    883.49   0.000000    0.00  0.000000  (-0.000004  0.000001 -0.000001)
 28:    907.08   0.002113   10.68  0.000727  (-0.026964  0.000001  0.000002)
 29:    911.77   0.000676    3.42  0.000231  ( 0.000004  0.000019  0.015215)
 30:    933.05   0.000000    0.00  0.000000  (-0.000023 -0.000215 -0.000007)
 31:    933.09   0.000633    3.20  0.000212  (-0.000012  0.014547 -0.000018)
 32:    955.61   0.000222    1.12  0.000072  (-0.000006  0.008515 -0.000022)
 33:    955.73   0.000000    0.00  0.000000  (-0.000034 -0.000034  0.000003)
 34:   1019.73   0.002822   14.26  0.000864  (-0.029387  0.000001  0.000000)
 35:   1027.03   0.000109    0.55  0.000033  (-0.000001 -0.000011 -0.005765)
 36:   1071.62   0.000358    1.81  0.000104  ( 0.010206 -0.000002 -0.000001)
 37:   1090.51   0.001555    7.86  0.000445  (-0.000000  0.000095 -0.021097)
 38:   1103.44   0.004904   24.78  0.001387  ( 0.000000  0.000122 -0.037242)
 39:   1168.20   0.000000    0.00  0.000000  (-0.000024 -0.000087 -0.000001)
 40:   1168.25   0.004127   20.85  0.001102  ( 0.000010 -0.033201 -0.000097)
 41:   1186.99   0.000131    0.66  0.000034  (-0.000000  0.000023 -0.005873)
 42:   1193.20   0.000026    0.13  0.000007  (-0.002602 -0.000007  0.000000)
 43:   1247.55   0.034936  176.55  0.008739  (-0.093482  0.000005 -0.000001)
 44:   1319.67   0.005680   28.71  0.001343  ( 0.036650  0.000003 -0.000000)
 45:   1325.00   0.000121    0.61  0.000029  (-0.000003  0.000032 -0.005341)
 46:   1347.74   0.000000    0.00  0.000000  (-0.000031 -0.000004  0.000005)
 47:   1348.07   0.000173    0.88  0.000040  (-0.000004  0.006337  0.000005)
 48:   1395.11   0.000208    1.05  0.000046  ( 0.006815  0.000030 -0.000000)
 49:   1398.15   0.000163    0.82  0.000036  ( 0.000000  0.001722 -0.005781)
 50:   1398.84   0.000000    0.00  0.000000  (-0.000004  0.000025  0.000016)
 51:   1399.14   0.010309   52.10  0.002299  (-0.000000  0.047950  0.000320)
 52:   1408.99   0.003235   16.35  0.000716  (-0.000001 -0.000107  0.026766)
 53:   1420.52   0.014472   73.14  0.003179  ( 0.056385  0.000001  0.000001)
 54:   1442.56   0.005164   26.09  0.001117  (-0.000000 -0.000077  0.033422)
 55:   1444.92   0.000000    0.00  0.000000  ( 0.000014  0.000010  0.000008)
 56:   1444.93   0.000001    0.00  0.000000  ( 0.000009 -0.000051 -0.000417)
 57:   1455.55   0.000292    1.48  0.000063  (-0.000010  0.007918 -0.000042)
 58:   1455.57   0.000000    0.00  0.000000  (-0.000072 -0.000117 -0.000017)
 59:   1457.50   0.000750    3.79  0.000161  ( 0.012673 -0.000012 -0.000007)
 60:   1460.97   0.004022   20.32  0.000859  ( 0.000003 -0.000021  0.029310)
 61:   1468.89   0.002400   12.13  0.000510  ( 0.022581 -0.000001  0.000002)
 62:   1479.20   0.001067    5.39  0.000225  (-0.000003  0.000041 -0.015002)
 63:   1487.06   0.024168  122.14  0.005072  (-0.071216  0.000002  0.000000)
 64:   1654.33   0.000020    0.10  0.000004  (-0.000000 -0.000004  0.001955)
 65:   3062.77   0.000001    0.01  0.000000  ( 0.000073 -0.000365  0.000017)
 66:   3062.78   0.009748   49.26  0.000993  ( 0.000034  0.031516  0.000115)
 67:   3065.14   0.003225   16.30  0.000328  (-0.018121  0.000055  0.000030)
 68:   3065.28   0.001987   10.04  0.000202  (-0.000038  0.000163 -0.014223)
 69:   3126.80   0.002166   10.95  0.000216  (-0.000003 -0.000015  0.014705)
 70:   3127.02   0.000304    1.53  0.000030  (-0.005504  0.000009 -0.000007)
 71:   3162.07   0.002921   14.76  0.000288  (-0.000007 -0.016978  0.000051)
 72:   3162.08   0.000000    0.00  0.000000  ( 0.000007  0.000188  0.000061)
 73:   3165.91   0.000081    0.41  0.000008  (-0.002819  0.000033  0.000032)
 74:   3166.01   0.018954   95.79  0.001868  ( 0.000001 -0.000038  0.043224)
 75:   3175.47   0.004453   22.50  0.000438  (-0.000067  0.020920  0.000064)
 76:   3175.47   0.000001    0.01  0.000000  (-0.000117 -0.000310  0.000010)
 77:   3177.19   0.013679   69.13  0.001344  (-0.036654 -0.000034 -0.000017)
 78:   3177.23   0.000852    4.31  0.000084  (-0.000066 -0.000091  0.009149)
 79:   3282.40   0.001416    7.16  0.000135  (-0.011602  0.000001 -0.000000)
 80:   3302.88   0.000248    1.25  0.000023  (-0.000000  0.000014 -0.004836)

* The epsilon (eps) is given for a Dirac delta lineshape.
** The dipole moment derivative (T) already includes vibrational overlap.

The first frequency considered to be a vibration is 6
The total number of vibrations considered is 75


--------------------------
THERMOCHEMISTRY AT 298.15K
--------------------------

Temperature         ... 298.15 K
Pressure            ... 1.00 atm
Total Mass          ... 152.24 AMU

Throughout the following assumptions are being made:
  (1) The electronic state is orbitally nondegenerate
  (2) There are no thermally accessible electronically excited states
  (3) Hindered rotations indicated by low frequency modes are not
      treated as such but are treated as vibrations and this may
      cause some error
  (4) All equations used are the standard statistical mechanics
      equations for an ideal gas
  (5) All vibrations are strictly harmonic

freq.      23.04  E(vib)   ...       0.56 
freq.      27.24  E(vib)   ...       0.55 
freq.     115.75  E(vib)   ...       0.44 
freq.     149.13  E(vib)   ...       0.40 
freq.     159.15  E(vib)   ...       0.39 
freq.     231.84  E(vib)   ...       0.32 
freq.     231.95  E(vib)   ...       0.32 
freq.     251.20  E(vib)   ...       0.30 
freq.     262.68  E(vib)   ...       0.29 
freq.     270.27  E(vib)   ...       0.29 
freq.     299.49  E(vib)   ...       0.26 
freq.     354.55  E(vib)   ...       0.22 
freq.     404.06  E(vib)   ...       0.19 
freq.     444.94  E(vib)   ...       0.17 
freq.     458.52  E(vib)   ...       0.16 
freq.     573.88  E(vib)   ...       0.11 
freq.     635.43  E(vib)   ...       0.09 
freq.     674.98  E(vib)   ...       0.08 
freq.     682.73  E(vib)   ...       0.08 
freq.     689.98  E(vib)   ...       0.07 
freq.     749.57  E(vib)   ...       0.06 
freq.     883.49  E(vib)   ...       0.04 
freq.     907.08  E(vib)   ...       0.03 
freq.     911.77  E(vib)   ...       0.03 
freq.     933.05  E(vib)   ...       0.03 
freq.     933.09  E(vib)   ...       0.03 
freq.     955.61  E(vib)   ...       0.03 
freq.     955.73  E(vib)   ...       0.03 
freq.    1019.73  E(vib)   ...       0.02 
freq.    1027.03  E(vib)   ...       0.02 
freq.    1071.62  E(vib)   ...       0.02 
freq.    1090.51  E(vib)   ...       0.02 
freq.    1103.44  E(vib)   ...       0.02 
freq.    1168.20  E(vib)   ...       0.01 
freq.    1168.25  E(vib)   ...       0.01 
freq.    1186.99  E(vib)   ...       0.01 
freq.    1193.20  E(vib)   ...       0.01 
freq.    1247.55  E(vib)   ...       0.01 
freq.    1319.67  E(vib)   ...       0.01 
freq.    1325.00  E(vib)   ...       0.01 
freq.    1347.74  E(vib)   ...       0.01 
freq.    1348.07  E(vib)   ...       0.01 
freq.    1395.11  E(vib)   ...       0.00 
freq.    1398.15  E(vib)   ...       0.00 
freq.    1398.84  E(vib)   ...       0.00 
freq.    1399.14  E(vib)   ...       0.00 
freq.    1408.99  E(vib)   ...       0.00 
freq.    1420.52  E(vib)   ...       0.00 
freq.    1442.56  E(vib)   ...       0.00 
freq.    1444.92  E(vib)   ...       0.00 
freq.    1444.93  E(vib)   ...       0.00 
freq.    1455.55  E(vib)   ...       0.00 
freq.    1455.57  E(vib)   ...       0.00 
freq.    1457.50  E(vib)   ...       0.00 
freq.    1460.97  E(vib)   ...       0.00 
freq.    1468.89  E(vib)   ...       0.00 
freq.    1479.20  E(vib)   ...       0.00 
freq.    1487.06  E(vib)   ...       0.00 
freq.    1654.33  E(vib)   ...       0.00 
freq.    3062.77  E(vib)   ...       0.00 
freq.    3062.78  E(vib)   ...       0.00 
freq.    3065.14  E(vib)   ...       0.00 
freq.    3065.28  E(vib)   ...       0.00 
freq.    3126.80  E(vib)   ...       0.00 
freq.    3127.02  E(vib)   ...       0.00 
freq.    3162.07  E(vib)   ...       0.00 
freq.    3162.08  E(vib)   ...       0.00 
freq.    3165.91  E(vib)   ...       0.00 
freq.    3166.01  E(vib)   ...       0.00 
freq.    3175.47  E(vib)   ...       0.00 
freq.    3175.47  E(vib)   ...       0.00 
freq.    3177.19  E(vib)   ...       0.00 
freq.    3177.23  E(vib)   ...       0.00 
freq.    3282.40  E(vib)   ...       0.00 
freq.    3302.88  E(vib)   ...       0.00 

------------
INNER ENERGY
------------

The inner energy is: U= E(el) + E(ZPE) + E(vib) + E(rot) + E(trans)
    E(el)   - is the total energy from the electronic structure calculation
              = E(kin-el) + E(nuc-el) + E(el-el) + E(nuc-nuc)
    E(ZPE)  - the the zero temperature vibrational energy from the frequency calculation
    E(vib)  - the the finite temperature correction to E(ZPE) due to population
              of excited vibrational states
    E(rot)  - is the rotational thermal energy
    E(trans)- is the translational thermal energy

Summary of contributions to the inner energy U:
Electronic energy                ...   -461.63292957 Eh
Zero point energy                ...      0.24129431 Eh     151.41 kcal/mol
Thermal vibrational correction   ...      0.00928923 Eh       5.83 kcal/mol
Thermal rotational correction    ...      0.00141627 Eh       0.89 kcal/mol
Thermal translational correction ...      0.00141627 Eh       0.89 kcal/mol
-----------------------------------------------------------------------
Total thermal energy                   -461.37951349 Eh


Summary of corrections to the electronic energy:
(perhaps to be used in another calculation)
Total thermal correction                  0.01212177 Eh       7.61 kcal/mol
Non-thermal (ZPE) correction              0.24129431 Eh     151.41 kcal/mol
-----------------------------------------------------------------------
Total correction                          0.25341608 Eh     159.02 kcal/mol


--------
ENTHALPY
--------

The enthalpy is H = U + kB*T
                kB is Boltzmann's constant
Total free energy                 ...   -461.37951349 Eh 
Thermal Enthalpy correction       ...      0.00094421 Eh       0.59 kcal/mol
-----------------------------------------------------------------------
Total Enthalpy                    ...   -461.37856928 Eh


Note: Only C1 symmetry has been detected, increase convergence thresholds 
      if your molecule has a higher symmetry. Symmetry factor of 1.0 is   
      used for the rotational entropy correction. 
 

Note: Rotational entropy computed according to Herzberg 
Infrared and Raman Spectra, Chapter V,1, Van Nostrand Reinhold, 1945 
Point Group:  C1, Symmetry Number:   1  
Rotational constants in cm-1:     0.091077     0.018628     0.017942 

Vibrational entropy computed according to the QRRHO of S. Grimme
Chem.Eur.J. 2012 18 9955


-------
ENTROPY
-------

The entropy contributions are T*S = T*(S(el)+S(vib)+S(rot)+S(trans))
     S(el)   - electronic entropy
     S(vib)  - vibrational entropy
     S(rot)  - rotational entropy
     S(trans)- translational entropy
The entropies will be listed as multiplied by the temperature to get
units of energy

Electronic entropy                ...      0.00000000 Eh      0.00 kcal/mol
Vibrational entropy               ...      0.01635859 Eh     10.27 kcal/mol
Rotational entropy                ...      0.01442043 Eh      9.05 kcal/mol
Translational entropy             ...      0.01946649 Eh     12.22 kcal/mol
-----------------------------------------------------------------------
Final entropy term                ...      0.05024551 Eh     31.53 kcal/mol

In case the symmetry of your molecule has not been determined correctly
or in case you have a reason to use a different symmetry number we print 
out the resulting rotational entropy values for sn=1,12 :
 --------------------------------------------------------
|  sn= 1 | S(rot)=       0.01442043 Eh      9.05 kcal/mol|
|  sn= 2 | S(rot)=       0.01376597 Eh      8.64 kcal/mol|
|  sn= 3 | S(rot)=       0.01338314 Eh      8.40 kcal/mol|
|  sn= 4 | S(rot)=       0.01311152 Eh      8.23 kcal/mol|
|  sn= 5 | S(rot)=       0.01290083 Eh      8.10 kcal/mol|
|  sn= 6 | S(rot)=       0.01272869 Eh      7.99 kcal/mol|
|  sn= 7 | S(rot)=       0.01258314 Eh      7.90 kcal/mol|
|  sn= 8 | S(rot)=       0.01245706 Eh      7.82 kcal/mol|
|  sn= 9 | S(rot)=       0.01234585 Eh      7.75 kcal/mol|
|  sn=10 | S(rot)=       0.01224637 Eh      7.68 kcal/mol|
|  sn=11 | S(rot)=       0.01215638 Eh      7.63 kcal/mol|
|  sn=12 | S(rot)=       0.01207423 Eh      7.58 kcal/mol|
 --------------------------------------------------------


-------------------
GIBBS FREE ENERGY
-------------------

The Gibbs free energy is G = H - T*S

Total enthalpy                    ...   -461.37856928 Eh 
Total entropy correction          ...     -0.05024551 Eh    -31.53 kcal/mol
-----------------------------------------------------------------------
Final Gibbs free energy         ...   -461.42881479 Eh

For completeness - the Gibbs free energy minus the electronic energy
G-E(el)                           ...      0.20411478 Eh    128.08 kcal/mol


Timings for individual modules:

Sum of individual times         ...     3319.077 sec (=  55.318 min)
GTO integral calculation        ...        1.898 sec (=   0.032 min)   0.1 %
SCF iterations                  ...     1530.314 sec (=  25.505 min)  46.1 %
SCF Gradient evaluation         ...      395.712 sec (=   6.595 min)  11.9 %
Geometry relaxation             ...        0.356 sec (=   0.006 min)   0.0 %
Analytical frequency calculation...     1390.797 sec (=  23.180 min)  41.9 %
                             ****ORCA TERMINATED NORMALLY****
TOTAL RUN TIME: 0 days 0 hours 55 minutes 19 seconds 941 msec
