
                                 *****************
                                 * O   R   C   A *
                                 *****************

                                            #,                                       
                                            ###                                      
                                            ####                                     
                                            #####                                    
                                            ######                                   
                                           ########,                                 
                                     ,,################,,,,,                         
                               ,,#################################,,                 
                          ,,##########################################,,             
                       ,#########################################, ''#####,          
                    ,#############################################,,   '####,        
                  ,##################################################,,,,####,       
                ,###########''''           ''''###############################       
              ,#####''   ,,,,##########,,,,          '''####'''          '####       
            ,##' ,,,,###########################,,,                        '##       
           ' ,,###''''                  '''############,,,                           
         ,,##''                                '''############,,,,        ,,,,,,###''
      ,#''                                            '''#######################'''  
     '                                                          ''''####''''         
             ,#######,   #######,   ,#######,      ##                                
            ,#'     '#,  ##    ##  ,#'     '#,    #''#        ######   ,####,        
            ##       ##  ##   ,#'  ##            #'  '#       #        #'  '#        
            ##       ##  #######   ##           ,######,      #####,   #    #        
            '#,     ,#'  ##    ##  '#,     ,#' ,#      #,         ##   #,  ,#        
             '#######'   ##     ##  '#######'  #'      '#     #####' # '####'        



                  #######################################################
                  #                        -***-                        #
                  #          Department of theory and spectroscopy      #
                  #    Directorship and core code : Frank Neese         #
                  #        Max Planck Institute fuer Kohlenforschung    #
                  #                Kaiser Wilhelm Platz 1               #
                  #                 D-45470 Muelheim/Ruhr               #
                  #                      Germany                        #
                  #                                                     #
                  #                  All rights reserved                #
                  #                        -***-                        #
                  #######################################################


                         Program Version 5.0.4 -  RELEASE  -


 With contributions from (in alphabetic order):
   Daniel Aravena         : Magnetic Suceptibility
   Michael Atanasov       : Ab Initio Ligand Field Theory (pilot matlab implementation)
   Alexander A. Auer      : GIAO ZORA, VPT2 properties, NMR spectrum
   Ute Becker             : Parallelization
   Giovanni Bistoni       : ED, misc. LED, open-shell LED, HFLD
   Martin Brehm           : Molecular dynamics
   Dmytro Bykov           : SCF Hessian
   Vijay G. Chilkuri      : MRCI spin determinant printing, contributions to CSF-ICE
   Dipayan Datta          : RHF DLPNO-CCSD density
   Achintya Kumar Dutta   : EOM-CC, STEOM-CC
   Dmitry Ganyushin       : Spin-Orbit,Spin-Spin,Magnetic field MRCI
   Miquel Garcia          : C-PCM and meta-GGA Hessian, CC/C-PCM, Gaussian charge scheme
   Yang Guo               : DLPNO-NEVPT2, F12-NEVPT2, CIM, IAO-localization
   Andreas Hansen         : Spin unrestricted coupled pair/coupled cluster methods
   Benjamin Helmich-Paris : MC-RPA, TRAH-SCF, COSX integrals
   Lee Huntington         : MR-EOM, pCC
   Robert Izsak           : Overlap fitted RIJCOSX, COSX-SCS-MP3, EOM
   Marcus Kettner         : VPT2
   Christian Kollmar      : KDIIS, OOCD, Brueckner-CCSD(T), CCSD density, CASPT2, CASPT2-K
   Simone Kossmann        : Meta GGA functionals, TD-DFT gradient, OOMP2, MP2 Hessian
   Martin Krupicka        : Initial AUTO-CI
   Lucas Lang             : DCDCAS
   Marvin Lechner         : AUTO-CI (C++ implementation), FIC-MRCC
   Dagmar Lenk            : GEPOL surface, SMD
   Dimitrios Liakos       : Extrapolation schemes; Compound Job, initial MDCI parallelization
   Dimitrios Manganas     : Further ROCIS development; embedding schemes
   Dimitrios Pantazis     : SARC Basis sets
   Anastasios Papadopoulos: AUTO-CI, single reference methods and gradients
   Taras Petrenko         : DFT Hessian,TD-DFT gradient, ASA, ECA, R-Raman, ABS, FL, XAS/XES, NRVS
   Peter Pinski           : DLPNO-MP2, DLPNO-MP2 Gradient
   Christoph Reimann      : Effective Core Potentials
   Marius Retegan         : Local ZFS, SOC
   Christoph Riplinger    : Optimizer, TS searches, QM/MM, DLPNO-CCSD(T), (RO)-DLPNO pert. Triples
   Tobias Risthaus        : Range-separated hybrids, TD-DFT gradient, RPA, STAB
   Michael Roemelt        : Original ROCIS implementation
   Masaaki Saitow         : Open-shell DLPNO-CCSD energy and density
   Barbara Sandhoefer     : DKH picture change effects
   Avijit Sen             : IP-ROCIS
   Kantharuban Sivalingam : CASSCF convergence, NEVPT2, FIC-MRCI
   Bernardo de Souza      : ESD, SOC TD-DFT
   Georgi Stoychev        : AutoAux, RI-MP2 NMR, DLPNO-MP2 response
   Willem Van den Heuvel  : Paramagnetic NMR
   Boris Wezisla          : Elementary symmetry handling
   Frank Wennmohs         : Technical directorship


 We gratefully acknowledge several colleagues who have allowed us to
 interface, adapt or use parts of their codes:
   Stefan Grimme, W. Hujo, H. Kruse, P. Pracht,  : VdW corrections, initial TS optimization,
                  C. Bannwarth, S. Ehlert          DFT functionals, gCP, sTDA/sTD-DF
   Ed Valeev, F. Pavosevic, A. Kumar             : LibInt (2-el integral package), F12 methods
   Garnet Chan, S. Sharma, J. Yang, R. Olivares  : DMRG
   Ulf Ekstrom                                   : XCFun DFT Library
   Mihaly Kallay                                 : mrcc  (arbitrary order and MRCC methods)
   Jiri Pittner, Ondrej Demel                    : Mk-CCSD
   Frank Weinhold                                : gennbo (NPA and NBO analysis)
   Christopher J. Cramer and Donald G. Truhlar   : smd solvation model
   Lars Goerigk                                  : TD-DFT with DH, B97 family of functionals
   V. Asgeirsson, H. Jonsson                     : NEB implementation
   FAccTs GmbH                                   : IRC, NEB, NEB-TS, DLPNO-Multilevel, CI-OPT
                                                   MM, QMMM, 2- and 3-layer-ONIOM, Crystal-QMMM,
                                                   LR-CPCM, SF, NACMEs, symmetry and pop. for TD-DFT,
                                                   nearIR, NL-DFT gradient (VV10), updates on ESD,
                                                   ML-optimized integration grids
   S Lehtola, MJT Oliveira, MAL Marques          : LibXC Library
   Liviu Ungur et al                             : ANISO software


 Your calculation uses the libint2 library for the computation of 2-el integrals
 For citations please refer to: http://libint.valeyev.net

 Your ORCA version has been built with support for libXC version: 5.1.0
 For citations please refer to: https://tddft.org/programs/libxc/

 This ORCA versions uses:
   CBLAS   interface :  Fast vector & matrix operations
   LAPACKE interface :  Fast linear algebra routines
   SCALAPACK package :  Parallel linear algebra routines
   Shared memory     :  Shared parallel matrices
   BLAS/LAPACK       :  OpenBLAS 0.3.15  USE64BITINT DYNAMIC_ARCH NO_AFFINITY SkylakeX SINGLE_THREADED
        Core in use  :  SkylakeX
   Copyright (c) 2011-2014, The OpenBLAS Project




***************************************
The coordinates will be read from file: 4_deprot_aq_8.xyz
***************************************


Your calculation utilizes the atom-pairwise dispersion correction
based on tight binding partial charges (D4)
Cite in your paper:
E.Caldeweyher, C.Bannwarth, S.Grimme, J.Chem.Phys., (2017), 147, 034112.
E.Caldeweyher, S.Ehlert, A.Hansen, H.Neugebauer, S.Grimme, J.Chem.Phys., (2018), in progress.
   

XCFun DFT library Copyright 2009-2010 Ulf Ekstrom and contributors.
See http://admol.org/xcfun for more information.
This is free software; see the source code for copying conditions.
There is ABSOLUTELY NO WARRANTY; not even for MERCHANTABILITY or FITNESS FOR A PARTICULAR PURPOSE.
For details see the documentation.
Scientific users of this library should cite U. Ekstrom, L. Visscher, R. Bast, A. J. Thorvaldsen and K. Ruud;
J.Chem.Theor.Comp. 2010, DOI: 10.1021/ct100117s
XCFun Version 0.99 

================================================================================

----- Orbital basis set information -----
Your calculation utilizes the basis: def2-SVP
   F. Weigend and R. Ahlrichs, Phys. Chem. Chem. Phys. 7, 3297 (2005).

----- AuxJ basis set information -----
Your calculation utilizes the auxiliary basis: def2/J
   F. Weigend, Phys. Chem. Chem. Phys. 8, 1057 (2006).

================================================================================
                                        WARNINGS
                       Please study these warnings very carefully!
================================================================================


WARNING: Geometry Optimization
  ===> : Switching off AutoStart
         For restart on a previous wavefunction, please use MOREAD

INFO   : the flag for use of the SHARK integral package has been found!

================================================================================
                                       INPUT FILE
================================================================================
NAME = 4_deprot_aq_8.inp
|  1> # ORCA 5.0.4 - /users/bwb16179/postgrad/2024_03/DFT_Crest_Conformers/Opt/deprot/4_deprot_aq_8.inp # write input file
|  2> # Basic Mode
|  3> #
|  4> ! Opt Freq wB97X Def2-SVP D4 SlowConv TightSCF Defgrid2 Def2/J RIJCOSX CPCM(Water)
|  5> 
|  6> 
|  7> 
|  8> %maxcore 4500
|  9> 
| 10> %geom
| 11> Maxiter 150
| 12> END
| 13> 
| 14> * xyzfile 0 1 4_deprot_aq_8.xyz
| 15> 
| 16>                          ****END OF INPUT****
================================================================================

                       *****************************
                       * Geometry Optimization Run *
                       *****************************

Geometry optimization settings:
Update method            Update   .... BFGS
Choice of coordinates    CoordSys .... Z-matrix Internals
Initial Hessian          InHess   .... Almoef's Model

Convergence Tolerances:
Energy Change            TolE     ....  5.0000e-06 Eh
Max. Gradient            TolMAXG  ....  3.0000e-04 Eh/bohr
RMS Gradient             TolRMSG  ....  1.0000e-04 Eh/bohr
Max. Displacement        TolMAXD  ....  4.0000e-03 bohr
RMS Displacement         TolRMSD  ....  2.0000e-03 bohr
Strict Convergence                ....  False
------------------------------------------------------------------------------
                        ORCA OPTIMIZATION COORDINATE SETUP
------------------------------------------------------------------------------

The optimization will be done in new redundant internal coordinates
Making redundant internal coordinates   ...  (new redundants) done
Evaluating the initial hessian          ...  (Almloef) done
Evaluating the coordinates              ...  done
Calculating the B-matrix                .... done
Calculating the G-matrix                .... done
Diagonalizing the G-matrix              .... done
Small eigenvalue found = 1.338e-02
Small eigenvalue found = 2.521e-02
The first mode is                       ....   65
The number of degrees of freedom        ....   75

    -----------------------------------------------------------------
                    Redundant Internal Coordinates


    -----------------------------------------------------------------
         Definition                    Initial Value    Approx d2E/dq
    -----------------------------------------------------------------
      1. B(C   1,N   0)                  1.3553         0.635580   
      2. B(N   2,C   1)                  1.3609         0.622822   
      3. B(C   3,N   2)                  1.3731         0.595466   
      4. B(C   4,C   3)                  1.3523         0.717594   
      5. B(C   4,N   0)                  1.3723         0.597187   
      6. B(C   5,N   0)                  1.4425         0.461440   
      7. B(C   6,N   2)                  1.4504         0.448296   
      8. B(C   7,C   5)                  1.5293         0.374591   
      9. B(H   8,C   5)                  1.0962         0.352042   
     10. B(C   9,C   5)                  1.5292         0.374633   
     11. B(H  10,C   6)                  1.1012         0.345647   
     12. B(C  11,C   6)                  1.5283         0.375877   
     13. B(C  12,C   6)                  1.5263         0.378749   
     14. B(H  13,C   3)                  1.0699         0.387722   
     15. B(H  14,C   4)                  1.0709         0.386278   
     16. B(H  15,C   9)                  1.0876         0.363249   
     17. B(H  16,C   9)                  1.0879         0.362846   
     18. B(H  17,C   9)                  1.0867         0.364435   
     19. B(H  18,C   7)                  1.0876         0.363229   
     20. B(H  19,C   7)                  1.0867         0.364434   
     21. B(H  20,C   7)                  1.0879         0.362842   
     22. B(H  21,C  12)                  1.0876         0.363258   
     23. B(H  22,C  12)                  1.0871         0.363952   
     24. B(H  23,C  12)                  1.0883         0.362317   
     25. B(H  24,C  11)                  1.0875         0.363447   
     26. B(H  25,C  11)                  1.0867         0.364549   
     27. B(H  26,C  11)                  1.0857         0.365796   
     28. A(C   1,N   0,C   5)          122.9078         0.408250   
     29. A(C   4,N   0,C   5)          125.3059         0.403780   
     30. A(C   1,N   0,C   4)          111.7862         0.427439   
     31. A(N   0,C   1,N   2)          103.6453         0.430674   
     32. A(C   1,N   2,C   6)          122.0405         0.404717   
     33. A(C   1,N   2,C   3)          111.4284         0.425669   
     34. A(C   3,N   2,C   6)          126.4860         0.401523   
     35. A(N   2,C   3,C   4)          106.6745         0.439521   
     36. A(C   4,C   3,H  13)          129.3491         0.366389   
     37. A(N   2,C   3,H  13)          123.9763         0.352731   
     38. A(N   0,C   4,H  14)          123.5162         0.352681   
     39. A(C   3,C   4,H  14)          130.0203         0.366154   
     40. A(N   0,C   4,C   3)          106.4635         0.439750   
     41. A(H   8,C   5,C   9)          109.2132         0.323267   
     42. A(C   7,C   5,C   9)          111.2968         0.363696   
     43. A(N   0,C   5,C   9)          110.7715         0.374602   
     44. A(C   7,C   5,H   8)          109.2260         0.323261   
     45. A(N   0,C   5,H   8)          105.3749         0.332561   
     46. A(N   0,C   5,C   7)          110.7680         0.374594   
     47. A(H  10,C   6,C  11)          108.3824         0.322472   
     48. A(N   2,C   6,C  11)          109.0938         0.372953   
     49. A(C  11,C   6,C  12)          110.4989         0.364590   
     50. A(H  10,C   6,C  12)          108.6408         0.322874   
     51. A(N   2,C   6,C  12)          112.1728         0.373442   
     52. A(N   2,C   6,H  10)          107.9466         0.329971   
     53. A(H  19,C   7,H  20)          108.5040         0.291734   
     54. A(H  18,C   7,H  20)          108.6101         0.291583   
     55. A(C   5,C   7,H  20)          110.7503         0.324868   
     56. A(H  18,C   7,H  19)          108.7073         0.291783   
     57. A(C   5,C   7,H  19)          110.0957         0.325102   
     58. A(C   5,C   7,H  18)          110.1200         0.324925   
     59. A(H  16,C   9,H  17)          108.5242         0.291735   
     60. A(H  15,C   9,H  17)          108.7098         0.291786   
     61. A(C   5,C   9,H  17)          110.0898         0.325108   
     62. A(H  15,C   9,H  16)          108.6080         0.291586   
     63. A(C   5,C   9,H  16)          110.7543         0.324875   
     64. A(C   5,C   9,H  15)          110.1019         0.324934   
     65. A(H  25,C  11,H  26)          109.6063         0.292121   
     66. A(H  24,C  11,H  26)          108.5283         0.291982   
     67. A(H  24,C  11,H  25)          109.0063         0.291826   
     68. A(C   6,C  11,H  25)          110.2807         0.325302   
     69. A(C   6,C  11,H  24)          110.0677         0.325140   
     70. A(C   6,C  11,H  26)          109.3239         0.325485   
     71. A(H  22,C  12,H  23)          108.4521         0.291607   
     72. A(H  21,C  12,H  23)          109.1023         0.291520   
     73. A(C   6,C  12,H  23)          110.4492         0.325381   
     74. A(H  21,C  12,H  22)          107.9907         0.291726   
     75. A(C   6,C  12,H  22)          109.2150         0.325622   
     76. A(C   6,C  12,H  21)          111.5484         0.325520   
     77. D(N   2,C   1,N   0,C   4)      0.2858         0.029748   
     78. D(N   2,C   1,N   0,C   5)   -179.6353         0.029748   
     79. D(C   3,N   2,C   1,N   0)     -0.4492         0.028479   
     80. D(C   6,N   2,C   1,N   0)   -178.1547         0.028479   
     81. D(H  13,C   3,N   2,C   6)     -2.0621         0.028541   
     82. D(C   4,C   3,N   2,C   1)      0.4514         0.028541   
     83. D(H  13,C   3,N   2,C   1)   -179.6430         0.028541   
     84. D(C   4,C   3,N   2,C   6)    178.0322         0.028541   
     85. D(H  14,C   4,C   3,N   2)    179.6760         0.036424   
     86. D(H  14,C   4,N   0,C   5)     -0.0377         0.028718   
     87. D(N   0,C   4,C   3,N   2)     -0.2521         0.036424   
     88. D(N   0,C   4,C   3,H  13)    179.8491         0.036424   
     89. D(C   3,C   4,N   0,C   5)    179.8962         0.028718   
     90. D(C   3,C   4,N   0,C   1)     -0.0227         0.028718   
     91. D(H  14,C   4,C   3,H  13)     -0.2228         0.036424   
     92. D(H  14,C   4,N   0,C   1)   -179.9566         0.028718   
     93. D(H   8,C   5,N   0,C   4)   -179.7596         0.018178   
     94. D(C   9,C   5,N   0,C   4)     62.2501         0.018178   
     95. D(H   8,C   5,N   0,C   1)      0.1507         0.018178   
     96. D(C   9,C   5,N   0,C   1)   -117.8396         0.018178   
     97. D(C   7,C   5,N   0,C   4)    -61.7560         0.018178   
     98. D(C   7,C   5,N   0,C   1)    118.1544         0.018178   
     99. D(C  12,C   6,N   2,C   3)     18.5260         0.017143   
    100. D(C  11,C   6,N   2,C   3)    141.2943         0.017143   
    101. D(C  11,C   6,N   2,C   1)    -41.3625         0.017143   
    102. D(C  12,C   6,N   2,C   1)   -164.1307         0.017143   
    103. D(H  10,C   6,N   2,C   3)   -101.1312         0.017143   
    104. D(H  10,C   6,N   2,C   1)     76.2121         0.017143   
    105. D(H  18,C   7,C   5,H   8)     60.4466         0.011201   
    106. D(H  18,C   7,C   5,N   0)    -55.1836         0.011201   
    107. D(H  18,C   7,C   5,C   9)   -178.8885         0.011201   
    108. D(H  20,C   7,C   5,C   9)    -58.7403         0.011201   
    109. D(H  20,C   7,C   5,H   8)   -179.4051         0.011201   
    110. D(H  20,C   7,C   5,N   0)     64.9647         0.011201   
    111. D(H  19,C   7,C   5,C   9)     61.2599         0.011201   
    112. D(H  19,C   7,C   5,H   8)    -59.4049         0.011201   
    113. D(H  19,C   7,C   5,N   0)   -175.0351         0.011201   
    114. D(H  17,C   9,C   5,H   8)     59.5370         0.011203   
    115. D(H  17,C   9,C   5,C   7)    -61.1354         0.011203   
    116. D(H  17,C   9,C   5,N   0)    175.1617         0.011203   
    117. D(H  16,C   9,C   5,H   8)    179.5611         0.011203   
    118. D(H  16,C   9,C   5,C   7)     58.8887         0.011203   
    119. D(H  16,C   9,C   5,N   0)    -64.8143         0.011203   
    120. D(H  15,C   9,C   5,H   8)    -60.3024         0.011203   
    121. D(H  15,C   9,C   5,C   7)    179.0252         0.011203   
    122. D(H  15,C   9,C   5,N   0)     55.3222         0.011203   
    123. D(H  26,C  11,C   6,H  10)    -64.3965         0.011274   
    124. D(H  26,C  11,C   6,N   2)     52.9026         0.011274   
    125. D(H  25,C  11,C   6,C  12)    -62.7573         0.011274   
    126. D(H  25,C  11,C   6,H  10)     56.1786         0.011274   
    127. D(H  25,C  11,C   6,N   2)    173.4777         0.011274   
    128. D(H  24,C  11,C   6,C  12)     57.5495         0.011274   
    129. D(H  24,C  11,C   6,H  10)    176.4855         0.011274   
    130. D(H  26,C  11,C   6,C  12)    176.6675         0.011274   
    131. D(H  24,C  11,C   6,N   2)    -66.2154         0.011274   
    132. D(H  23,C  12,C   6,N   2)     55.4677         0.011437   
    133. D(H  22,C  12,C   6,C  11)     52.6861         0.011437   
    134. D(H  22,C  12,C   6,H  10)    -66.0928         0.011437   
    135. D(H  22,C  12,C   6,N   2)    174.6564         0.011437   
    136. D(H  21,C  12,C   6,C  11)    171.9802         0.011437   
    137. D(H  21,C  12,C   6,H  10)     53.2013         0.011437   
    138. D(H  23,C  12,C   6,H  10)    174.7185         0.011437   
    139. D(H  21,C  12,C   6,N   2)    -66.0495         0.011437   
    140. D(H  23,C  12,C   6,C  11)    -66.5026         0.011437   
    -----------------------------------------------------------------

Number of atoms                         .... 27
Number of degrees of freedom            .... 140

         *************************************************************
         *                GEOMETRY OPTIMIZATION CYCLE   1            *
         *************************************************************
---------------------------------
CARTESIAN COORDINATES (ANGSTROEM)
---------------------------------
  N     -1.040346   -0.020784    0.046225
  C      0.072395    0.134364    0.804307
  N      1.083269   -0.229156   -0.031115
  C      0.605736   -0.606083   -1.262074
  C     -0.738949   -0.470790   -1.214675
  C     -2.367464    0.263341    0.534936
  C      2.468166   -0.247718    0.399321
  C     -3.017251    1.382579   -0.279755
  H     -2.230279    0.602040    1.568391
  C     -3.229363   -0.999847    0.529558
  H      2.617988   -1.143515    1.021925
  C      2.741537    0.986970    1.257574
  C      3.436804   -0.304852   -0.778785
  H      1.226441   -0.934445   -2.069261
  H     -1.476806   -0.657101   -1.968119
  H     -2.741694   -1.787557    1.099322
  H     -3.388077   -1.353942   -0.486820
  H     -4.197324   -0.793204    0.978290
  H     -2.380007    2.263993   -0.279402
  H     -3.979167    1.647742    0.150845
  H     -3.174679    1.068387   -1.309368
  H      3.352154   -1.244250   -1.320347
  H      4.455560   -0.221245   -0.408729
  H      3.250627    0.519568   -1.464445
  H      2.661788    1.887081    0.652549
  H      3.739228    0.935149    1.685068
  H      2.006066    1.040607    2.054449

----------------------------
CARTESIAN COORDINATES (A.U.)
----------------------------
  NO LB      ZA    FRAG     MASS         X           Y           Z
   0 N     7.0000    0    14.007   -1.965970   -0.039277    0.087353
   1 C     6.0000    0    12.011    0.136806    0.253911    1.519921
   2 N     7.0000    0    14.007    2.047081   -0.433042   -0.058799
   3 C     6.0000    0    12.011    1.144675   -1.145331   -2.384975
   4 C     6.0000    0    12.011   -1.396412   -0.889664   -2.295403
   5 C     6.0000    0    12.011   -4.473858    0.497642    1.010882
   6 C     6.0000    0    12.011    4.664159   -0.468120    0.754607
   7 C     6.0000    0    12.011   -5.701778    2.612696   -0.528661
   8 H     1.0000    0     1.008   -4.214616    1.137690    2.963830
   9 C     6.0000    0    12.011   -6.102612   -1.889437    1.000719
  10 H     1.0000    0     1.008    4.947279   -2.160930    1.931158
  11 C     6.0000    0    12.011    5.180754    1.865103    2.376470
  12 C     6.0000    0    12.011    6.494619   -0.576087   -1.471689
  13 H     1.0000    0     1.008    2.317637   -1.765845   -3.910336
  14 H     1.0000    0     1.008   -2.790759   -1.241741   -3.719205
  15 H     1.0000    0     1.008   -5.181051   -3.377992    2.077418
  16 H     1.0000    0     1.008   -6.402538   -2.558580   -0.919956
  17 H     1.0000    0     1.008   -7.931793   -1.498938    1.848699
  18 H     1.0000    0     1.008   -4.497561    4.278327   -0.527993
  19 H     1.0000    0     1.008   -7.519536    3.113781    0.285056
  20 H     1.0000    0     1.008   -5.999274    2.018959   -2.474347
  21 H     1.0000    0     1.008    6.334653   -2.351292   -2.495094
  22 H     1.0000    0     1.008    8.419788   -0.418093   -0.772386
  23 H     1.0000    0     1.008    6.142796    0.981841   -2.767400
  24 H     1.0000    0     1.008    5.030051    3.566067    1.233139
  25 H     1.0000    0     1.008    7.066117    1.767175    3.184317
  26 H     1.0000    0     1.008    3.790916    1.966463    3.882346

--------------------------------
INTERNAL COORDINATES (ANGSTROEM)
--------------------------------
 N      0   0   0     0.000000000000     0.00000000     0.00000000
 C      1   0   0     1.355342029995     0.00000000     0.00000000
 N      2   1   0     1.360861515290   103.64533920     0.00000000
 C      3   2   1     1.373088424585   111.42843417   359.55080554
 C      4   3   2     1.352304774298   106.67449802     0.45139122
 C      1   2   3     1.442499600229   122.90780417   180.36465149
 C      3   2   1     1.450366142241   122.04048232   181.84526470
 C      6   1   2     1.529260681695   110.76800773   118.15437710
 H      6   1   2     1.096160173992   105.37492062     0.15070139
 C      6   1   2     1.529229855198   110.77152560   242.16042236
 H      7   3   2     1.101151121413   107.94659343    76.21206386
 C      7   3   2     1.528327219009   109.09375302   318.63752516
 C      7   3   2     1.526255586914   112.17279153   195.86927962
 H      4   3   2     1.069881612202   123.97634553   180.35703193
 H      5   4   3     1.070897572894   130.02032260   179.67597041
 H     10   6   1     1.087630076147   110.10189215    55.32224683
 H     10   6   1     1.087932380183   110.75430408   295.18573834
 H     10   6   1     1.086742801700   110.08978041   175.16168083
 H      8   6   1     1.087644731356   110.11999556   304.81640210
 H      8   6   1     1.086743280463   110.09569647   184.96486730
 H      8   6   1     1.087935324883   110.75032731    64.96466420
 H     13   7   3     1.087623122389   111.54839220   293.95047746
 H     13   7   3     1.087103292860   109.21497922   174.65639045
 H     13   7   3     1.088329275992   110.44924158    55.46773519
 H     12   7   3     1.087481251642   110.06770474   293.78456997
 H     12   7   3     1.086657209095   110.28069127   173.47774994
 H     12   7   3     1.085727605314   109.32387527    52.90257039

---------------------------
INTERNAL COORDINATES (A.U.)
---------------------------
 N      0   0   0     0.000000000000     0.00000000     0.00000000
 C      1   0   0     2.561225254484     0.00000000     0.00000000
 N      2   1   0     2.571655570092   103.64533920     0.00000000
 C      3   2   1     2.594761080124   111.42843417   359.55080554
 C      4   3   2     2.555485673018   106.67449802     0.45139122
 C      1   2   3     2.725929192723   122.90780417   180.36465149
 C      3   2   1     2.740794802747   122.04048232   181.84526470
 C      6   1   2     2.889883875777   110.76800773   118.15437710
 H      6   1   2     2.071442527756   105.37492062     0.15070139
 C      6   1   2     2.889825622140   110.77152560   242.16042236
 H      7   3   2     2.080874051532   107.94659343    76.21206386
 C      7   3   2     2.888119886945   109.09375302   318.63752516
 C      7   3   2     2.884205069634   112.17279153   195.86927962
 H      4   3   2     2.021783242780   123.97634553   180.35703193
 H      5   4   3     2.023703130251   130.02032260   179.67597041
 H     10   6   1     2.055322978934   110.10189215    55.32224683
 H     10   6   1     2.055894250770   110.75430408   295.18573834
 H     10   6   1     2.053646273223   110.08978041   175.16168083
 H      8   6   1     2.055350673266   110.11999556   304.81640210
 H      8   6   1     2.053647177954   110.09569647   184.96486730
 H      8   6   1     2.055899815447   110.75032731    64.96466420
 H     13   7   3     2.055309838235   111.54839220   293.95047746
 H     13   7   3     2.054327502790   109.21497922   174.65639045
 H     13   7   3     2.056644275154   110.44924158    55.46773519
 H     12   7   3     2.055041741378   110.06770474   293.78456997
 H     12   7   3     2.053484526640   110.28069127   173.47774994
 H     12   7   3     2.051727830081   109.32387527    52.90257039

---------------------
BASIS SET INFORMATION
---------------------
There are 3 groups of distinct atoms

 Group   1 Type N   : 7s4p1d contracted to 3s2p1d pattern {511/31/1}
 Group   2 Type C   : 7s4p1d contracted to 3s2p1d pattern {511/31/1}
 Group   3 Type H   : 4s1p contracted to 2s1p pattern {31/1}

Atom   0N    basis set group =>   1
Atom   1C    basis set group =>   2
Atom   2N    basis set group =>   1
Atom   3C    basis set group =>   2
Atom   4C    basis set group =>   2
Atom   5C    basis set group =>   2
Atom   6C    basis set group =>   2
Atom   7C    basis set group =>   2
Atom   8H    basis set group =>   3
Atom   9C    basis set group =>   2
Atom  10H    basis set group =>   3
Atom  11C    basis set group =>   2
Atom  12C    basis set group =>   2
Atom  13H    basis set group =>   3
Atom  14H    basis set group =>   3
Atom  15H    basis set group =>   3
Atom  16H    basis set group =>   3
Atom  17H    basis set group =>   3
Atom  18H    basis set group =>   3
Atom  19H    basis set group =>   3
Atom  20H    basis set group =>   3
Atom  21H    basis set group =>   3
Atom  22H    basis set group =>   3
Atom  23H    basis set group =>   3
Atom  24H    basis set group =>   3
Atom  25H    basis set group =>   3
Atom  26H    basis set group =>   3
---------------------------------
AUXILIARY/J BASIS SET INFORMATION
---------------------------------
There are 3 groups of distinct atoms

 Group   1 Type N   : 12s5p4d2f1g contracted to 6s4p3d1f1g pattern {711111/2111/211/2/1}
 Group   2 Type C   : 12s5p4d2f1g contracted to 6s4p3d1f1g pattern {711111/2111/211/2/1}
 Group   3 Type H   : 5s2p1d contracted to 3s1p1d pattern {311/2/1}

Atom   0N    basis set group =>   1
Atom   1C    basis set group =>   2
Atom   2N    basis set group =>   1
Atom   3C    basis set group =>   2
Atom   4C    basis set group =>   2
Atom   5C    basis set group =>   2
Atom   6C    basis set group =>   2
Atom   7C    basis set group =>   2
Atom   8H    basis set group =>   3
Atom   9C    basis set group =>   2
Atom  10H    basis set group =>   3
Atom  11C    basis set group =>   2
Atom  12C    basis set group =>   2
Atom  13H    basis set group =>   3
Atom  14H    basis set group =>   3
Atom  15H    basis set group =>   3
Atom  16H    basis set group =>   3
Atom  17H    basis set group =>   3
Atom  18H    basis set group =>   3
Atom  19H    basis set group =>   3
Atom  20H    basis set group =>   3
Atom  21H    basis set group =>   3
Atom  22H    basis set group =>   3
Atom  23H    basis set group =>   3
Atom  24H    basis set group =>   3
Atom  25H    basis set group =>   3
Atom  26H    basis set group =>   3
------------------------------------------------------------------------------
                           ORCA GTO INTEGRAL CALCULATION
                           -- RI-GTO INTEGRALS CHOSEN --
------------------------------------------------------------------------------
------------------------------------------------------------------------------
                   ___                                                        
                  /   \      - P O W E R E D   B Y -                         
                 /     \                                                     
                 |  |  |   _    _      __       _____    __    __             
                 |  |  |  | |  | |    /  \     |  _  \  |  |  /  |          
                  \  \/   | |  | |   /    \    | | | |  |  | /  /          
                 / \  \   | |__| |  /  /\  \   | |_| |  |  |/  /          
                |  |  |   |  __  | /  /__\  \  |    /   |      \           
                |  |  |   | |  | | |   __   |  |    \   |  |\   \          
                \     /   | |  | | |  |  |  |  | |\  \  |  | \   \       
                 \___/    |_|  |_| |__|  |__|  |_| \__\ |__|  \__/        
                                                                              
                      - O R C A' S   B I G   F R I E N D -                    
                                      &                                       
                       - I N T E G R A L  F E E D E R -                       
                                                                              
 v1 FN, 2020, v2 2021                                                         
------------------------------------------------------------------------------


Reading SHARK input file 4_deprot_aq_8.SHARKINP.tmp ... ok
----------------------
SHARK INTEGRAL PACKAGE
----------------------

Number of atoms                             ...     27
Number of basis functions                   ...    234
Number of shells                            ...    114
Maximum angular momentum                    ...      2
Integral batch strategy                     ... SHARK/LIBINT Hybrid
RI-J (if used) integral strategy            ... SPLIT-RIJ (Revised 2003 algorithm where possible)
Printlevel                                  ...      1
Contraction scheme used                     ... SEGMENTED contraction
Coulomb Range Separation                    ... NOT USED
Exchange Range Separation                   ... Long Range
   Mu parameter                             ...  0.300000
   Scaling (regular/separated)              ...  0.157706  0.842294
Finite Nucleus Model                        ... NOT USED
Auxiliary Coulomb fitting basis             ... AVAILABLE
   # of basis functions in Aux-J            ...    715
   # of shells in Aux-J                     ...    245
   Maximum angular momentum in Aux-J        ...      4
Auxiliary J/K fitting basis                 ... NOT available
Auxiliary Correlation fitting basis         ... NOT available
Auxiliary 'external' fitting basis          ... NOT available
Integral threshold                          ...     2.500000e-11
Primitive cut-off                           ...     2.500000e-12
Primitive pair pre-selection threshold      ...     2.500000e-12

Calculating pre-screening integrals         ... done (  0.0 sec) Dimension = 114
Organizing shell pair data                  ... done (  0.0 sec)
Shell pair information
Total number of shell pairs                 ...      6555
Shell pairs after pre-screening             ...      5692
Total number of primitive shell pairs       ...     22769
Primitive shell pairs kept                  ...     14071
          la=0 lb=0:   1917 shell pairs
          la=1 lb=0:   2141 shell pairs
          la=1 lb=1:    617 shell pairs
          la=2 lb=0:    613 shell pairs
          la=2 lb=1:    347 shell pairs
          la=2 lb=2:     57 shell pairs

Calculating one electron integrals          ... done (  0.0 sec)
Calculating RI/J V-Matrix + Cholesky decomp.... done (  0.0 sec)
Calculating Nuclear repulsion               ... done (  0.0 sec) ENN=    636.240791598128 Eh

SHARK setup successfully completed in   0.3 seconds

Maximum memory used throughout the entire GTOINT-calculation: 35.3 MB
-------------------------------------------------------------------------------
                                 ORCA SCF
-------------------------------------------------------------------------------

------------
SCF SETTINGS
------------
Hamiltonian:
 Density Functional     Method          .... DFT(GTOs)
 Exchange Functional    Exchange        .... WB97X
 Correlation Functional Correlation     .... WB97X
 Gradients option       PostSCFGGA      .... off
 Hybrid DFT is turned on
   Fraction HF Exchange ScalHFX         ....  0.157706
   Scaling of DF-GGA-X  ScalDFX         ....  0.000000
   Scaling of DF-GGA-C  ScalDFC         ....  1.000000
   Scaling of DF-LDA-C  ScalLDAC        ....  1.000000
   Perturbative correction              ....  0.000000
   Density functional embedding theory  .... OFF
 Long-range corrected/Screened/Range-Separated Hybrid DFT is turned on
   Amount of maximum screened exact exchange              ....  0.842294
   Range separation parameter mu (erf(mu*r12)/r12)        ....  0.300000
 RI-approximation to the Coulomb term is turned on
   Number of AuxJ basis functions       .... 715
   RIJ-COSX (HFX calculated with COS-X)).... on


General Settings:
 Integral files         IntName         .... 4_deprot_aq_8
 Hartree-Fock type      HFTyp           .... RHF
 Total Charge           Charge          ....    0
 Multiplicity           Mult            ....    1
 Number of Electrons    NEL             ....   84
 Basis Dimension        Dim             ....  234
 Nuclear Repulsion      ENuc            ....    636.2407915981 Eh

Convergence Acceleration:
 DIIS                   CNVDIIS         .... on
   Start iteration      DIISMaxIt       ....     0
   Startup error        DIISStart       ....  0.200000
   # of expansion vecs  DIISMaxEq       ....     5
   Bias factor          DIISBfac        ....   1.050
   Max. coefficient     DIISMaxC        ....  10.000
 Trust-Rad. Augm. Hess. CNVTRAH         .... auto
   Auto Start mean grad. ratio tolernc. ....  1.125000
   Auto Start start iteration           ....    20
   Auto Start num. interpolation iter.  ....    10
   Max. Number of Micro iterations      ....    16
   Max. Number of Macro iterations      .... Maxiter - #DIIS iter
   Number of Davidson start vectors     ....     2
   Converg. threshold I  (grad. norm)   ....   1.000e-05
   Converg. threshold II (energy diff.) ....   1.000e-08
   Grad. Scal. Fac. for Micro threshold ....   0.100
   Minimum threshold for Micro iter.    ....   0.010
   NR start threshold (gradient norm)   ....   0.001
   Initial trust radius                 ....   0.400
   Minimum AH scaling param. (alpha)    ....   1.000
   Maximum AH scaling param. (alpha)    .... 1000.000
   Orbital update algorithm             .... Taylor
   White noise on init. David. guess    .... on
   Maximum white noise                  ....   0.010
   Quad. conv. algorithm                .... NR
 SOSCF                  CNVSOSCF        .... on
   Start iteration      SOSCFMaxIt      ....   150
   Startup grad/error   SOSCFStart      ....  0.001000
 Level Shifting         CNVShift        .... on
   Level shift para.    LevelShift      ....    0.2500
   Turn off err/grad.   ShiftErr        ....    0.0000
 Zerner damping         CNVZerner       .... off
 Static damping         CNVDamp         .... on
   Fraction old density DampFac         ....    0.8500
   Max. Damping (<1)    DampMax         ....    0.9800
   Min. Damping (>=0)   DampMin         ....    0.0000
   Turn off err/grad.   DampErr         ....    0.0300
 Fernandez-Rico         CNVRico         .... off

SCF Procedure:
 Maximum # iterations   MaxIter         ....   125
 SCF integral mode      SCFMode         .... Direct
   Integral package                     .... SHARK and LIBINT hybrid scheme
 Reset frequency        DirectResetFreq ....    20
 Integral Threshold     Thresh          ....  2.500e-11 Eh
 Primitive CutOff       TCut            ....  2.500e-12 Eh

Convergence Tolerance:
 Convergence Check Mode ConvCheckMode   .... Total+1el-Energy
 Convergence forced     ConvForced      .... 0
 Energy Change          TolE            ....  1.000e-08 Eh
 1-El. energy change                    ....  1.000e-05 Eh
 Orbital Gradient       TolG            ....  1.000e-05
 Orbital Rotation angle TolX            ....  1.000e-05
 DIIS Error             TolErr          ....  5.000e-07


Diagonalization of the overlap matrix:
Smallest eigenvalue                        ... 1.160e-03
Time for diagonalization                   ...    0.009 sec
Threshold for overlap eigenvalues          ... 1.000e-08
Number of eigenvalues below threshold      ... 0
Time for construction of square roots      ...    0.004 sec
Total time needed                          ...    0.013 sec

Time for model grid setup =    0.451 sec

------------------------------
INITIAL GUESS: MODEL POTENTIAL
------------------------------
Loading Hartree-Fock densities                     ... done
Calculating cut-offs                               ... done
Initializing the effective Hamiltonian             ... done
Setting up the integral package (SHARK)            ... done
Starting the Coulomb interaction                   ... done (   0.5 sec)
Reading the grid                                   ... done
Mapping shells                                     ... done
Starting the XC term evaluation                    ... done (   0.5 sec)
  promolecular density results
     # of electrons  =     83.995274683
     EX              =    -63.901968852
     EC              =     -2.784497692
     EX+EC           =    -66.686466545
Transforming the Hamiltonian                       ... done (   0.0 sec)
Diagonalizing the Hamiltonian                      ... done (   0.0 sec)
Back transforming the eigenvectors                 ... done (   0.0 sec)
Now organizing SCF variables                       ... done
                      ------------------
                      INITIAL GUESS DONE (   1.5 sec)
                      ------------------
-------------------
DFT GRID GENERATION
-------------------

General Integration Accuracy     IntAcc      ... 4.388
Radial Grid Type                 RadialGrid  ... OptM3 with GC (2021)
Angular Grid (max. ang.)         AngularGrid ... 4 (Lebedev-302)
Angular grid pruning method      GridPruning ... 4 (adaptive)
Weight generation scheme         WeightScheme... Becke
Basis function cutoff            BFCut       ... 1.0000e-11
Integration weight cutoff        WCut        ... 1.0000e-14
Angular grids for H and He will be reduced by one unit
Partially contracted basis set               ... off
Rotationally invariant grid construction     ... off

Total number of grid points                  ...   117019
Total number of batches                      ...     1842
Average number of points per batch           ...       63
Average number of grid points per atom       ...     4334
Time for grid setup =    1.670 sec

--------------------
COSX GRID GENERATION
--------------------

GRIDX 1
-------
General Integration Accuracy     IntAcc      ... 3.816
Radial Grid Type                 RadialGrid  ... OptM3 with GC (2021)
Angular Grid (max. ang.)         AngularGrid ... 1 (Lebedev-50)
Angular grid pruning method      GridPruning ... 4 (adaptive)
Weight generation scheme         WeightScheme... Becke
Basis function cutoff            BFCut       ... 1.0000e-11
Integration weight cutoff        WCut        ... 1.0000e-14
Angular grids for H and He will be reduced by one unit
Partially contracted basis set               ... on
Rotationally invariant grid construction     ... off

Total number of grid points                  ...    14977
Total number of batches                      ...      247
Average number of points per batch           ...       60
Average number of grid points per atom       ...      555
UseSFitting                                  ... on

GRIDX 2
-------
General Integration Accuracy     IntAcc      ... 4.020
Radial Grid Type                 RadialGrid  ... OptM3 with GC (2021)
Angular Grid (max. ang.)         AngularGrid ... 2 (Lebedev-110)
Angular grid pruning method      GridPruning ... 4 (adaptive)
Weight generation scheme         WeightScheme... Becke
Basis function cutoff            BFCut       ... 1.0000e-11
Integration weight cutoff        WCut        ... 1.0000e-14
Angular grids for H and He will be reduced by one unit
Partially contracted basis set               ... on
Rotationally invariant grid construction     ... off

Total number of grid points                  ...    31432
Total number of batches                      ...      505
Average number of points per batch           ...       62
Average number of grid points per atom       ...     1164
UseSFitting                                  ... on

GRIDX 3
-------
General Integration Accuracy     IntAcc      ... 4.338
Radial Grid Type                 RadialGrid  ... OptM3 with GC (2021)
Angular Grid (max. ang.)         AngularGrid ... 3 (Lebedev-194)
Angular grid pruning method      GridPruning ... 4 (adaptive)
Weight generation scheme         WeightScheme... Becke
Basis function cutoff            BFCut       ... 1.0000e-11
Integration weight cutoff        WCut        ... 1.0000e-14
Angular grids for H and He will be reduced by one unit
Partially contracted basis set               ... on
Rotationally invariant grid construction     ... off

Total number of grid points                  ...    68547
Total number of batches                      ...     1086
Average number of points per batch           ...       63
Average number of grid points per atom       ...     2539
UseSFitting                                  ... on

Time for X-Grid setup             =    2.163 sec


--------------------
CPCM SOLVATION MODEL
--------------------
CPCM parameters:
  Epsilon                                         ...      80.4000
  Refrac                                          ...       1.3300
  Rsolv                                           ...       1.3000
  Surface type                                    ... GAUSSIAN VDW
  Epsilon function type                           ...         CPCM
Radii:
 Radius for N  used is    3.5149 Bohr (=   1.8600 Ang.)
 Radius for C  used is    3.8550 Bohr (=   2.0400 Ang.)
 Radius for H  used is    2.4944 Bohr (=   1.3200 Ang.)
Calculating surface                               ...        done! (  0.0s)
GEPOL surface points                              ...         1451
GEPOL Volume                                      ...    1424.4545
GEPOL Surface-area                                ...     788.7482
Calculating surface distance matrix               ...        done! (  0.0s)
Performing Cholesky decomposition & store         ...        done! (  0.1s)
Overall time for CPCM initialization              ...                 0.1s
--------------
SCF ITERATIONS
--------------
ITER       Energy         Delta-E        Max-DP      RMS-DP      [F,P]     Damp
               ***  Starting incremental Fock matrix formation  ***
  0   -461.3648936487   0.000000000000 0.03872991  0.00073859  0.1575912 0.8500
  1   -461.4172262990  -0.052332650330 0.04203670  0.00070791  0.1272569 0.8500
                               ***Turning on DIIS***
  2   -461.4573426448  -0.040116345761 0.03746874  0.00058442  0.0979870 0.8500
  3   -461.4873145261  -0.029971881313 0.03120049  0.00042189  0.0745225 0.8500
  4   -461.5104890602  -0.023174534148 0.02607865  0.00032479  0.0594525 0.8500
  5   -461.5287629904  -0.018273930201 0.02206061  0.00026641  0.0492185 0.8500
  6   -461.5436081907  -0.014845200251 0.01881057  0.00022462  0.0414277 0.8500
  7   -461.5558797545  -0.012271563850 0.01617470  0.00019321  0.0351017 0.8500
  8   -461.5661307931  -0.010251038593 0.09313252  0.00110946  0.0296959 0.0000
  9   -461.6211864103  -0.055055617154 0.00164898  0.00004042  0.0012861 0.0000
                      *** Initiating the SOSCF procedure ***
                           *** Shutting down DIIS ***
                      *** Re-Reading the Fockian *** 
                      *** Removing any level shift *** 
ITER      Energy       Delta-E        Grad      Rot      Max-DP    RMS-DP
 10   -461.62120784  -0.0000214310  0.000198  0.000198  0.000755  0.000020
               *** Restarting incremental Fock matrix formation ***
 11   -461.62118519   0.0000226485  0.000156  0.000350  0.000866  0.000015
 12   -461.62118602  -0.0000008284  0.000043  0.000210  0.000293  0.000010
 13   -461.62118625  -0.0000002291  0.000018  0.000019  0.000200  0.000003
 14   -461.62118628  -0.0000000300  0.000006  0.000014  0.000073  0.000001
 15   -461.62118629  -0.0000000058  0.000004  0.000008  0.000024  0.000000
                  ***Gradient check signals convergence***
              ***Rediagonalizing the Fockian in SOSCF/NRSCF***

               *****************************************************
               *                     SUCCESS                       *
               *           SCF CONVERGED AFTER  16 CYCLES          *
               *****************************************************

Old exchange energy                            =    -21.383562106 Eh
New exchange energy                            =    -21.383529253 Eh
Exchange energy change after final integration =      0.000032852 Eh
Total energy after final integration           =   -461.621153438 Eh
Final COS-X integration done in                =    56.448 sec

----------------
TOTAL SCF ENERGY
----------------

Total Energy       :         -461.62115344 Eh          -12561.35019 eV

Components:
Nuclear Repulsion  :          636.24079160 Eh           17312.99211 eV
Electronic Energy  :        -1097.86194504 Eh          -29874.34231 eV
One Electron Energy:        -1883.97723831 Eh          -51265.62695 eV
Two Electron Energy:          786.11529327 Eh           21391.28464 eV
Max COSX asymmetry :            0.00000262 Eh               0.00007 eV
CPCM Dielectric    :           -0.01437194 Eh              -0.39108 eV

Virial components:
Potential Energy   :         -918.05513863 Eh          -24981.55036 eV
Kinetic Energy     :          456.43398519 Eh           12420.20017 eV
Virial Ratio       :            2.01136455


DFT components:
N(Alpha)           :       41.999967975700 electrons
N(Beta)            :       41.999967975700 electrons
N(Total)           :       83.999935951400 electrons
E(XC)              :      -47.164884207150 Eh       
DFET-embed. en.    :        0.000000000000 Eh       
CPCM Solvation Model Properties:
Surface-charge          :           -0.02661221
Charge-correction       :           -0.00040956 Eh              -0.01114 eV
Free-energy (cav+disp)  :  This term is not implemented in the current solvation scheme

---------------
SCF CONVERGENCE
---------------

  Last Energy change         ...   -4.4259e-09  Tolerance :   1.0000e-08
  Last MAX-Density change    ...    2.6645e-15  Tolerance :   1.0000e-07
  Last RMS-Density change    ...    3.6990e-17  Tolerance :   5.0000e-09
  Last Orbital Gradient      ...    9.7988e-07  Tolerance :   1.0000e-05
  Last Orbital Rotation      ...    2.2314e-06  Tolerance :   1.0000e-05

             **** THE GBW FILE WAS UPDATED (4_deprot_aq_8.gbw) ****
             **** DENSITY 4_deprot_aq_8.scfp WAS UPDATED ****
             **** ENERGY FILE WAS UPDATED (4_deprot_aq_8.en.tmp) ****
             **** THE GBW FILE WAS UPDATED (4_deprot_aq_8.gbw) ****
             **** DENSITY 4_deprot_aq_8.scfp WAS UPDATED ****
----------------
ORBITAL ENERGIES
----------------

  NO   OCC          E(Eh)            E(eV) 
   0   2.0000     -14.446764      -393.1164 
   1   2.0000     -14.446120      -393.0989 
   2   2.0000     -10.306823      -280.4629 
   3   2.0000     -10.305561      -280.4286 
   4   2.0000     -10.290898      -280.0296 
   5   2.0000     -10.288940      -279.9763 
   6   2.0000     -10.271785      -279.5095 
   7   2.0000     -10.260206      -279.1944 
   8   2.0000     -10.258038      -279.1354 
   9   2.0000     -10.257964      -279.1334 
  10   2.0000     -10.251895      -278.9682 
  11   2.0000      -1.152397       -31.3583 
  12   2.0000      -1.047570       -28.5058 
  13   2.0000      -0.937666       -25.5152 
  14   2.0000      -0.884483       -24.0680 
  15   2.0000      -0.866152       -23.5692 
  16   2.0000      -0.810011       -22.0415 
  17   2.0000      -0.809314       -22.0226 
  18   2.0000      -0.765451       -20.8290 
  19   2.0000      -0.743386       -20.2286 
  20   2.0000      -0.672133       -18.2897 
  21   2.0000      -0.668320       -18.1859 
  22   2.0000      -0.630906       -17.1678 
  23   2.0000      -0.599166       -16.3041 
  24   2.0000      -0.574351       -15.6289 
  25   2.0000      -0.562631       -15.3100 
  26   2.0000      -0.556760       -15.1502 
  27   2.0000      -0.547926       -14.9098 
  28   2.0000      -0.524876       -14.2826 
  29   2.0000      -0.510442       -13.8898 
  30   2.0000      -0.503679       -13.7058 
  31   2.0000      -0.493433       -13.4270 
  32   2.0000      -0.492066       -13.3898 
  33   2.0000      -0.480513       -13.0754 
  34   2.0000      -0.471066       -12.8184 
  35   2.0000      -0.458665       -12.4809 
  36   2.0000      -0.444243       -12.0885 
  37   2.0000      -0.442034       -12.0283 
  38   2.0000      -0.437321       -11.9001 
  39   2.0000      -0.370215       -10.0741 
  40   2.0000      -0.321720        -8.7544 
  41   2.0000      -0.317942        -8.6516 
  42   0.0000       0.124317         3.3828 
  43   0.0000       0.127302         3.4641 
  44   0.0000       0.153416         4.1747 
  45   0.0000       0.160375         4.3640 
  46   0.0000       0.182762         4.9732 
  47   0.0000       0.194970         5.3054 
  48   0.0000       0.202842         5.5196 
  49   0.0000       0.207502         5.6464 
  50   0.0000       0.213633         5.8133 
  51   0.0000       0.214925         5.8484 
  52   0.0000       0.221708         6.0330 
  53   0.0000       0.234211         6.3732 
  54   0.0000       0.249432         6.7874 
  55   0.0000       0.258635         7.0378 
  56   0.0000       0.260451         7.0872 
  57   0.0000       0.266097         7.2409 
  58   0.0000       0.272849         7.4246 
  59   0.0000       0.277052         7.5390 
  60   0.0000       0.285652         7.7730 
  61   0.0000       0.296131         8.0581 
  62   0.0000       0.301881         8.2146 
  63   0.0000       0.317778         8.6472 
  64   0.0000       0.329958         8.9786 
  65   0.0000       0.351443         9.5633 
  66   0.0000       0.356470         9.7000 
  67   0.0000       0.366637         9.9767 
  68   0.0000       0.386884        10.5276 
  69   0.0000       0.447209        12.1692 
  70   0.0000       0.452208        12.3052 
  71   0.0000       0.489156        13.3106 
  72   0.0000       0.500124        13.6091 
  73   0.0000       0.507045        13.7974 
  74   0.0000       0.516477        14.0540 
  75   0.0000       0.525184        14.2910 
  76   0.0000       0.525839        14.3088 
  77   0.0000       0.539712        14.6863 
  78   0.0000       0.565633        15.3916 
  79   0.0000       0.577090        15.7034 
  80   0.0000       0.588903        16.0249 
  81   0.0000       0.633437        17.2367 
  82   0.0000       0.648271        17.6403 
  83   0.0000       0.651173        17.7193 
  84   0.0000       0.664152        18.0725 
  85   0.0000       0.688731        18.7413 
  86   0.0000       0.692014        18.8307 
  87   0.0000       0.699163        19.0252 
  88   0.0000       0.708703        19.2848 
  89   0.0000       0.718747        19.5581 
  90   0.0000       0.740176        20.1412 
  91   0.0000       0.748770        20.3751 
  92   0.0000       0.751396        20.4465 
  93   0.0000       0.760140        20.6845 
  94   0.0000       0.765655        20.8345 
  95   0.0000       0.772304        21.0155 
  96   0.0000       0.776516        21.1301 
  97   0.0000       0.782382        21.2897 
  98   0.0000       0.789765        21.4906 
  99   0.0000       0.794498        21.6194 
 100   0.0000       0.797905        21.7121 
 101   0.0000       0.804312        21.8864 
 102   0.0000       0.808549        22.0017 
 103   0.0000       0.811660        22.0864 
 104   0.0000       0.817347        22.2412 
 105   0.0000       0.823539        22.4096 
 106   0.0000       0.826049        22.4779 
 107   0.0000       0.832131        22.6434 
 108   0.0000       0.836942        22.7744 
 109   0.0000       0.839030        22.8312 
 110   0.0000       0.847461        23.0606 
 111   0.0000       0.853498        23.2249 
 112   0.0000       0.867106        23.5951 
 113   0.0000       0.868465        23.6321 
 114   0.0000       0.917262        24.9600 
 115   0.0000       0.988325        26.8937 
 116   0.0000       0.996518        27.1166 
 117   0.0000       1.035929        28.1891 
 118   0.0000       1.053202        28.6591 
 119   0.0000       1.071588        29.1594 
 120   0.0000       1.083648        29.4876 
 121   0.0000       1.125519        30.6269 
 122   0.0000       1.155204        31.4347 
 123   0.0000       1.164488        31.6873 
 124   0.0000       1.193285        32.4709 
 125   0.0000       1.214812        33.0567 
 126   0.0000       1.231726        33.5170 
 127   0.0000       1.260341        34.2956 
 128   0.0000       1.304672        35.5019 
 129   0.0000       1.312077        35.7034 
 130   0.0000       1.332930        36.2709 
 131   0.0000       1.354353        36.8538 
 132   0.0000       1.377233        37.4764 
 133   0.0000       1.405862        38.2554 
 134   0.0000       1.417074        38.5605 
 135   0.0000       1.444850        39.3164 
 136   0.0000       1.491905        40.5968 
 137   0.0000       1.533282        41.7227 
 138   0.0000       1.563716        42.5509 
 139   0.0000       1.584200        43.1083 
 140   0.0000       1.598882        43.5078 
 141   0.0000       1.646799        44.8117 
 142   0.0000       1.657875        45.1131 
 143   0.0000       1.660728        45.1907 
 144   0.0000       1.667839        45.3842 
 145   0.0000       1.672610        45.5140 
 146   0.0000       1.700925        46.2845 
 147   0.0000       1.731632        47.1201 
 148   0.0000       1.751757        47.6677 
 149   0.0000       1.796237        48.8781 
 150   0.0000       1.817216        49.4490 
 151   0.0000       1.828460        49.7549 
 152   0.0000       1.848392        50.2973 
 153   0.0000       1.866051        50.7778 
 154   0.0000       1.887781        51.3691 
 155   0.0000       1.898334        51.6563 
 156   0.0000       1.906310        51.8733 
 157   0.0000       1.913391        52.0660 
 158   0.0000       1.918814        52.2136 
 159   0.0000       1.926923        52.4343 
 160   0.0000       1.934481        52.6399 
 161   0.0000       1.940478        52.8031 
 162   0.0000       1.952697        53.1356 
 163   0.0000       1.957621        53.2696 
 164   0.0000       1.960459        53.3468 
 165   0.0000       1.976881        53.7937 
 166   0.0000       1.978606        53.8406 
 167   0.0000       1.997697        54.3601 
 168   0.0000       1.999597        54.4118 
 169   0.0000       2.003549        54.5193 
 170   0.0000       2.007855        54.6365 
 171   0.0000       2.021598        55.0105 
 172   0.0000       2.043609        55.6094 
 173   0.0000       2.063588        56.1531 
 174   0.0000       2.068720        56.2927 
 175   0.0000       2.073542        56.4239 
 176   0.0000       2.098572        57.1050 
 177   0.0000       2.105276        57.2875 
 178   0.0000       2.124146        57.8009 
 179   0.0000       2.163434        58.8700 
 180   0.0000       2.184047        59.4309 
 181   0.0000       2.192613        59.6640 
 182   0.0000       2.230803        60.7032 
 183   0.0000       2.260836        61.5205 
 184   0.0000       2.267657        61.7061 
 185   0.0000       2.299162        62.5634 
 186   0.0000       2.306541        62.7642 
 187   0.0000       2.340094        63.6772 
 188   0.0000       2.348228        63.8985 
 189   0.0000       2.387886        64.9777 
 190   0.0000       2.393558        65.1320 
 191   0.0000       2.417900        65.7944 
 192   0.0000       2.474703        67.3401 
 193   0.0000       2.488991        67.7289 
 194   0.0000       2.499063        68.0030 
 195   0.0000       2.505005        68.1646 
 196   0.0000       2.530562        68.8601 
 197   0.0000       2.540662        69.1349 
 198   0.0000       2.556049        69.5536 
 199   0.0000       2.604956        70.8844 
 200   0.0000       2.618523        71.2536 
 201   0.0000       2.626333        71.4662 
 202   0.0000       2.632369        71.6304 
 203   0.0000       2.674440        72.7752 
 204   0.0000       2.683483        73.0213 
 205   0.0000       2.702830        73.5478 
 206   0.0000       2.718227        73.9667 
 207   0.0000       2.726958        74.2043 
 208   0.0000       2.827627        76.9436 
 209   0.0000       2.832580        77.0784 
 210   0.0000       2.839994        77.2802 
 211   0.0000       2.852743        77.6271 
 212   0.0000       2.872381        78.1615 
 213   0.0000       2.912781        79.2608 
 214   0.0000       2.939553        79.9893 
 215   0.0000       2.981672        81.1354 
 216   0.0000       2.987372        81.2905 
 217   0.0000       3.005385        81.7807 
 218   0.0000       3.008576        81.8675 
 219   0.0000       3.019061        82.1528 
 220   0.0000       3.034742        82.5795 
 221   0.0000       3.049334        82.9766 
 222   0.0000       3.063071        83.3504 
 223   0.0000       3.081256        83.8452 
 224   0.0000       3.094600        84.2083 
 225   0.0000       3.135767        85.3286 
 226   0.0000       3.157002        85.9064 
 227   0.0000       3.163903        86.0942 
 228   0.0000       3.170347        86.2695 
 229   0.0000       3.207868        87.2905 
 230   0.0000       3.330970        90.6403 
 231   0.0000       3.457399        94.0806 
 232   0.0000       3.470309        94.4319 
 233   0.0000       3.692468       100.4772 

                    ********************************
                    * MULLIKEN POPULATION ANALYSIS *
                    ********************************

-----------------------
MULLIKEN ATOMIC CHARGES
-----------------------
   0 N :   -0.182996
   1 C :   -0.207580
   2 N :   -0.219737
   3 C :    0.025273
   4 C :    0.018612
   5 C :   -0.015244
   6 C :    0.001351
   7 C :    0.003920
   8 H :    0.026447
   9 C :    0.004639
  10 H :    0.042218
  11 C :    0.005563
  12 C :   -0.017600
  13 H :    0.046614
  14 H :    0.052641
  15 H :    0.033514
  16 H :    0.030348
  17 H :    0.041556
  18 H :    0.033895
  19 H :    0.041786
  20 H :    0.030433
  21 H :    0.046867
  22 H :    0.044489
  23 H :    0.034950
  24 H :    0.021123
  25 H :    0.032380
  26 H :    0.024537
Sum of atomic charges:   -0.0000000

--------------------------------
MULLIKEN REDUCED ORBITAL CHARGES
--------------------------------
  0 N s       :     3.373798  s :     3.373798
      pz      :     1.151029  p :     3.775937
      px      :     1.165355
      py      :     1.459552
      dz2     :     0.008646  d :     0.033261
      dxz     :     0.008776
      dyz     :     0.005382
      dx2y2   :     0.005486
      dxy     :     0.004970
  1 C s       :     3.623490  s :     3.623490
      pz      :     1.106659  p :     2.519053
      px      :     0.658067
      py      :     0.754327
      dz2     :     0.008645  d :     0.065037
      dxz     :     0.026143
      dyz     :     0.009278
      dx2y2   :     0.007822
      dxy     :     0.013149
  2 N s       :     3.394520  s :     3.394520
      pz      :     1.155155  p :     3.792880
      px      :     1.168020
      py      :     1.469704
      dz2     :     0.008031  d :     0.032337
      dxz     :     0.008742
      dyz     :     0.005260
      dx2y2   :     0.005746
      dxy     :     0.004558
  3 C s       :     3.145406  s :     3.145406
      pz      :     0.831593  p :     2.780563
      px      :     0.901398
      py      :     1.047572
      dz2     :     0.012955  d :     0.048757
      dxz     :     0.013124
      dyz     :     0.008043
      dx2y2   :     0.005373
      dxy     :     0.009261
  4 C s       :     3.142180  s :     3.142180
      pz      :     0.829460  p :     2.790894
      px      :     0.908125
      py      :     1.053308
      dz2     :     0.013583  d :     0.048314
      dxz     :     0.012238
      dyz     :     0.008559
      dx2y2   :     0.006295
      dxy     :     0.007639
  5 C s       :     3.086335  s :     3.086335
      pz      :     1.034325  p :     2.871466
      px      :     0.828367
      py      :     1.008774
      dz2     :     0.010490  d :     0.057444
      dxz     :     0.009701
      dyz     :     0.008259
      dx2y2   :     0.014330
      dxy     :     0.014665
  6 C s       :     3.072229  s :     3.072229
      pz      :     1.010120  p :     2.869103
      px      :     0.807552
      py      :     1.051431
      dz2     :     0.008300  d :     0.057318
      dxz     :     0.012376
      dyz     :     0.011745
      dx2y2   :     0.016413
      dxy     :     0.008483
  7 C s       :     2.988457  s :     2.988457
      pz      :     1.004337  p :     2.980945
      px      :     1.006595
      py      :     0.970012
      dz2     :     0.007499  d :     0.026678
      dxz     :     0.003897
      dyz     :     0.004246
      dx2y2   :     0.004453
      dxy     :     0.006582
  8 H s       :     0.952625  s :     0.952625
      pz      :     0.014076  p :     0.020927
      px      :     0.002439
      py      :     0.004412
  9 C s       :     2.988047  s :     2.988047
      pz      :     1.016782  p :     2.980629
      px      :     0.994608
      py      :     0.969239
      dz2     :     0.005456  d :     0.026686
      dxz     :     0.004101
      dyz     :     0.006041
      dx2y2   :     0.004824
      dxy     :     0.006264
 10 H s       :     0.937199  s :     0.937199
      pz      :     0.007066  p :     0.020582
      px      :     0.002325
      py      :     0.011191
 11 C s       :     2.985313  s :     2.985313
      pz      :     1.002774  p :     2.982376
      px      :     1.009957
      py      :     0.969645
      dz2     :     0.002631  d :     0.026748
      dxz     :     0.006675
      dyz     :     0.007608
      dx2y2   :     0.008456
      dxy     :     0.001378
 12 C s       :     2.992200  s :     2.992200
      pz      :     0.984127  p :     2.998698
      px      :     0.996795
      py      :     1.017776
      dz2     :     0.002619  d :     0.026702
      dxz     :     0.006187
      dyz     :     0.009129
      dx2y2   :     0.007502
      dxy     :     0.001265
 13 H s       :     0.928235  s :     0.928235
      pz      :     0.011109  p :     0.025151
      px      :     0.007573
      py      :     0.006468
 14 H s       :     0.922396  s :     0.922396
      pz      :     0.009848  p :     0.024963
      px      :     0.009570
      py      :     0.005544
 15 H s       :     0.942382  s :     0.942382
      pz      :     0.007790  p :     0.024104
      px      :     0.006617
      py      :     0.009696
 16 H s       :     0.945207  s :     0.945207
      pz      :     0.014155  p :     0.024445
      px      :     0.004944
      py      :     0.005346
 17 H s       :     0.933994  s :     0.933994
      pz      :     0.006841  p :     0.024450
      px      :     0.013059
      py      :     0.004549
 18 H s       :     0.942008  s :     0.942008
      pz      :     0.004660  p :     0.024097
      px      :     0.008277
      py      :     0.011159
 19 H s       :     0.933767  s :     0.933767
      pz      :     0.006304  p :     0.024447
      px      :     0.013057
      py      :     0.005086
 20 H s       :     0.945123  s :     0.945123
      pz      :     0.014240  p :     0.024444
      px      :     0.005097
      py      :     0.005108
 21 H s       :     0.928780  s :     0.928780
      pz      :     0.006957  p :     0.024353
      px      :     0.004662
      py      :     0.012734
 22 H s       :     0.931012  s :     0.931012
      pz      :     0.005442  p :     0.024499
      px      :     0.013929
      py      :     0.005128
 23 H s       :     0.940815  s :     0.940815
      pz      :     0.008544  p :     0.024235
      px      :     0.004694
      py      :     0.010997
 24 H s       :     0.954665  s :     0.954665
      pz      :     0.007703  p :     0.024212
      px      :     0.005080
      py      :     0.011430
 25 H s       :     0.943352  s :     0.943352
      pz      :     0.006388  p :     0.024268
      px      :     0.013689
      py      :     0.004191
 26 H s       :     0.950112  s :     0.950112
      pz      :     0.009942  p :     0.025351
      px      :     0.011085
      py      :     0.004325


                     *******************************
                     * LOEWDIN POPULATION ANALYSIS *
                     *******************************

----------------------
LOEWDIN ATOMIC CHARGES
----------------------
   0 N :    0.045945
   1 C :   -0.307213
   2 N :    0.033402
   3 C :   -0.031777
   4 C :   -0.037408
   5 C :    0.025618
   6 C :    0.031883
   7 C :   -0.056255
   8 H :    0.026821
   9 C :   -0.056194
  10 H :    0.028801
  11 C :   -0.056568
  12 C :   -0.056969
  13 H :    0.034407
  14 H :    0.033865
  15 H :    0.027769
  16 H :    0.026614
  17 H :    0.033668
  18 H :    0.027808
  19 H :    0.033747
  20 H :    0.026603
  21 H :    0.029411
  22 H :    0.037317
  23 H :    0.029085
  24 H :    0.024070
  25 H :    0.027860
  26 H :    0.017690

-------------------------------
LOEWDIN REDUCED ORBITAL CHARGES
-------------------------------
  0 N s       :     3.057153  s :     3.057153
      pz      :     1.220916  p :     3.818693
      px      :     1.202505
      py      :     1.395272
      dz2     :     0.021207  d :     0.078209
      dxz     :     0.023790
      dyz     :     0.011374
      dx2y2   :     0.012163
      dxy     :     0.009676
  1 C s       :     3.195478  s :     3.195478
      pz      :     1.321407  p :     2.970494
      px      :     0.825296
      py      :     0.823791
      dz2     :     0.014222  d :     0.141241
      dxz     :     0.061115
      dyz     :     0.013950
      dx2y2   :     0.022762
      dxy     :     0.029193
  2 N s       :     3.059514  s :     3.059514
      pz      :     1.223072  p :     3.830626
      px      :     1.196712
      py      :     1.410842
      dz2     :     0.020209  d :     0.076458
      dxz     :     0.023965
      dyz     :     0.010895
      dx2y2   :     0.012517
      dxy     :     0.008872
  3 C s       :     2.850625  s :     2.850625
      pz      :     0.959535  p :     3.058997
      px      :     1.047717
      py      :     1.051745
      dz2     :     0.033847  d :     0.122156
      dxz     :     0.035600
      dyz     :     0.017238
      dx2y2   :     0.015186
      dxy     :     0.020285
  4 C s       :     2.849661  s :     2.849661
      pz      :     0.953091  p :     3.066437
      px      :     1.059229
      py      :     1.054117
      dz2     :     0.035582  d :     0.121310
      dxz     :     0.033333
      dyz     :     0.018725
      dx2y2   :     0.017549
      dxy     :     0.016121
  5 C s       :     2.829829  s :     2.829829
      pz      :     1.050441  p :     3.011321
      px      :     0.917314
      py      :     1.043566
      dz2     :     0.026022  d :     0.133232
      dxz     :     0.021614
      dyz     :     0.018766
      dx2y2   :     0.031083
      dxy     :     0.035746
  6 C s       :     2.829182  s :     2.829182
      pz      :     1.039731  p :     3.006870
      px      :     0.897031
      py      :     1.070108
      dz2     :     0.016598  d :     0.132064
      dxz     :     0.030032
      dyz     :     0.028828
      dx2y2   :     0.039071
      dxy     :     0.017536
  7 C s       :     2.831433  s :     2.831433
      pz      :     1.056116  p :     3.153899
      px      :     1.062116
      py      :     1.035666
      dz2     :     0.019069  d :     0.070923
      dxz     :     0.010213
      dyz     :     0.011958
      dx2y2   :     0.011526
      dxy     :     0.018157
  8 H s       :     0.906800  s :     0.906800
      pz      :     0.040446  p :     0.066380
      px      :     0.009896
      py      :     0.016038
  9 C s       :     2.831426  s :     2.831426
      pz      :     1.070155  p :     3.153837
      px      :     1.054166
      py      :     1.029516
      dz2     :     0.014976  d :     0.070930
      dxz     :     0.010495
      dyz     :     0.014954
      dx2y2   :     0.012662
      dxy     :     0.017844
 10 H s       :     0.905991  s :     0.905991
      pz      :     0.022648  p :     0.065208
      px      :     0.010248
      py      :     0.032312
 11 C s       :     2.832131  s :     2.832131
      pz      :     1.056451  p :     3.153024
      px      :     1.068452
      py      :     1.028120
      dz2     :     0.005935  d :     0.071413
      dxz     :     0.018228
      dyz     :     0.021405
      dx2y2   :     0.022433
      dxy     :     0.003412
 12 C s       :     2.829358  s :     2.829358
      pz      :     1.036890  p :     3.156603
      px      :     1.050838
      py      :     1.068876
      dz2     :     0.006776  d :     0.071007
      dxz     :     0.017769
      dyz     :     0.023326
      dx2y2   :     0.020345
      dxy     :     0.002791
 13 H s       :     0.890134  s :     0.890134
      pz      :     0.032600  p :     0.075459
      px      :     0.022349
      py      :     0.020510
 14 H s       :     0.891067  s :     0.891067
      pz      :     0.029834  p :     0.075068
      px      :     0.026940
      py      :     0.018295
 15 H s       :     0.904888  s :     0.904888
      pz      :     0.020600  p :     0.067343
      px      :     0.018354
      py      :     0.028389
 16 H s       :     0.905592  s :     0.905592
      pz      :     0.037446  p :     0.067794
      px      :     0.014063
      py      :     0.016284
 17 H s       :     0.898922  s :     0.898922
      pz      :     0.017777  p :     0.067410
      px      :     0.035716
      py      :     0.013917
 18 H s       :     0.904847  s :     0.904847
      pz      :     0.012994  p :     0.067345
      px      :     0.022319
      py      :     0.032033
 19 H s       :     0.898836  s :     0.898836
      pz      :     0.017284  p :     0.067417
      px      :     0.035319
      py      :     0.014814
 20 H s       :     0.905598  s :     0.905598
      pz      :     0.038624  p :     0.067799
      px      :     0.013983
      py      :     0.015192
 21 H s       :     0.902672  s :     0.902672
      pz      :     0.020175  p :     0.067917
      px      :     0.013638
      py      :     0.034104
 22 H s       :     0.895379  s :     0.895379
      pz      :     0.016102  p :     0.067304
      px      :     0.038021
      py      :     0.013181
 23 H s       :     0.903121  s :     0.903121
      pz      :     0.024581  p :     0.067794
      px      :     0.013839
      py      :     0.029374
 24 H s       :     0.908373  s :     0.908373
      pz      :     0.021559  p :     0.067557
      px      :     0.013218
      py      :     0.032779
 25 H s       :     0.904751  s :     0.904751
      pz      :     0.017940  p :     0.067389
      px      :     0.036660
      py      :     0.012789
 26 H s       :     0.910616  s :     0.910616
      pz      :     0.028361  p :     0.071694
      px      :     0.029938
      py      :     0.013395


                      *****************************
                      * MAYER POPULATION ANALYSIS *
                      *****************************

  NA   - Mulliken gross atomic population
  ZA   - Total nuclear charge
  QA   - Mulliken gross atomic charge
  VA   - Mayer's total valence
  BVA  - Mayer's bonded valence
  FA   - Mayer's free valence

  ATOM       NA         ZA         QA         VA         BVA        FA
  0 N      7.1830     7.0000    -0.1830     3.3192     3.3192    -0.0000
  1 C      6.2076     6.0000    -0.2076     2.7345     2.7345    -0.0000
  2 N      7.2197     7.0000    -0.2197     3.3369     3.3369    -0.0000
  3 C      5.9747     6.0000     0.0253     3.8592     3.8592    -0.0000
  4 C      5.9814     6.0000     0.0186     3.8394     3.8394    -0.0000
  5 C      6.0152     6.0000    -0.0152     4.0939     4.0939     0.0000
  6 C      5.9986     6.0000     0.0014     4.0727     4.0727    -0.0000
  7 C      5.9961     6.0000     0.0039     3.9504     3.9504     0.0000
  8 H      0.9736     1.0000     0.0264     1.0061     1.0061    -0.0000
  9 C      5.9954     6.0000     0.0046     3.9514     3.9514     0.0000
 10 H      0.9578     1.0000     0.0422     0.9770     0.9770     0.0000
 11 C      5.9944     6.0000     0.0056     3.9436     3.9436    -0.0000
 12 C      6.0176     6.0000    -0.0176     3.9929     3.9929    -0.0000
 13 H      0.9534     1.0000     0.0466     1.0053     1.0053    -0.0000
 14 H      0.9474     1.0000     0.0526     1.0003     1.0003     0.0000
 15 H      0.9665     1.0000     0.0335     0.9964     0.9964     0.0000
 16 H      0.9697     1.0000     0.0303     1.0014     1.0014     0.0000
 17 H      0.9584     1.0000     0.0416     0.9948     0.9948    -0.0000
 18 H      0.9661     1.0000     0.0339     0.9964     0.9964    -0.0000
 19 H      0.9582     1.0000     0.0418     0.9948     0.9948     0.0000
 20 H      0.9696     1.0000     0.0304     1.0014     1.0014     0.0000
 21 H      0.9531     1.0000     0.0469     0.9870     0.9870    -0.0000
 22 H      0.9555     1.0000     0.0445     0.9956     0.9956    -0.0000
 23 H      0.9650     1.0000     0.0350     0.9964     0.9964     0.0000
 24 H      0.9789     1.0000     0.0211     1.0020     1.0020     0.0000
 25 H      0.9676     1.0000     0.0324     0.9925     0.9925    -0.0000
 26 H      0.9755     1.0000     0.0245     1.0411     1.0411    -0.0000

  Mayer bond orders larger than 0.100000
B(  0-N ,  1-C ) :   1.2367 B(  0-N ,  4-C ) :   1.1324 B(  0-N ,  5-C ) :   0.9193 
B(  1-C ,  2-N ) :   1.2431 B(  2-N ,  3-C ) :   1.1468 B(  2-N ,  6-C ) :   0.8988 
B(  3-C ,  4-C ) :   1.6109 B(  3-C , 13-H ) :   0.9936 B(  4-C , 14-H ) :   0.9905 
B(  5-C ,  7-C ) :   1.0699 B(  5-C ,  8-H ) :   0.9321 B(  5-C ,  9-C ) :   1.0703 
B(  6-C , 10-H ) :   0.9430 B(  6-C , 11-C ) :   1.0717 B(  6-C , 12-C ) :   1.0822 
B(  7-C , 18-H ) :   0.9685 B(  7-C , 19-H ) :   0.9727 B(  7-C , 20-H ) :   0.9643 
B(  9-C , 15-H ) :   0.9684 B(  9-C , 16-H ) :   0.9643 B(  9-C , 17-H ) :   0.9728 
B( 11-C , 24-H ) :   0.9671 B( 11-C , 25-H ) :   0.9694 B( 11-C , 26-H ) :   0.9562 
B( 12-C , 21-H ) :   0.9627 B( 12-C , 22-H ) :   0.9684 B( 12-C , 23-H ) :   0.9622 


-------
TIMINGS
-------

Total SCF time: 0 days 0 hours 6 min 34 sec 

Total time                  ....     394.456 sec
Sum of individual times     ....     393.907 sec  ( 99.9%)

Fock matrix formation       ....     388.385 sec  ( 98.5%)
  Split-RI-J                ....      14.854 sec  (  3.8% of F)
  Chain of spheres X        ....     316.396 sec  ( 81.5% of F)
  XC integration            ....      33.269 sec  (  8.6% of F)
[...]
     69       0.000038   0.000678   0.029999   0.000002  -0.000028  -0.004025
     70       0.000497   0.007711   0.343765   0.000034   0.000064  -0.011108
     71      -0.000893  -0.014255  -0.636157  -0.000043  -0.000166   0.015822
     72      -0.000020   0.000041   0.002082   0.000007  -0.000135   0.009009
     73      -0.001106   0.001343   0.093797  -0.000050   0.000390  -0.014989
     74       0.001783  -0.002068  -0.145260   0.000083  -0.000508   0.017803
     75       0.001043  -0.001794  -0.083484  -0.000708   0.008099  -0.585230
     76      -0.000001   0.000031  -0.001669   0.000005   0.000049  -0.007190
     77       0.000427  -0.000743  -0.033498  -0.000308   0.003556  -0.255708
     78      -0.001000   0.000390   0.088143  -0.000622   0.006508  -0.426342
     79       0.000682  -0.000291  -0.061781   0.000435  -0.004538   0.297611
     80       0.000991  -0.000401  -0.088040   0.000643  -0.006676   0.439463
                 78         79         80    
      0      -0.000092   0.000254  -0.000581
      1      -0.000010  -0.000046   0.000093
      2       0.000035  -0.001340   0.002416
      3       0.000137  -0.001734  -0.000469
      4      -0.000010   0.000099   0.000032
      5      -0.000069  -0.000222   0.000978
      6       0.000498  -0.000034   0.000718
      7      -0.000040  -0.000001  -0.000048
      8      -0.000073  -0.000117   0.002696
      9      -0.000287   0.023295   0.056532
     10       0.000048  -0.002544  -0.005293
     11       0.000474  -0.034039  -0.060259
     12       0.000004   0.051685  -0.037667
     13       0.000010  -0.000431   0.000698
     14      -0.000040   0.058218  -0.032595
     15       0.000034   0.000365  -0.000092
     16      -0.000020  -0.000018  -0.000015
     17      -0.000162   0.000286  -0.000436
     18      -0.001038   0.000251   0.000267
     19       0.000945  -0.000061   0.000084
     20      -0.002518  -0.000130  -0.000456
     21       0.000535   0.000151  -0.000052
     22       0.000109   0.000187  -0.000088
     23      -0.000321   0.000795  -0.000359
     24       0.000083  -0.001445   0.001423
     25       0.000099   0.000152   0.000027
     26       0.001683   0.001250   0.001766
     27       0.000410   0.000090  -0.000015
     28      -0.000157  -0.000080   0.000030
     29      -0.000244   0.000634  -0.000291
     30       0.001291  -0.000716  -0.001629
     31      -0.013310   0.000422  -0.000560
     32       0.024840  -0.001038   0.000152
     33      -0.031325   0.000076  -0.000007
     34       0.009125  -0.000003   0.000006
     35       0.001480  -0.000021  -0.000060
     36      -0.070468   0.000032   0.000070
     37      -0.032765   0.000822   0.001076
     38      -0.041443  -0.001090  -0.001470
     39       0.003863  -0.309889  -0.552873
     40      -0.000762   0.032191   0.056911
     41      -0.003618   0.380884   0.666234
     42       0.000105  -0.573328   0.326058
     43       0.000060   0.003886  -0.002453
     44       0.000248  -0.648779   0.361869
     45      -0.000854  -0.000977   0.000407
     46       0.001580   0.001945  -0.000755
     47      -0.000726  -0.000814   0.000318
     48       0.000217  -0.000829   0.000332
     49       0.000152  -0.000872   0.000363
     50       0.001831  -0.006883   0.003039
     51      -0.004521   0.000626  -0.000513
     52       0.000194  -0.000279   0.000126
     53       0.001921  -0.000695   0.000364
     54      -0.001400  -0.001510   0.000650
     55      -0.002086  -0.002317   0.000954
     56      -0.000668  -0.000613   0.000256
     57      -0.005505   0.001013  -0.000628
     58       0.000670   0.000079  -0.000019
     59       0.002476  -0.000980   0.000487
     60       0.000303  -0.001108   0.000460
     61       0.000078  -0.000111   0.000079
     62       0.002170  -0.009018   0.004026
     63       0.146469  -0.000968  -0.001165
     64       0.482378  -0.002554  -0.003119
     65       0.079350  -0.000827  -0.001168
     66       0.708119   0.003025   0.003919
     67      -0.016948   0.000128   0.000199
     68       0.297884   0.001782   0.002352
     69      -0.014865   0.000421   0.001041
     70      -0.072537  -0.007749  -0.010695
     71       0.119986   0.014589   0.020317
     72      -0.003990  -0.000027   0.000029
     73      -0.013984  -0.000278  -0.000292
     74       0.024026   0.000181   0.000245
     75       0.239540  -0.001183  -0.000465
     76       0.003794  -0.000249  -0.000248
     77       0.104394  -0.000440  -0.000197
     78       0.140861  -0.000449  -0.000173
     79      -0.098034   0.000443   0.000201
     80      -0.144759   0.000556   0.000296


-----------
IR SPECTRUM
-----------

 Mode   freq       eps      Int      T**2         TX        TY        TZ
       cm**-1   L/(mol*cm) km/mol    a.u.
----------------------------------------------------------------------------
  7:     29.96   0.000023    0.11  0.000237  ( 0.001404  0.015328 -0.000198)
  8:    107.67   0.003556   17.97  0.010308  ( 0.001879 -0.101502  0.001301)
  9:    157.86   0.000267    1.35  0.000528  (-0.003305 -0.014231  0.017738)
 10:    169.61   0.000368    1.86  0.000676  (-0.005055  0.006203 -0.024742)
 11:    243.90   0.000061    0.31  0.000078  (-0.007758 -0.004249  0.000382)
 12:    249.76   0.000090    0.45  0.000112  ( 0.008525 -0.005020  0.003752)
 13:    270.97   0.000123    0.62  0.000141  ( 0.009290  0.007303 -0.001278)
 14:    286.19   0.000043    0.22  0.000047  (-0.002617 -0.006312 -0.000075)
 15:    290.48   0.000029    0.15  0.000031  ( 0.003655  0.004234 -0.000243)
 16:    317.22   0.000916    4.63  0.000901  ( 0.029493  0.005601  0.000307)
 17:    354.34   0.000766    3.87  0.000674  (-0.018749 -0.017943 -0.000912)
 18:    408.03   0.003617   18.28  0.002766  (-0.010019  0.051504  0.003654)
 19:    445.48   0.000216    1.09  0.000151  (-0.010543 -0.005359  0.003343)
 20:    458.48   0.000054    0.27  0.000037  ( 0.001675  0.000231 -0.005835)
 21:    568.30   0.003906   19.74  0.002145  (-0.046062  0.003391  0.003428)
 22:    633.62   0.000138    0.70  0.000068  (-0.003414 -0.003713 -0.006531)
 23:    674.04   0.000640    3.23  0.000296  ( 0.003761 -0.016479 -0.003251)
 24:    678.25   0.001610    8.13  0.000741  (-0.007868 -0.026014  0.001379)
 25:    690.75   0.002337   11.81  0.001056  ( 0.032228 -0.003998 -0.001059)
 26:    744.44   0.014075   71.13  0.005900  (-0.007069 -0.076222  0.006369)
 27:    881.76   0.000070    0.35  0.000025  (-0.004796 -0.000997  0.000866)
 28:    907.46   0.001585    8.01  0.000545  (-0.022982  0.004037 -0.000834)
 29:    910.43   0.000708    3.58  0.000243  ( 0.006173  0.002060 -0.014158)
 30:    924.42   0.000427    2.16  0.000144  ( 0.003486 -0.010753 -0.004027)
 31:    935.47   0.000320    1.62  0.000107  (-0.001165  0.010240  0.000739)
 32:    957.81   0.000232    1.17  0.000075  ( 0.006103 -0.003727 -0.004934)
 33:    960.14   0.000121    0.61  0.000039  ( 0.001793 -0.005946 -0.000819)
 34:   1019.15   0.002879   14.55  0.000882  ( 0.029535  0.000301  0.003034)
 35:   1028.81   0.000216    1.09  0.000066  (-0.004117  0.000865  0.006925)
 36:   1077.83   0.000249    1.26  0.000072  (-0.007721  0.002721 -0.002228)
 37:   1096.25   0.002869   14.50  0.000817  ( 0.000648 -0.004062 -0.028283)
 38:   1106.71   0.004087   20.65  0.001152  (-0.002249 -0.000727  0.033863)
 39:   1165.27   0.001844    9.32  0.000494  (-0.012049  0.018472  0.002721)
 40:   1168.72   0.002260   11.42  0.000603  ( 0.000457  0.024530 -0.001221)
 41:   1185.41   0.000399    2.02  0.000105  (-0.002804  0.009102 -0.003785)
 42:   1193.29   0.000052    0.26  0.000014  (-0.003189 -0.001295 -0.001365)
 43:   1249.70   0.032655  165.03  0.008154  ( 0.090285 -0.000898  0.001505)
 44:   1321.97   0.005337   26.97  0.001260  (-0.035324 -0.001700 -0.003034)
 45:   1326.76   0.000404    2.04  0.000095  ( 0.005835 -0.003169 -0.007143)
 46:   1349.11   0.000086    0.43  0.000020  ( 0.000488  0.004428 -0.000232)
 47:   1350.60   0.000156    0.79  0.000036  ( 0.005445  0.001185  0.002213)
 48:   1389.85   0.000588    2.97  0.000132  ( 0.006243 -0.008672  0.004234)
 49:   1395.24   0.004666   23.58  0.001044  ( 0.011433  0.027693  0.012082)
 50:   1397.49   0.002338   11.82  0.000522  ( 0.005939  0.021241  0.005971)
 51:   1401.78   0.003719   18.79  0.000828  ( 0.003970  0.028168 -0.004331)
 52:   1407.79   0.004753   24.02  0.001054  (-0.026221 -0.000008 -0.019130)
 53:   1417.32   0.014744   74.51  0.003246  ( 0.054178 -0.003944 -0.017187)
 54:   1441.79   0.005036   25.45  0.001090  ( 0.004111  0.001858  0.032704)
 55:   1445.87   0.000198    1.00  0.000043  (-0.003422  0.005455 -0.001144)
 56:   1447.52   0.000162    0.82  0.000035  (-0.001338  0.000160 -0.005759)
 57:   1455.90   0.000329    1.66  0.000070  ( 0.007940 -0.002299 -0.001459)
 58:   1457.27   0.001183    5.98  0.000253  ( 0.008416 -0.012949  0.003850)
 59:   1459.99   0.002351   11.88  0.000502  (-0.006301  0.010542 -0.018752)
 60:   1464.31   0.001844    9.32  0.000393  ( 0.004468 -0.000300 -0.019314)
 61:   1472.69   0.002234   11.29  0.000473  (-0.020920  0.000265  0.005973)
 62:   1478.37   0.002044   10.33  0.000431  (-0.017031 -0.002359  0.011653)
 63:   1487.32   0.019529   98.69  0.004097  ( 0.063589  0.001076  0.007258)
 64:   1652.13   0.000063    0.32  0.000012  (-0.000083  0.000613  0.003400)
 65:   3059.91   0.004151   20.98  0.000423  ( 0.006581  0.019395  0.001972)
 66:   3062.00   0.004902   24.77  0.000500  ( 0.002562  0.022201 -0.000385)
 67:   3064.38   0.002616   13.22  0.000266  (-0.012850  0.002403 -0.009774)
 68:   3068.62   0.003357   16.97  0.000341  (-0.010651  0.006139  0.013794)
 69:   3116.04   0.003007   15.20  0.000301  (-0.005490  0.009777 -0.013245)
 70:   3127.59   0.001250    6.32  0.000125  ( 0.003838 -0.001086 -0.010434)
 71:   3161.62   0.003656   18.48  0.000361  ( 0.003854 -0.000785  0.018585)
 72:   3162.23   0.001694    8.56  0.000167  ( 0.001701  0.012636 -0.002134)
 73:   3165.79   0.009009   45.53  0.000888  (-0.000754 -0.003031 -0.029636)
 74:   3167.38   0.007764   39.24  0.000765  ( 0.002656 -0.018889  0.020027)
 75:   3174.69   0.002184   11.04  0.000215  ( 0.004004 -0.014089  0.000370)
 76:   3176.61   0.007532   38.07  0.000740  (-0.025644 -0.000156  0.009072)
 77:   3177.62   0.002910   14.71  0.000286  ( 0.013508 -0.008631 -0.005371)
 78:   3179.66   0.005815   29.39  0.000571  (-0.021454 -0.004737 -0.009381)
 79:   3286.81   0.001427    7.21  0.000136  (-0.011499  0.000429 -0.001767)
 80:   3310.31   0.000296    1.50  0.000028  (-0.003549  0.000569  0.003870)

* The epsilon (eps) is given for a Dirac delta lineshape.
** The dipole moment derivative (T) already includes vibrational overlap.

The first frequency considered to be a vibration is 7
The total number of vibrations considered is 74


--------------------------
THERMOCHEMISTRY AT 298.15K
--------------------------

Temperature         ... 298.15 K
Pressure            ... 1.00 atm
Total Mass          ... 152.24 AMU

Throughout the following assumptions are being made:
  (1) The electronic state is orbitally nondegenerate
  (2) There are no thermally accessible electronically excited states
  (3) Hindered rotations indicated by low frequency modes are not
      treated as such but are treated as vibrations and this may
      cause some error
  (4) All equations used are the standard statistical mechanics
      equations for an ideal gas
  (5) All vibrations are strictly harmonic

freq.      29.96  E(vib)   ...       0.55 
freq.     107.67  E(vib)   ...       0.45 
freq.     157.86  E(vib)   ...       0.40 
freq.     169.61  E(vib)   ...       0.38 
freq.     243.90  E(vib)   ...       0.31 
freq.     249.76  E(vib)   ...       0.31 
freq.     270.97  E(vib)   ...       0.29 
freq.     286.19  E(vib)   ...       0.27 
freq.     290.48  E(vib)   ...       0.27 
freq.     317.22  E(vib)   ...       0.25 
freq.     354.34  E(vib)   ...       0.22 
freq.     408.03  E(vib)   ...       0.19 
freq.     445.48  E(vib)   ...       0.17 
freq.     458.48  E(vib)   ...       0.16 
freq.     568.30  E(vib)   ...       0.11 
freq.     633.62  E(vib)   ...       0.09 
freq.     674.04  E(vib)   ...       0.08 
freq.     678.25  E(vib)   ...       0.08 
freq.     690.75  E(vib)   ...       0.07 
freq.     744.44  E(vib)   ...       0.06 
freq.     881.76  E(vib)   ...       0.04 
freq.     907.46  E(vib)   ...       0.03 
freq.     910.43  E(vib)   ...       0.03 
freq.     924.42  E(vib)   ...       0.03 
freq.     935.47  E(vib)   ...       0.03 
freq.     957.81  E(vib)   ...       0.03 
freq.     960.14  E(vib)   ...       0.03 
freq.    1019.15  E(vib)   ...       0.02 
freq.    1028.81  E(vib)   ...       0.02 
freq.    1077.83  E(vib)   ...       0.02 
freq.    1096.25  E(vib)   ...       0.02 
freq.    1106.71  E(vib)   ...       0.02 
freq.    1165.27  E(vib)   ...       0.01 
freq.    1168.72  E(vib)   ...       0.01 
freq.    1185.41  E(vib)   ...       0.01 
freq.    1193.29  E(vib)   ...       0.01 
freq.    1249.70  E(vib)   ...       0.01 
freq.    1321.97  E(vib)   ...       0.01 
freq.    1326.76  E(vib)   ...       0.01 
freq.    1349.11  E(vib)   ...       0.01 
freq.    1350.60  E(vib)   ...       0.01 
freq.    1389.85  E(vib)   ...       0.00 
freq.    1395.24  E(vib)   ...       0.00 
freq.    1397.49  E(vib)   ...       0.00 
freq.    1401.78  E(vib)   ...       0.00 
freq.    1407.79  E(vib)   ...       0.00 
freq.    1417.32  E(vib)   ...       0.00 
freq.    1441.79  E(vib)   ...       0.00 
freq.    1445.87  E(vib)   ...       0.00 
freq.    1447.52  E(vib)   ...       0.00 
freq.    1455.90  E(vib)   ...       0.00 
freq.    1457.27  E(vib)   ...       0.00 
freq.    1459.99  E(vib)   ...       0.00 
freq.    1464.31  E(vib)   ...       0.00 
freq.    1472.69  E(vib)   ...       0.00 
freq.    1478.37  E(vib)   ...       0.00 
freq.    1487.32  E(vib)   ...       0.00 
freq.    1652.13  E(vib)   ...       0.00 
freq.    3059.91  E(vib)   ...       0.00 
freq.    3062.00  E(vib)   ...       0.00 
freq.    3064.38  E(vib)   ...       0.00 
freq.    3068.62  E(vib)   ...       0.00 
freq.    3116.04  E(vib)   ...       0.00 
freq.    3127.59  E(vib)   ...       0.00 
freq.    3161.62  E(vib)   ...       0.00 
freq.    3162.23  E(vib)   ...       0.00 
freq.    3165.79  E(vib)   ...       0.00 
freq.    3167.38  E(vib)   ...       0.00 
freq.    3174.69  E(vib)   ...       0.00 
freq.    3176.61  E(vib)   ...       0.00 
freq.    3177.62  E(vib)   ...       0.00 
freq.    3179.66  E(vib)   ...       0.00 
freq.    3286.81  E(vib)   ...       0.00 
freq.    3310.31  E(vib)   ...       0.00 

------------
INNER ENERGY
------------

The inner energy is: U= E(el) + E(ZPE) + E(vib) + E(rot) + E(trans)
    E(el)   - is the total energy from the electronic structure calculation
              = E(kin-el) + E(nuc-el) + E(el-el) + E(nuc-nuc)
    E(ZPE)  - the the zero temperature vibrational energy from the frequency calculation
    E(vib)  - the the finite temperature correction to E(ZPE) due to population
              of excited vibrational states
    E(rot)  - is the rotational thermal energy
    E(trans)- is the translational thermal energy

Summary of contributions to the inner energy U:
Electronic energy                ...   -461.63165657 Eh
Zero point energy                ...      0.24155475 Eh     151.58 kcal/mol
Thermal vibrational correction   ...      0.00822644 Eh       5.16 kcal/mol
Thermal rotational correction    ...      0.00141627 Eh       0.89 kcal/mol
Thermal translational correction ...      0.00141627 Eh       0.89 kcal/mol
-----------------------------------------------------------------------
Total thermal energy                   -461.37904283 Eh


Summary of corrections to the electronic energy:
(perhaps to be used in another calculation)
Total thermal correction                  0.01105899 Eh       6.94 kcal/mol
Non-thermal (ZPE) correction              0.24155475 Eh     151.58 kcal/mol
-----------------------------------------------------------------------
Total correction                          0.25261374 Eh     158.52 kcal/mol


--------
ENTHALPY
--------

The enthalpy is H = U + kB*T
                kB is Boltzmann's constant
Total free energy                 ...   -461.37904283 Eh 
Thermal Enthalpy correction       ...      0.00094421 Eh       0.59 kcal/mol
-----------------------------------------------------------------------
Total Enthalpy                    ...   -461.37809862 Eh


Note: Only C1 symmetry has been detected, increase convergence thresholds 
      if your molecule has a higher symmetry. Symmetry factor of 1.0 is   
      used for the rotational entropy correction. 
 

Note: Rotational entropy computed according to Herzberg 
Infrared and Raman Spectra, Chapter V,1, Van Nostrand Reinhold, 1945 
Point Group:  C1, Symmetry Number:   1  
Rotational constants in cm-1:     0.090137     0.018847     0.017931 

Vibrational entropy computed according to the QRRHO of S. Grimme
Chem.Eur.J. 2012 18 9955


-------
ENTROPY
-------

The entropy contributions are T*S = T*(S(el)+S(vib)+S(rot)+S(trans))
     S(el)   - electronic entropy
     S(vib)  - vibrational entropy
     S(rot)  - rotational entropy
     S(trans)- translational entropy
The entropies will be listed as multiplied by the temperature to get
units of energy

Electronic entropy                ...      0.00000000 Eh      0.00 kcal/mol
Vibrational entropy               ...      0.01386436 Eh      8.70 kcal/mol
Rotational entropy                ...      0.01442011 Eh      9.05 kcal/mol
Translational entropy             ...      0.01946649 Eh     12.22 kcal/mol
-----------------------------------------------------------------------
Final entropy term                ...      0.04775096 Eh     29.96 kcal/mol

In case the symmetry of your molecule has not been determined correctly
or in case you have a reason to use a different symmetry number we print 
out the resulting rotational entropy values for sn=1,12 :
 --------------------------------------------------------
|  sn= 1 | S(rot)=       0.01442011 Eh      9.05 kcal/mol|
|  sn= 2 | S(rot)=       0.01376565 Eh      8.64 kcal/mol|
|  sn= 3 | S(rot)=       0.01338282 Eh      8.40 kcal/mol|
|  sn= 4 | S(rot)=       0.01311120 Eh      8.23 kcal/mol|
|  sn= 5 | S(rot)=       0.01290051 Eh      8.10 kcal/mol|
|  sn= 6 | S(rot)=       0.01272836 Eh      7.99 kcal/mol|
|  sn= 7 | S(rot)=       0.01258282 Eh      7.90 kcal/mol|
|  sn= 8 | S(rot)=       0.01245674 Eh      7.82 kcal/mol|
|  sn= 9 | S(rot)=       0.01234553 Eh      7.75 kcal/mol|
|  sn=10 | S(rot)=       0.01224605 Eh      7.68 kcal/mol|
|  sn=11 | S(rot)=       0.01215606 Eh      7.63 kcal/mol|
|  sn=12 | S(rot)=       0.01207391 Eh      7.58 kcal/mol|
 --------------------------------------------------------


-------------------
GIBBS FREE ENERGY
-------------------

The Gibbs free energy is G = H - T*S

Total enthalpy                    ...   -461.37809862 Eh 
Total entropy correction          ...     -0.04775096 Eh    -29.96 kcal/mol
-----------------------------------------------------------------------
Final Gibbs free energy         ...   -461.42584958 Eh

For completeness - the Gibbs free energy minus the electronic energy
G-E(el)                           ...      0.20580699 Eh    129.15 kcal/mol


Timings for individual modules:

Sum of individual times         ...    11831.180 sec (= 197.186 min)
GTO integral calculation        ...       10.417 sec (=   0.174 min)   0.1 %
SCF iterations                  ...     8144.526 sec (= 135.742 min)  68.8 %
SCF Gradient evaluation         ...     2475.516 sec (=  41.259 min)  20.9 %
Geometry relaxation             ...        2.222 sec (=   0.037 min)   0.0 %
Analytical frequency calculation...     1198.498 sec (=  19.975 min)  10.1 %
                             ****ORCA TERMINATED NORMALLY****
TOTAL RUN TIME: 0 days 3 hours 17 minutes 15 seconds 593 msec
