
                                 *****************
                                 * O   R   C   A *
                                 *****************

                                            #,                                       
                                            ###                                      
                                            ####                                     
                                            #####                                    
                                            ######                                   
                                           ########,                                 
                                     ,,################,,,,,                         
                               ,,#################################,,                 
                          ,,##########################################,,             
                       ,#########################################, ''#####,          
                    ,#############################################,,   '####,        
                  ,##################################################,,,,####,       
                ,###########''''           ''''###############################       
              ,#####''   ,,,,##########,,,,          '''####'''          '####       
            ,##' ,,,,###########################,,,                        '##       
           ' ,,###''''                  '''############,,,                           
         ,,##''                                '''############,,,,        ,,,,,,###''
      ,#''                                            '''#######################'''  
     '                                                          ''''####''''         
             ,#######,   #######,   ,#######,      ##                                
            ,#'     '#,  ##    ##  ,#'     '#,    #''#        ######   ,####,        
            ##       ##  ##   ,#'  ##            #'  '#       #        #'  '#        
            ##       ##  #######   ##           ,######,      #####,   #    #        
            '#,     ,#'  ##    ##  '#,     ,#' ,#      #,         ##   #,  ,#        
             '#######'   ##     ##  '#######'  #'      '#     #####' # '####'        



                  #######################################################
                  #                        -***-                        #
                  #          Department of theory and spectroscopy      #
                  #    Directorship and core code : Frank Neese         #
                  #        Max Planck Institute fuer Kohlenforschung    #
                  #                Kaiser Wilhelm Platz 1               #
                  #                 D-45470 Muelheim/Ruhr               #
                  #                      Germany                        #
                  #                                                     #
                  #                  All rights reserved                #
                  #                        -***-                        #
                  #######################################################


                         Program Version 5.0.4 -  RELEASE  -


 With contributions from (in alphabetic order):
   Daniel Aravena         : Magnetic Suceptibility
   Michael Atanasov       : Ab Initio Ligand Field Theory (pilot matlab implementation)
   Alexander A. Auer      : GIAO ZORA, VPT2 properties, NMR spectrum
   Ute Becker             : Parallelization
   Giovanni Bistoni       : ED, misc. LED, open-shell LED, HFLD
   Martin Brehm           : Molecular dynamics
   Dmytro Bykov           : SCF Hessian
   Vijay G. Chilkuri      : MRCI spin determinant printing, contributions to CSF-ICE
   Dipayan Datta          : RHF DLPNO-CCSD density
   Achintya Kumar Dutta   : EOM-CC, STEOM-CC
   Dmitry Ganyushin       : Spin-Orbit,Spin-Spin,Magnetic field MRCI
   Miquel Garcia          : C-PCM and meta-GGA Hessian, CC/C-PCM, Gaussian charge scheme
   Yang Guo               : DLPNO-NEVPT2, F12-NEVPT2, CIM, IAO-localization
   Andreas Hansen         : Spin unrestricted coupled pair/coupled cluster methods
   Benjamin Helmich-Paris : MC-RPA, TRAH-SCF, COSX integrals
   Lee Huntington         : MR-EOM, pCC
   Robert Izsak           : Overlap fitted RIJCOSX, COSX-SCS-MP3, EOM
   Marcus Kettner         : VPT2
   Christian Kollmar      : KDIIS, OOCD, Brueckner-CCSD(T), CCSD density, CASPT2, CASPT2-K
   Simone Kossmann        : Meta GGA functionals, TD-DFT gradient, OOMP2, MP2 Hessian
   Martin Krupicka        : Initial AUTO-CI
   Lucas Lang             : DCDCAS
   Marvin Lechner         : AUTO-CI (C++ implementation), FIC-MRCC
   Dagmar Lenk            : GEPOL surface, SMD
   Dimitrios Liakos       : Extrapolation schemes; Compound Job, initial MDCI parallelization
   Dimitrios Manganas     : Further ROCIS development; embedding schemes
   Dimitrios Pantazis     : SARC Basis sets
   Anastasios Papadopoulos: AUTO-CI, single reference methods and gradients
   Taras Petrenko         : DFT Hessian,TD-DFT gradient, ASA, ECA, R-Raman, ABS, FL, XAS/XES, NRVS
   Peter Pinski           : DLPNO-MP2, DLPNO-MP2 Gradient
   Christoph Reimann      : Effective Core Potentials
   Marius Retegan         : Local ZFS, SOC
   Christoph Riplinger    : Optimizer, TS searches, QM/MM, DLPNO-CCSD(T), (RO)-DLPNO pert. Triples
   Tobias Risthaus        : Range-separated hybrids, TD-DFT gradient, RPA, STAB
   Michael Roemelt        : Original ROCIS implementation
   Masaaki Saitow         : Open-shell DLPNO-CCSD energy and density
   Barbara Sandhoefer     : DKH picture change effects
   Avijit Sen             : IP-ROCIS
   Kantharuban Sivalingam : CASSCF convergence, NEVPT2, FIC-MRCI
   Bernardo de Souza      : ESD, SOC TD-DFT
   Georgi Stoychev        : AutoAux, RI-MP2 NMR, DLPNO-MP2 response
   Willem Van den Heuvel  : Paramagnetic NMR
   Boris Wezisla          : Elementary symmetry handling
   Frank Wennmohs         : Technical directorship


 We gratefully acknowledge several colleagues who have allowed us to
 interface, adapt or use parts of their codes:
   Stefan Grimme, W. Hujo, H. Kruse, P. Pracht,  : VdW corrections, initial TS optimization,
                  C. Bannwarth, S. Ehlert          DFT functionals, gCP, sTDA/sTD-DF
   Ed Valeev, F. Pavosevic, A. Kumar             : LibInt (2-el integral package), F12 methods
   Garnet Chan, S. Sharma, J. Yang, R. Olivares  : DMRG
   Ulf Ekstrom                                   : XCFun DFT Library
   Mihaly Kallay                                 : mrcc  (arbitrary order and MRCC methods)
   Jiri Pittner, Ondrej Demel                    : Mk-CCSD
   Frank Weinhold                                : gennbo (NPA and NBO analysis)
   Christopher J. Cramer and Donald G. Truhlar   : smd solvation model
   Lars Goerigk                                  : TD-DFT with DH, B97 family of functionals
   V. Asgeirsson, H. Jonsson                     : NEB implementation
   FAccTs GmbH                                   : IRC, NEB, NEB-TS, DLPNO-Multilevel, CI-OPT
                                                   MM, QMMM, 2- and 3-layer-ONIOM, Crystal-QMMM,
                                                   LR-CPCM, SF, NACMEs, symmetry and pop. for TD-DFT,
                                                   nearIR, NL-DFT gradient (VV10), updates on ESD,
                                                   ML-optimized integration grids
   S Lehtola, MJT Oliveira, MAL Marques          : LibXC Library
   Liviu Ungur et al                             : ANISO software


 Your calculation uses the libint2 library for the computation of 2-el integrals
 For citations please refer to: http://libint.valeyev.net

 Your ORCA version has been built with support for libXC version: 5.1.0
 For citations please refer to: https://tddft.org/programs/libxc/

 This ORCA versions uses:
   CBLAS   interface :  Fast vector & matrix operations
   LAPACKE interface :  Fast linear algebra routines
   SCALAPACK package :  Parallel linear algebra routines
   Shared memory     :  Shared parallel matrices
   BLAS/LAPACK       :  OpenBLAS 0.3.15  USE64BITINT DYNAMIC_ARCH NO_AFFINITY SkylakeX SINGLE_THREADED
        Core in use  :  SkylakeX
   Copyright (c) 2011-2014, The OpenBLAS Project




***************************************
The coordinates will be read from file: 4_prot_aq_10.xyz
***************************************


Your calculation utilizes the atom-pairwise dispersion correction
based on tight binding partial charges (D4)
Cite in your paper:
E.Caldeweyher, C.Bannwarth, S.Grimme, J.Chem.Phys., (2017), 147, 034112.
E.Caldeweyher, S.Ehlert, A.Hansen, H.Neugebauer, S.Grimme, J.Chem.Phys., (2018), in progress.
   

XCFun DFT library Copyright 2009-2010 Ulf Ekstrom and contributors.
See http://admol.org/xcfun for more information.
This is free software; see the source code for copying conditions.
There is ABSOLUTELY NO WARRANTY; not even for MERCHANTABILITY or FITNESS FOR A PARTICULAR PURPOSE.
For details see the documentation.
Scientific users of this library should cite U. Ekstrom, L. Visscher, R. Bast, A. J. Thorvaldsen and K. Ruud;
J.Chem.Theor.Comp. 2010, DOI: 10.1021/ct100117s
XCFun Version 0.99 

================================================================================

----- Orbital basis set information -----
Your calculation utilizes the basis: def2-SVP
   F. Weigend and R. Ahlrichs, Phys. Chem. Chem. Phys. 7, 3297 (2005).

----- AuxJ basis set information -----
Your calculation utilizes the auxiliary basis: def2/J
   F. Weigend, Phys. Chem. Chem. Phys. 8, 1057 (2006).

================================================================================
                                        WARNINGS
                       Please study these warnings very carefully!
================================================================================

WARNING: Old DensityContainer found on disk!
         Will remove this file - 
         If you want to keep old densities, please start your calculation with a different basename. 


WARNING: Geometry Optimization
  ===> : Switching off AutoStart
         For restart on a previous wavefunction, please use MOREAD

INFO   : the flag for use of the SHARK integral package has been found!

================================================================================
                                       INPUT FILE
================================================================================
NAME = 4_prot_aq_10.inp
|  1> # ORCA 5.0.4 - /users/bwb16179/postgrad/2024_03/DFT_Crest_Conformers/Opt/prot/4_prot_aq_10.inp # write input file
|  2> # Basic Mode
|  3> #
|  4> ! Opt Freq wB97X Def2-SVP D4 SlowConv TightSCF Defgrid2 Def2/J RIJCOSX CPCM(Water)
|  5> 
|  6> 
|  7> 
|  8> %maxcore 4500
|  9> 
| 10> %geom
| 11> Maxiter 150
| 12> END
| 13> 
| 14> * xyzfile 1 1 4_prot_aq_10.xyz
| 15> 
| 16>                          ****END OF INPUT****
================================================================================

                       *****************************
                       * Geometry Optimization Run *
                       *****************************

Geometry optimization settings:
Update method            Update   .... BFGS
Choice of coordinates    CoordSys .... Z-matrix Internals
Initial Hessian          InHess   .... Almoef's Model

Convergence Tolerances:
Energy Change            TolE     ....  5.0000e-06 Eh
Max. Gradient            TolMAXG  ....  3.0000e-04 Eh/bohr
RMS Gradient             TolRMSG  ....  1.0000e-04 Eh/bohr
Max. Displacement        TolMAXD  ....  4.0000e-03 bohr
RMS Displacement         TolRMSD  ....  2.0000e-03 bohr
Strict Convergence                ....  False
------------------------------------------------------------------------------
                        ORCA OPTIMIZATION COORDINATE SETUP
------------------------------------------------------------------------------

The optimization will be done in new redundant internal coordinates
Making redundant internal coordinates   ...  (new redundants) done
Evaluating the initial hessian          ...  (Almloef) done
Evaluating the coordinates              ...  done
Calculating the B-matrix                .... done
Calculating the G-matrix                .... done
Diagonalizing the G-matrix              .... done
Small eigenvalue found = 1.280e-02
Small eigenvalue found = 2.425e-02
The first mode is                       ....   69
The number of degrees of freedom        ....   78

    -----------------------------------------------------------------
                    Redundant Internal Coordinates


    -----------------------------------------------------------------
         Definition                    Initial Value    Approx d2E/dq
    -----------------------------------------------------------------
      1. B(C   1,N   0)                  1.3304         0.696473   
      2. B(N   2,C   1)                  1.3319         0.692780   
      3. B(H   3,C   1)                  1.0889         0.361541   
      4. B(C   4,N   2)                  1.3795         0.581690   
      5. B(C   5,C   4)                  1.3605         0.696304   
      6. B(C   5,N   0)                  1.3775         0.585829   
      7. B(C   6,N   0)                  1.4786         0.404115   
      8. B(C   7,N   2)                  1.4843         0.395794   
      9. B(C   8,C   6)                  1.5225         0.383983   
     10. B(H   9,C   6)                  1.1004         0.346653   
     11. B(C  10,C   6)                  1.5217         0.385100   
     12. B(C  11,C   7)                  1.5192         0.388677   
     13. B(C  12,C   7)                  1.5229         0.383460   
     14. B(H  13,C   7)                  1.1016         0.345132   
     15. B(H  14,C   4)                  1.0879         0.362917   
     16. B(H  15,C   5)                  1.0884         0.362262   
     17. B(H  16,C   8)                  1.1000         0.347158   
     18. B(H  17,C   8)                  1.0995         0.347701   
     19. B(H  18,C   8)                  1.1013         0.345397   
     20. B(H  19,C  10)                  1.1013         0.345469   
     21. B(H  20,C  10)                  1.0995         0.347803   
     22. B(H  21,C  10)                  1.0999         0.347228   
     23. B(H  22,C  11)                  1.0986         0.348850   
     24. B(H  23,C  11)                  1.1001         0.347008   
     25. B(H  24,C  11)                  1.1016         0.345093   
     26. B(H  25,C  12)                  1.0993         0.347964   
     27. B(H  26,C  12)                  1.1013         0.345419   
     28. B(H  27,C  12)                  1.0993         0.348057   
     29. A(C   1,N   0,C   6)          125.0476         0.405290   
     30. A(C   5,N   0,C   6)          126.3873         0.393144   
     31. A(C   1,N   0,C   5)          108.5348         0.433022   
     32. A(N   0,C   1,H   3)          124.4417         0.357962   
     33. A(N   2,C   1,H   3)          126.3926         0.357639   
     34. A(N   0,C   1,N   2)          109.1636         0.446329   
     35. A(C   1,N   2,C   7)          127.0889         0.403425   
     36. A(C   1,N   2,C   4)          108.1677         0.432057   
     37. A(C   4,N   2,C   7)          124.7362         0.391230   
     38. A(N   2,C   4,H  14)          122.2743         0.347441   
     39. A(C   5,C   4,H  14)          130.4743         0.360412   
     40. A(N   2,C   4,C   5)          107.2465         0.435301   
     41. A(N   0,C   5,C   4)          106.8870         0.435857   
     42. A(N   0,C   5,H  15)          122.5442         0.347751   
     43. A(C   4,C   5,H  15)          130.5677         0.360301   
     44. A(N   0,C   6,C  10)          110.2366         0.367888   
     45. A(C   8,C   6,H   9)          109.2618         0.323756   
     46. A(N   0,C   6,H   9)          104.5723         0.324533   
     47. A(N   0,C   6,C   8)          109.9265         0.367705   
     48. A(H   9,C   6,C  10)          109.0914         0.323911   
     49. A(C   8,C   6,C  10)          113.3729         0.366968   
     50. A(C  12,C   7,H  13)          109.6964         0.323450   
     51. A(C  11,C   7,H  13)          108.9301         0.324168   
     52. A(N   2,C   7,H  13)          105.1683         0.323193   
     53. A(C  11,C   7,C  12)          112.2363         0.367465   
     54. A(N   2,C   7,C  12)          109.7544         0.366310   
     55. A(N   2,C   7,C  11)          110.8078         0.367159   
     56. A(C   6,C   8,H  18)          111.0276         0.323563   
     57. A(H  16,C   8,H  17)          108.5022         0.287593   
     58. A(C   6,C   8,H  17)          109.3321         0.323917   
     59. A(C   6,C   8,H  16)          111.0040         0.323833   
     60. A(H  17,C   8,H  18)          108.1301         0.287365   
     61. A(H  16,C   8,H  18)          108.7646         0.287294   
     62. A(H  19,C  10,H  21)          108.8725         0.287313   
     63. A(C   6,C  10,H  21)          111.1664         0.323999   
     64. A(H  19,C  10,H  20)          107.9258         0.287387   
     65. A(C   6,C  10,H  20)          109.0483         0.324087   
     66. A(H  20,C  10,H  21)          108.4600         0.287615   
     67. A(C   6,C  10,H  19)          111.2718         0.323729   
     68. A(H  23,C  11,H  24)          109.1458         0.287236   
     69. A(H  22,C  11,H  24)          107.8933         0.287473   
     70. A(C   7,C  11,H  24)          111.3354         0.324162   
     71. A(H  22,C  11,H  23)          107.8261         0.287722   
     72. A(C   7,C  11,H  23)          112.0194         0.324457   
     73. A(C   7,C  11,H  22)          108.4712         0.324740   
     74. A(H  26,C  12,H  27)          108.8777         0.287413   
     75. A(H  25,C  12,H  27)          107.7291         0.287743   
     76. A(C   7,C  12,H  27)          112.1718         0.323899   
     77. A(H  25,C  12,H  26)          108.4590         0.287401   
     78. A(C   7,C  12,H  26)          110.5435         0.323494   
     79. A(C   7,C  12,H  25)          108.9529         0.323884   
     80. D(H   3,C   1,N   0,C   5)    179.7071         0.040101   
     81. D(H   3,C   1,N   0,C   6)      1.6052         0.040101   
     82. D(N   2,C   1,N   0,C   6)   -177.9066         0.040101   
     83. D(N   2,C   1,N   0,C   5)      0.1954         0.040101   
     84. D(C   7,N   2,C   1,H   3)      1.2806         0.039635   
     85. D(C   7,N   2,C   1,N   0)   -179.2196         0.039635   
     86. D(C   4,N   2,C   1,H   3)   -179.6641         0.039635   
     87. D(C   4,N   2,C   1,N   0)     -0.1644         0.039635   
     88. D(H  14,C   4,N   2,C   1)   -179.2088         0.027149   
     89. D(C   5,C   4,N   2,C   7)    179.1521         0.027149   
     90. D(H  14,C   4,N   2,C   7)     -0.1258         0.027149   
     91. D(C   5,C   4,N   2,C   1)      0.0691         0.027149   
     92. D(H  15,C   5,N   0,C   1)   -179.8065         0.027563   
     93. D(C   4,C   5,N   0,C   6)    177.9208         0.027563   
     94. D(C   4,C   5,N   0,C   1)     -0.1490         0.027563   
     95. D(H  15,C   5,C   4,H  14)     -1.1346         0.034117   
     96. D(H  15,C   5,C   4,N   2)    179.6681         0.034117   
     97. D(N   0,C   5,C   4,H  14)    179.2454         0.034117   
     98. D(N   0,C   5,C   4,N   2)      0.0481         0.034117   
     99. D(H  15,C   5,N   0,C   6)     -1.7367         0.027563   
    100. D(C  10,C   6,N   0,C   5)     58.5500         0.013938   
    101. D(C  10,C   6,N   0,C   1)   -123.6856         0.013938   
    102. D(H   9,C   6,N   0,C   5)    175.6805         0.013938   
    103. D(H   9,C   6,N   0,C   1)     -6.5550         0.013938   
    104. D(C   8,C   6,N   0,C   5)    -67.1388         0.013938   
    105. D(C   8,C   6,N   0,C   1)    110.6256         0.013938   
    106. D(C  12,C   7,N   2,C   4)     54.2302         0.013381   
    107. D(C  11,C   7,N   2,C   4)    178.7450         0.013381   
    108. D(C  11,C   7,N   2,C   1)     -2.3473         0.013381   
    109. D(H  13,C   7,N   2,C   1)    115.2077         0.013381   
    110. D(C  12,C   7,N   2,C   1)   -126.8621         0.013381   
    111. D(H  13,C   7,N   2,C   4)    -63.7000         0.013381   
    112. D(H  18,C   8,C   6,C  10)    -59.7359         0.011739   
    113. D(H  18,C   8,C   6,H   9)    178.3622         0.011739   
    114. D(H  18,C   8,C   6,N   0)     64.1464         0.011739   
    115. D(H  17,C   8,C   6,C  10)     59.4838         0.011739   
    116. D(H  17,C   8,C   6,H   9)    -62.4181         0.011739   
    117. D(H  17,C   8,C   6,N   0)   -176.6339         0.011739   
    118. D(H  16,C   8,C   6,C  10)    179.1494         0.011739   
    119. D(H  16,C   8,C   6,H   9)     57.2475         0.011739   
    120. D(H  16,C   8,C   6,N   0)    -56.9683         0.011739   
    121. D(H  21,C  10,C   6,H   9)    -57.8623         0.011804   
    122. D(H  21,C  10,C   6,C   8)   -179.8593         0.011804   
    123. D(H  21,C  10,C   6,N   0)     56.4279         0.011804   
    124. D(H  20,C  10,C   6,H   9)     61.6696         0.011804   
    125. D(H  20,C  10,C   6,C   8)    -60.3274         0.011804   
    126. D(H  20,C  10,C   6,N   0)    175.9598         0.011804   
    127. D(H  19,C  10,C   6,H   9)   -179.3939         0.011804   
    128. D(H  19,C  10,C   6,C   8)     58.6091         0.011804   
    129. D(H  19,C  10,C   6,N   0)    -65.1037         0.011804   
    130. D(H  24,C  11,C   7,C  12)     62.7963         0.012014   
    131. D(H  24,C  11,C   7,N   2)    -60.2957         0.012014   
    132. D(H  23,C  11,C   7,H  13)    -52.9934         0.012014   
    133. D(H  23,C  11,C   7,C  12)   -174.6716         0.012014   
    134. D(H  23,C  11,C   7,N   2)     62.2364         0.012014   
    135. D(H  22,C  11,C   7,H  13)     65.9040         0.012014   
    136. D(H  22,C  11,C   7,C  12)    -55.7742         0.012014   
    137. D(H  24,C  11,C   7,H  13)   -175.5255         0.012014   
    138. D(H  22,C  11,C   7,N   2)   -178.8663         0.012014   
    139. D(H  26,C  12,C   7,N   2)     62.1013         0.011708   
    140. D(H  25,C  12,C   7,H  13)    -63.7294         0.011708   
    141. D(H  25,C  12,C   7,C  11)     57.5099         0.011708   
    142. D(H  25,C  12,C   7,N   2)   -178.8074         0.011708   
    143. D(H  27,C  12,C   7,H  13)     55.4553         0.011708   
    144. D(H  27,C  12,C   7,C  11)    176.6945         0.011708   
    145. D(H  27,C  12,C   7,N   2)    -59.6228         0.011708   
    146. D(H  26,C  12,C   7,H  13)    177.1793         0.011708   
    147. D(H  26,C  12,C   7,C  11)    -61.5814         0.011708   
    -----------------------------------------------------------------

Number of atoms                         .... 28
Number of degrees of freedom            .... 147

         *************************************************************
         *                GEOMETRY OPTIMIZATION CYCLE   1            *
         *************************************************************
---------------------------------
CARTESIAN COORDINATES (ANGSTROEM)
---------------------------------
  N     -1.043414   -0.089521    0.019063
  C      0.102702    0.206711    0.626293
  N      1.112431   -0.318825   -0.065208
  H      0.181870    0.794867    1.539275
  C      0.588234   -0.980383   -1.156294
  C     -0.763703   -0.837408   -1.103441
  C     -2.380599    0.357486    0.464490
  C      2.557714   -0.244144    0.264410
  C     -2.944553    1.370357   -0.522482
  H     -2.199359    0.853454    1.429871
  C     -3.290456   -0.842291    0.684384
  C      2.783687    0.587992    1.515206
  C      3.331542    0.292526   -0.932406
  H      2.861220   -1.283504    0.467000
  H      1.215176   -1.506822   -1.872734
  H     -1.540655   -1.201139   -1.773212
  H     -2.264324    2.226663   -0.640585
  H     -3.910949    1.740999   -0.151421
  H     -3.109953    0.910529   -1.509481
  H     -3.487147   -1.373028   -0.260324
  H     -4.253748   -0.493720    1.083601
  H     -2.850122   -1.548064    1.403959
  H      3.863592    0.634821    1.711729
  H      2.299587    0.145160    2.398226
  H      2.418881    1.618861    1.382085
  H      4.401482    0.322180   -0.681647
  H      3.002642    1.314350   -1.178636
  H      3.213599   -0.343027   -1.821526

----------------------------
CARTESIAN COORDINATES (A.U.)
----------------------------
  NO LB      ZA    FRAG     MASS         X           Y           Z
   0 N     7.0000    0    14.007   -1.971766   -0.169170    0.036024
   1 C     6.0000    0    12.011    0.194079    0.390627    1.183522
   2 N     7.0000    0    14.007    2.102191   -0.602493   -0.123226
   3 H     1.0000    0     1.008    0.343684    1.502082    2.908808
   4 C     6.0000    0    12.011    1.111601   -1.852655   -2.185080
   5 C     6.0000    0    12.011   -1.443189   -1.582472   -2.085201
   6 C     6.0000    0    12.011   -4.498680    0.675551    0.877760
   7 C     6.0000    0    12.011    4.833378   -0.461365    0.499663
   8 C     6.0000    0    12.011   -5.564398    2.589599   -0.987348
   9 H     1.0000    0     1.008   -4.156186    1.612795    2.702064
  10 C     6.0000    0    12.011   -6.218060   -1.591700    1.293298
  11 C     6.0000    0    12.011    5.260406    1.111145    2.863324
  12 C     6.0000    0    12.011    6.295702    0.552795   -1.761992
  13 H     1.0000    0     1.008    5.406921   -2.425471    0.882503
  14 H     1.0000    0     1.008    2.296350   -2.847482   -3.538955
  15 H     1.0000    0     1.008   -2.911417   -2.269824   -3.350886
  16 H     1.0000    0     1.008   -4.278953    4.207784   -1.210530
  17 H     1.0000    0     1.008   -7.390622    3.290012   -0.286144
  18 H     1.0000    0     1.008   -5.876960    1.720650   -2.852506
  19 H     1.0000    0     1.008   -6.589752   -2.594647   -0.491941
  20 H     1.0000    0     1.008   -8.038418   -0.932995    2.047709
  21 H     1.0000    0     1.008   -5.385949   -2.925418    2.653098
  22 H     1.0000    0     1.008    7.301130    1.199637    3.234700
  23 H     1.0000    0     1.008    4.345590    0.274312    4.531991
  24 H     1.0000    0     1.008    4.571023    3.059204    2.611762
  25 H     1.0000    0     1.008    8.317596    0.608832   -1.288126
  26 H     1.0000    0     1.008    5.674170    2.483761   -2.227300
  27 H     1.0000    0     1.008    6.072821   -0.648226   -3.442185

--------------------------------
INTERNAL COORDINATES (ANGSTROEM)
--------------------------------
 N      0   0   0     0.000000000000     0.00000000     0.00000000
 C      1   0   0     1.330437179092     0.00000000     0.00000000
 N      2   1   0     1.331884253323   109.16363668     0.00000000
 H      2   1   3     1.088912833463   124.44174394   179.51171593
 C      3   2   1     1.379459780348   108.16769133   359.83563423
 C      5   3   2     1.360503021684   107.24650511     0.06908716
 C      1   2   3     1.478609031099   125.04755622   182.09343532
 C      3   2   1     1.484272975080   127.08887988   180.78035858
 C      7   1   2     1.522519621210   109.92651661   110.62564568
 H      7   1   2     1.100359546029   104.57231766   353.44495114
 C      7   1   2     1.521728642956   110.23663505   236.31444926
 C      8   3   2     1.519211840792   110.80778666   357.65270854
 C      8   3   2     1.522890258673   109.75443451   233.13789871
 H      8   3   2     1.101557037737   105.16826856   115.20769582
 H      5   3   2     1.087879003236   122.27432455   180.79124996
 H      6   5   3     1.088370260696   130.56766248   179.66807470
 H      9   7   1     1.099963728963   111.00403170   303.03166307
 H      9   7   1     1.099538230547   109.33210250   183.36605680
 H      9   7   1     1.101347510596   111.02758792    64.14637529
 H     11   7   1     1.101290879133   111.27180214   294.89628164
 H     11   7   1     1.099458112912   109.04833551   175.95977695
 H     11   7   1     1.099908467253   111.16642675    56.42786086
 H     12   8   3     1.098639536056   108.47122941   181.13370964
 H     12   8   3     1.100080665393   112.01937155    62.23635431
 H     12   8   3     1.101587379455   111.33536405   299.70425856
 H     13   8   3     1.099332269052   108.95288433   181.19257456
 H     13   8   3     1.101330126889   110.54349773    62.10128145
 H     13   8   3     1.099259770150   112.17182435   300.37724744

---------------------------
INTERNAL COORDINATES (A.U.)
---------------------------
 N      0   0   0     0.000000000000     0.00000000     0.00000000
 C      1   0   0     2.514161906870     0.00000000     0.00000000
 N      2   1   0     2.516896480864   109.16363668     0.00000000
 H      2   1   3     2.057747038958   124.44174394   179.51171593
 C      3   2   1     2.606801197617   108.16769133   359.83563423
 C      5   3   2     2.570978115356   107.24650511     0.06908716
 C      1   2   3     2.794166127920   125.04755622   182.09343532
 C      3   2   1     2.804869430881   127.08887988   180.78035858
 C      7   1   2     2.877145117608   109.92651661   110.62564568
 H      7   1   2     2.079378190841   104.57231766   353.44495114
 C      7   1   2     2.875650385330   110.23663505   236.31444926
 C      8   3   2     2.870894318507   110.80778666   357.65270854
 C      8   3   2     2.877845520909   109.75443451   233.13789871
 H      8   3   2     2.081641122217   105.16826856   115.20769582
 H      5   3   2     2.055793382960   122.27432455   180.79124996
 H      6   5   3     2.056721725021   130.56766248   179.66807470
 H      9   7   1     2.078630204987   111.00403170   303.03166307
 H      9   7   1     2.077826129509   109.33210250   183.36605680
 H      9   7   1     2.081245173302   111.02758792    64.14637529
 H     11   7   1     2.081138155347   111.27180214   294.89628164
 H     11   7   1     2.077674729122   109.04833551   175.95977695
 H     11   7   1     2.078525775488   111.16642675    56.42786086
 H     12   8   3     2.076127843044   108.47122941   181.13370964
 H     12   8   3     2.078851182815   112.01937155    62.23635431
 H     12   8   3     2.081698459755   111.33536405   299.70425856
 H     13   8   3     2.077436918691   108.95288433   181.19257456
 H     13   8   3     2.081212322857   110.54349773    62.10128145
 H     13   8   3     2.077299915620   112.17182435   300.37724744

---------------------
BASIS SET INFORMATION
---------------------
There are 3 groups of distinct atoms

 Group   1 Type N   : 7s4p1d contracted to 3s2p1d pattern {511/31/1}
 Group   2 Type C   : 7s4p1d contracted to 3s2p1d pattern {511/31/1}
 Group   3 Type H   : 4s1p contracted to 2s1p pattern {31/1}

Atom   0N    basis set group =>   1
Atom   1C    basis set group =>   2
Atom   2N    basis set group =>   1
Atom   3H    basis set group =>   3
Atom   4C    basis set group =>   2
Atom   5C    basis set group =>   2
Atom   6C    basis set group =>   2
Atom   7C    basis set group =>   2
Atom   8C    basis set group =>   2
Atom   9H    basis set group =>   3
Atom  10C    basis set group =>   2
Atom  11C    basis set group =>   2
Atom  12C    basis set group =>   2
Atom  13H    basis set group =>   3
Atom  14H    basis set group =>   3
Atom  15H    basis set group =>   3
Atom  16H    basis set group =>   3
Atom  17H    basis set group =>   3
Atom  18H    basis set group =>   3
Atom  19H    basis set group =>   3
Atom  20H    basis set group =>   3
Atom  21H    basis set group =>   3
Atom  22H    basis set group =>   3
Atom  23H    basis set group =>   3
Atom  24H    basis set group =>   3
Atom  25H    basis set group =>   3
Atom  26H    basis set group =>   3
Atom  27H    basis set group =>   3
---------------------------------
AUXILIARY/J BASIS SET INFORMATION
---------------------------------
There are 3 groups of distinct atoms

 Group   1 Type N   : 12s5p4d2f1g contracted to 6s4p3d1f1g pattern {711111/2111/211/2/1}
 Group   2 Type C   : 12s5p4d2f1g contracted to 6s4p3d1f1g pattern {711111/2111/211/2/1}
 Group   3 Type H   : 5s2p1d contracted to 3s1p1d pattern {311/2/1}

Atom   0N    basis set group =>   1
Atom   1C    basis set group =>   2
Atom   2N    basis set group =>   1
Atom   3H    basis set group =>   3
Atom   4C    basis set group =>   2
Atom   5C    basis set group =>   2
Atom   6C    basis set group =>   2
Atom   7C    basis set group =>   2
Atom   8C    basis set group =>   2
Atom   9H    basis set group =>   3
Atom  10C    basis set group =>   2
Atom  11C    basis set group =>   2
Atom  12C    basis set group =>   2
Atom  13H    basis set group =>   3
Atom  14H    basis set group =>   3
Atom  15H    basis set group =>   3
Atom  16H    basis set group =>   3
Atom  17H    basis set group =>   3
Atom  18H    basis set group =>   3
Atom  19H    basis set group =>   3
Atom  20H    basis set group =>   3
Atom  21H    basis set group =>   3
Atom  22H    basis set group =>   3
Atom  23H    basis set group =>   3
Atom  24H    basis set group =>   3
Atom  25H    basis set group =>   3
Atom  26H    basis set group =>   3
Atom  27H    basis set group =>   3
------------------------------------------------------------------------------
                           ORCA GTO INTEGRAL CALCULATION
                           -- RI-GTO INTEGRALS CHOSEN --
------------------------------------------------------------------------------
------------------------------------------------------------------------------
                   ___                                                        
                  /   \      - P O W E R E D   B Y -                         
                 /     \                                                     
                 |  |  |   _    _      __       _____    __    __             
                 |  |  |  | |  | |    /  \     |  _  \  |  |  /  |          
                  \  \/   | |  | |   /    \    | | | |  |  | /  /          
                 / \  \   | |__| |  /  /\  \   | |_| |  |  |/  /          
                |  |  |   |  __  | /  /__\  \  |    /   |      \           
                |  |  |   | |  | | |   __   |  |    \   |  |\   \          
                \     /   | |  | | |  |  |  |  | |\  \  |  | \   \       
                 \___/    |_|  |_| |__|  |__|  |_| \__\ |__|  \__/        
                                                                              
                      - O R C A' S   B I G   F R I E N D -                    
                                      &                                       
                       - I N T E G R A L  F E E D E R -                       
                                                                              
 v1 FN, 2020, v2 2021                                                         
------------------------------------------------------------------------------


Reading SHARK input file 4_prot_aq_10.SHARKINP.tmp ... ok
----------------------
SHARK INTEGRAL PACKAGE
----------------------

Number of atoms                             ...     28
Number of basis functions                   ...    239
Number of shells                            ...    117
Maximum angular momentum                    ...      2
Integral batch strategy                     ... SHARK/LIBINT Hybrid
RI-J (if used) integral strategy            ... SPLIT-RIJ (Revised 2003 algorithm where possible)
Printlevel                                  ...      1
Contraction scheme used                     ... SEGMENTED contraction
Coulomb Range Separation                    ... NOT USED
Exchange Range Separation                   ... Long Range
   Mu parameter                             ...  0.300000
   Scaling (regular/separated)              ...  0.157706  0.842294
Finite Nucleus Model                        ... NOT USED
Auxiliary Coulomb fitting basis             ... AVAILABLE
   # of basis functions in Aux-J            ...    726
   # of shells in Aux-J                     ...    250
   Maximum angular momentum in Aux-J        ...      4
Auxiliary J/K fitting basis                 ... NOT available
Auxiliary Correlation fitting basis         ... NOT available
Auxiliary 'external' fitting basis          ... NOT available
Integral threshold                          ...     2.500000e-11
Primitive cut-off                           ...     2.500000e-12
Primitive pair pre-selection threshold      ...     2.500000e-12

Calculating pre-screening integrals         ... done (  0.1 sec) Dimension = 117
Organizing shell pair data                  ... done (  0.0 sec)
Shell pair information
Total number of shell pairs                 ...      6903
Shell pairs after pre-screening             ...      6001
Total number of primitive shell pairs       ...     23847
Primitive shell pairs kept                  ...     14769
          la=0 lb=0:   2043 shell pairs
          la=1 lb=0:   2267 shell pairs
          la=1 lb=1:    650 shell pairs
          la=2 lb=0:    630 shell pairs
          la=2 lb=1:    354 shell pairs
          la=2 lb=2:     57 shell pairs

Calculating one electron integrals          ... done (  0.0 sec)
Calculating RI/J V-Matrix + Cholesky decomp.... done (  0.0 sec)
Calculating Nuclear repulsion               ... done (  0.0 sec) ENN=    648.589608288258 Eh

SHARK setup successfully completed in   0.3 seconds

Maximum memory used throughout the entire GTOINT-calculation: 36.2 MB
-------------------------------------------------------------------------------
                                 ORCA SCF
-------------------------------------------------------------------------------

------------
SCF SETTINGS
------------
Hamiltonian:
 Density Functional     Method          .... DFT(GTOs)
 Exchange Functional    Exchange        .... WB97X
 Correlation Functional Correlation     .... WB97X
 Gradients option       PostSCFGGA      .... off
 Hybrid DFT is turned on
   Fraction HF Exchange ScalHFX         ....  0.157706
   Scaling of DF-GGA-X  ScalDFX         ....  0.000000
   Scaling of DF-GGA-C  ScalDFC         ....  1.000000
   Scaling of DF-LDA-C  ScalLDAC        ....  1.000000
   Perturbative correction              ....  0.000000
   Density functional embedding theory  .... OFF
 Long-range corrected/Screened/Range-Separated Hybrid DFT is turned on
   Amount of maximum screened exact exchange              ....  0.842294
   Range separation parameter mu (erf(mu*r12)/r12)        ....  0.300000
 RI-approximation to the Coulomb term is turned on
   Number of AuxJ basis functions       .... 726
   RIJ-COSX (HFX calculated with COS-X)).... on


General Settings:
 Integral files         IntName         .... 4_prot_aq_10
 Hartree-Fock type      HFTyp           .... RHF
 Total Charge           Charge          ....    1
 Multiplicity           Mult            ....    1
 Number of Electrons    NEL             ....   84
 Basis Dimension        Dim             ....  239
 Nuclear Repulsion      ENuc            ....    648.5896082883 Eh

Convergence Acceleration:
 DIIS                   CNVDIIS         .... on
   Start iteration      DIISMaxIt       ....     0
   Startup error        DIISStart       ....  0.200000
   # of expansion vecs  DIISMaxEq       ....     5
   Bias factor          DIISBfac        ....   1.050
   Max. coefficient     DIISMaxC        ....  10.000
 Trust-Rad. Augm. Hess. CNVTRAH         .... auto
   Auto Start mean grad. ratio tolernc. ....  1.125000
   Auto Start start iteration           ....    20
   Auto Start num. interpolation iter.  ....    10
   Max. Number of Micro iterations      ....    16
   Max. Number of Macro iterations      .... Maxiter - #DIIS iter
   Number of Davidson start vectors     ....     2
   Converg. threshold I  (grad. norm)   ....   1.000e-05
   Converg. threshold II (energy diff.) ....   1.000e-08
   Grad. Scal. Fac. for Micro threshold ....   0.100
   Minimum threshold for Micro iter.    ....   0.010
   NR start threshold (gradient norm)   ....   0.001
   Initial trust radius                 ....   0.400
   Minimum AH scaling param. (alpha)    ....   1.000
   Maximum AH scaling param. (alpha)    .... 1000.000
   Orbital update algorithm             .... Taylor
   White noise on init. David. guess    .... on
   Maximum white noise                  ....   0.010
   Quad. conv. algorithm                .... NR
 SOSCF                  CNVSOSCF        .... on
   Start iteration      SOSCFMaxIt      ....   150
   Startup grad/error   SOSCFStart      ....  0.001000
 Level Shifting         CNVShift        .... on
   Level shift para.    LevelShift      ....    0.2500
   Turn off err/grad.   ShiftErr        ....    0.0000
 Zerner damping         CNVZerner       .... off
 Static damping         CNVDamp         .... on
   Fraction old density DampFac         ....    0.8500
   Max. Damping (<1)    DampMax         ....    0.9800
   Min. Damping (>=0)   DampMin         ....    0.0000
   Turn off err/grad.   DampErr         ....    0.0300
 Fernandez-Rico         CNVRico         .... off

SCF Procedure:
 Maximum # iterations   MaxIter         ....   125
 SCF integral mode      SCFMode         .... Direct
   Integral package                     .... SHARK and LIBINT hybrid scheme
 Reset frequency        DirectResetFreq ....    20
 Integral Threshold     Thresh          ....  2.500e-11 Eh
 Primitive CutOff       TCut            ....  2.500e-12 Eh

Convergence Tolerance:
 Convergence Check Mode ConvCheckMode   .... Total+1el-Energy
 Convergence forced     ConvForced      .... 0
 Energy Change          TolE            ....  1.000e-08 Eh
 1-El. energy change                    ....  1.000e-05 Eh
 Orbital Gradient       TolG            ....  1.000e-05
 Orbital Rotation angle TolX            ....  1.000e-05
 DIIS Error             TolErr          ....  5.000e-07


Diagonalization of the overlap matrix:
Smallest eigenvalue                        ... 1.309e-03
Time for diagonalization                   ...    0.010 sec
Threshold for overlap eigenvalues          ... 1.000e-08
Number of eigenvalues below threshold      ... 0
Time for construction of square roots      ...    0.046 sec
Total time needed                          ...    0.057 sec

Time for model grid setup =    0.553 sec

------------------------------
INITIAL GUESS: MODEL POTENTIAL
------------------------------
Loading Hartree-Fock densities                     ... done
Calculating cut-offs                               ... done
Initializing the effective Hamiltonian             ... done
Setting up the integral package (SHARK)            ... done
Starting the Coulomb interaction                   ... done (   0.5 sec)
Reading the grid                                   ... done
Mapping shells                                     ... done
Starting the XC term evaluation                    ... done (   0.6 sec)
  promolecular density results
     # of electrons  =     84.992939319
     EX              =    -64.203504200
     EC              =     -2.815160636
     EX+EC           =    -67.018664836
Transforming the Hamiltonian                       ... done (   0.0 sec)
Diagonalizing the Hamiltonian                      ... done (   0.0 sec)
Back transforming the eigenvectors                 ... done (   0.0 sec)
Now organizing SCF variables                       ... done
                      ------------------
                      INITIAL GUESS DONE (   1.6 sec)
                      ------------------
-------------------
DFT GRID GENERATION
-------------------

General Integration Accuracy     IntAcc      ... 4.388
Radial Grid Type                 RadialGrid  ... OptM3 with GC (2021)
Angular Grid (max. ang.)         AngularGrid ... 4 (Lebedev-302)
Angular grid pruning method      GridPruning ... 4 (adaptive)
Weight generation scheme         WeightScheme... Becke
Basis function cutoff            BFCut       ... 1.0000e-11
Integration weight cutoff        WCut        ... 1.0000e-14
Angular grids for H and He will be reduced by one unit
Partially contracted basis set               ... off
Rotationally invariant grid construction     ... off

Total number of grid points                  ...   120104
Total number of batches                      ...     1891
Average number of points per batch           ...       63
Average number of grid points per atom       ...     4289
Time for grid setup =    2.080 sec

--------------------
COSX GRID GENERATION
--------------------

GRIDX 1
-------
General Integration Accuracy     IntAcc      ... 3.816
Radial Grid Type                 RadialGrid  ... OptM3 with GC (2021)
Angular Grid (max. ang.)         AngularGrid ... 1 (Lebedev-50)
Angular grid pruning method      GridPruning ... 4 (adaptive)
Weight generation scheme         WeightScheme... Becke
Basis function cutoff            BFCut       ... 1.0000e-11
Integration weight cutoff        WCut        ... 1.0000e-14
Angular grids for H and He will be reduced by one unit
Partially contracted basis set               ... on
Rotationally invariant grid construction     ... off

Total number of grid points                  ...    15384
Total number of batches                      ...      256
Average number of points per batch           ...       60
Average number of grid points per atom       ...      549
UseSFitting                                  ... on

GRIDX 2
-------
General Integration Accuracy     IntAcc      ... 4.020
Radial Grid Type                 RadialGrid  ... OptM3 with GC (2021)
Angular Grid (max. ang.)         AngularGrid ... 2 (Lebedev-110)
Angular grid pruning method      GridPruning ... 4 (adaptive)
Weight generation scheme         WeightScheme... Becke
Basis function cutoff            BFCut       ... 1.0000e-11
Integration weight cutoff        WCut        ... 1.0000e-14
Angular grids for H and He will be reduced by one unit
Partially contracted basis set               ... on
Rotationally invariant grid construction     ... off

Total number of grid points                  ...    32139
Total number of batches                      ...      518
Average number of points per batch           ...       62
Average number of grid points per atom       ...     1148
UseSFitting                                  ... on

GRIDX 3
-------
General Integration Accuracy     IntAcc      ... 4.338
Radial Grid Type                 RadialGrid  ... OptM3 with GC (2021)
Angular Grid (max. ang.)         AngularGrid ... 3 (Lebedev-194)
Angular grid pruning method      GridPruning ... 4 (adaptive)
Weight generation scheme         WeightScheme... Becke
Basis function cutoff            BFCut       ... 1.0000e-11
Integration weight cutoff        WCut        ... 1.0000e-14
Angular grids for H and He will be reduced by one unit
Partially contracted basis set               ... on
Rotationally invariant grid construction     ... off

Total number of grid points                  ...    70020
Total number of batches                      ...     1110
Average number of points per batch           ...       63
Average number of grid points per atom       ...     2501
UseSFitting                                  ... on

Time for X-Grid setup             =    2.678 sec


--------------------
CPCM SOLVATION MODEL
--------------------
CPCM parameters:
  Epsilon                                         ...      80.4000
  Refrac                                          ...       1.3300
  Rsolv                                           ...       1.3000
  Surface type                                    ... GAUSSIAN VDW
  Epsilon function type                           ...         CPCM
Radii:
 Radius for N  used is    3.5149 Bohr (=   1.8600 Ang.)
 Radius for C  used is    3.8550 Bohr (=   2.0400 Ang.)
 Radius for H  used is    2.4944 Bohr (=   1.3200 Ang.)
Calculating surface                               ...        done! (  0.0s)
GEPOL surface points                              ...         1510
GEPOL Volume                                      ...    1446.5072
GEPOL Surface-area                                ...     806.1390
Calculating surface distance matrix               ...        done! (  0.0s)
Performing Cholesky decomposition & store         ...        done! (  0.1s)
Overall time for CPCM initialization              ...                 0.1s
--------------
SCF ITERATIONS
--------------
ITER       Energy         Delta-E        Max-DP      RMS-DP      [F,P]     Damp
               ***  Starting incremental Fock matrix formation  ***
  0   -461.9266808882   0.000000000000 0.03282118  0.00062438  0.1479134 0.8500
  1   -461.9692815021  -0.042600613840 0.02955576  0.00058511  0.1189720 0.8500
                               ***Turning on DIIS***
  2   -462.0015728692  -0.032291367074 0.02312768  0.00047592  0.0911473 0.8500
  3   -462.0254801181  -0.023907248947 0.01448234  0.00033699  0.0689403 0.8500
  4   -462.0438646871  -0.018384568991 0.00976330  0.00025738  0.0548324 0.8500
  5   -462.0583063395  -0.014441652446 0.00743097  0.00021067  0.0453221 0.8500
  6   -462.0700208379  -0.011714498370 0.00602314  0.00017744  0.0381164 0.8500
  7   -462.0797001855  -0.009679347637 0.00513410  0.00015248  0.0322819 0.8500
  8   -462.0877867358  -0.008086550291 0.02921247  0.00087353  0.0273004 0.0000
  9   -462.1311624510  -0.043375715151 0.00132628  0.00003072  0.0011785 0.0000
                      *** Initiating the SOSCF procedure ***
                           *** Shutting down DIIS ***
                      *** Re-Reading the Fockian *** 
                      *** Removing any level shift *** 
ITER      Energy       Delta-E        Grad      Rot      Max-DP    RMS-DP
 10   -462.13117797  -0.0000155170  0.000135  0.000135  0.000430  0.000012
               *** Restarting incremental Fock matrix formation ***
 11   -462.13114223   0.0000357380  0.000056  0.000106  0.000313  0.000009
 12   -462.13114250  -0.0000002672  0.000040  0.000069  0.000169  0.000004
 13   -462.13114255  -0.0000000520  0.000012  0.000017  0.000047  0.000001
 14   -462.13114256  -0.0000000142  0.000006  0.000008  0.000015  0.000000
 15   -462.13114257  -0.0000000032  0.000003  0.000004  0.000007  0.000000
                  ***Gradient check signals convergence***
              ***Rediagonalizing the Fockian in SOSCF/NRSCF***

               *****************************************************
               *                     SUCCESS                       *
               *           SCF CONVERGED AFTER  16 CYCLES          *
               *****************************************************

Old exchange energy                            =    -21.394460286 Eh
New exchange energy                            =    -21.394471135 Eh
Exchange energy change after final integration =     -0.000010849 Eh
Total energy after final integration           =   -462.131153413 Eh
Final COS-X integration done in                =    61.203 sec

----------------
TOTAL SCF ENERGY
----------------

Total Energy       :         -462.13115341 Eh          -12575.22800 eV

Components:
Nuclear Repulsion  :          648.58960829 Eh           17649.02050 eV
Electronic Energy  :        -1110.72076170 Eh          -30224.24850 eV
One Electron Energy:        -1893.79876499 Eh          -51532.88428 eV
Two Electron Energy:          783.07800329 Eh           21308.63578 eV
Max COSX asymmetry :            0.00000218 Eh               0.00006 eV
CPCM Dielectric    :           -0.07815107 Eh              -2.12660 eV

Virial components:
Potential Energy   :         -918.53597898 Eh          -24994.63469 eV
Kinetic Energy     :          456.40482557 Eh           12419.40669 eV
Virial Ratio       :            2.01254660


DFT components:
N(Alpha)           :       42.000010912640 electrons
N(Beta)            :       42.000010912640 electrons
N(Total)           :       84.000021825280 electrons
E(XC)              :      -47.177200359924 Eh       
DFET-embed. en.    :        0.000000000000 Eh       
CPCM Solvation Model Properties:
Surface-charge          :           -1.02165516
Charge-correction       :            0.00292698 Eh               0.07965 eV
Free-energy (cav+disp)  :  This term is not implemented in the current solvation scheme

---------------
SCF CONVERGENCE
---------------

  Last Energy change         ...    2.9867e-09  Tolerance :   1.0000e-08
  Last MAX-Density change    ...    3.1086e-15  Tolerance :   1.0000e-07
  Last RMS-Density change    ...    3.7836e-17  Tolerance :   5.0000e-09
  Last Orbital Gradient      ...    5.6816e-07  Tolerance :   1.0000e-05
  Last Orbital Rotation      ...    1.2854e-06  Tolerance :   1.0000e-05

             **** THE GBW FILE WAS UPDATED (4_prot_aq_10.gbw) ****
             **** DENSITY 4_prot_aq_10.scfp WAS UPDATED ****
             **** ENERGY FILE WAS UPDATED (4_prot_aq_10.en.tmp) ****
             **** THE GBW FILE WAS UPDATED (4_prot_aq_10.gbw) ****
             **** DENSITY 4_prot_aq_10.scfp WAS UPDATED ****
----------------
ORBITAL ENERGIES
----------------

  NO   OCC          E(Eh)            E(eV) 
   0   2.0000     -14.510551      -394.8522 
   1   2.0000     -14.508910      -394.8075 
   2   2.0000     -10.384194      -282.5683 
   3   2.0000     -10.338192      -281.3165 
   4   2.0000     -10.337353      -281.2937 
   5   2.0000     -10.334360      -281.2122 
   6   2.0000     -10.333634      -281.1925 
   7   2.0000     -10.277329      -279.6603 
   8   2.0000     -10.275057      -279.5985 
   9   2.0000     -10.274532      -279.5842 
  10   2.0000     -10.274165      -279.5743 
  11   2.0000      -1.215264       -33.0690 
  12   2.0000      -1.095070       -29.7984 
  13   2.0000      -0.965512       -26.2729 
  14   2.0000      -0.920657       -25.0524 
  15   2.0000      -0.913666       -24.8621 
  16   2.0000      -0.828159       -22.5353 
  17   2.0000      -0.821446       -22.3527 
  18   2.0000      -0.798160       -21.7190 
  19   2.0000      -0.778754       -21.1910 
  20   2.0000      -0.729099       -19.8398 
  21   2.0000      -0.719510       -19.5789 
  22   2.0000      -0.664913       -18.0932 
  23   2.0000      -0.634644       -17.2695 
  24   2.0000      -0.610215       -16.6048 
  25   2.0000      -0.591954       -16.1079 
  26   2.0000      -0.585975       -15.9452 
  27   2.0000      -0.577810       -15.7230 
  28   2.0000      -0.569200       -15.4887 
  29   2.0000      -0.557625       -15.1737 
  30   2.0000      -0.537099       -14.6152 
  31   2.0000      -0.519516       -14.1368 
  32   2.0000      -0.504322       -13.7233 
  33   2.0000      -0.499778       -13.5996 
  34   2.0000      -0.498233       -13.5576 
  35   2.0000      -0.491098       -13.3635 
  36   2.0000      -0.475376       -12.9356 
  37   2.0000      -0.464787       -12.6475 
  38   2.0000      -0.461171       -12.5491 
  39   2.0000      -0.456015       -12.4088 
  40   2.0000      -0.412120       -11.2144 
  41   2.0000      -0.375816       -10.2265 
  42   0.0000       0.062827         1.7096 
  43   0.0000       0.092741         2.5236 
  44   0.0000       0.140277         3.8171 
  45   0.0000       0.148124         4.0307 
  46   0.0000       0.162178         4.4131 
  47   0.0000       0.172690         4.6991 
  48   0.0000       0.180370         4.9081 
  49   0.0000       0.191786         5.2188 
  50   0.0000       0.196213         5.3392 
  51   0.0000       0.200590         5.4583 
  52   0.0000       0.207723         5.6524 
  53   0.0000       0.226109         6.1527 
  54   0.0000       0.230166         6.2631 
  55   0.0000       0.239076         6.5056 
  56   0.0000       0.240211         6.5365 
  57   0.0000       0.250272         6.8103 
  58   0.0000       0.256609         6.9827 
  59   0.0000       0.261673         7.1205 
  60   0.0000       0.263561         7.1719 
  61   0.0000       0.272528         7.4159 
  62   0.0000       0.273804         7.4506 
  63   0.0000       0.275151         7.4872 
  64   0.0000       0.297643         8.0993 
  65   0.0000       0.305131         8.3030 
  66   0.0000       0.318494         8.6667 
  67   0.0000       0.329960         8.9787 
  68   0.0000       0.341928         9.3043 
  69   0.0000       0.352576         9.5941 
  70   0.0000       0.398980        10.8568 
  71   0.0000       0.431699        11.7471 
  72   0.0000       0.452485        12.3127 
  73   0.0000       0.471856        12.8398 
  74   0.0000       0.484966        13.1966 
  75   0.0000       0.495153        13.4738 
  76   0.0000       0.502264        13.6673 
  77   0.0000       0.514630        14.0038 
  78   0.0000       0.522789        14.2258 
  79   0.0000       0.537901        14.6370 
  80   0.0000       0.544884        14.8270 
  81   0.0000       0.550499        14.9798 
  82   0.0000       0.594006        16.1637 
  83   0.0000       0.606745        16.5104 
  84   0.0000       0.620815        16.8932 
  85   0.0000       0.640244        17.4219 
  86   0.0000       0.662804        18.0358 
  87   0.0000       0.676496        18.4084 
  88   0.0000       0.681464        18.5436 
  89   0.0000       0.698432        19.0053 
  90   0.0000       0.709648        19.3105 
  91   0.0000       0.715680        19.4746 
  92   0.0000       0.724250        19.7078 
  93   0.0000       0.735161        20.0048 
  94   0.0000       0.738071        20.0839 
  95   0.0000       0.741143        20.1675 
  96   0.0000       0.744768        20.2662 
  97   0.0000       0.753318        20.4988 
  98   0.0000       0.758186        20.6313 
  99   0.0000       0.762877        20.7589 
 100   0.0000       0.769954        20.9515 
 101   0.0000       0.775449        21.1010 
 102   0.0000       0.780160        21.2292 
 103   0.0000       0.789988        21.4967 
 104   0.0000       0.794701        21.6249 
 105   0.0000       0.796279        21.6678 
 106   0.0000       0.802133        21.8271 
 107   0.0000       0.804089        21.8804 
 108   0.0000       0.809007        22.0142 
 109   0.0000       0.813154        22.1271 
 110   0.0000       0.815377        22.1875 
 111   0.0000       0.826363        22.4865 
 112   0.0000       0.826897        22.5010 
 113   0.0000       0.837567        22.7914 
 114   0.0000       0.851854        23.1801 
 115   0.0000       0.870538        23.6885 
 116   0.0000       0.902333        24.5537 
 117   0.0000       0.946452        25.7543 
 118   0.0000       0.993207        27.0265 
 119   0.0000       1.004366        27.3302 
 120   0.0000       1.036273        28.1984 
 121   0.0000       1.048869        28.5412 
 122   0.0000       1.067182        29.0395 
 123   0.0000       1.117484        30.4083 
 124   0.0000       1.138643        30.9840 
 125   0.0000       1.155071        31.4311 
 126   0.0000       1.178948        32.0808 
 127   0.0000       1.211424        32.9645 
 128   0.0000       1.232506        33.5382 
 129   0.0000       1.256574        34.1931 
 130   0.0000       1.267333        34.4859 
 131   0.0000       1.289209        35.0812 
 132   0.0000       1.320020        35.9196 
 133   0.0000       1.333666        36.2909 
 134   0.0000       1.347717        36.6732 
 135   0.0000       1.390625        37.8408 
 136   0.0000       1.393957        37.9315 
 137   0.0000       1.401220        38.1291 
 138   0.0000       1.419227        38.6191 
 139   0.0000       1.451237        39.4902 
 140   0.0000       1.470776        40.0218 
 141   0.0000       1.509171        41.0666 
 142   0.0000       1.562542        42.5189 
 143   0.0000       1.627592        44.2890 
 144   0.0000       1.631404        44.3928 
 145   0.0000       1.640417        44.6380 
 146   0.0000       1.643190        44.7135 
 147   0.0000       1.649753        44.8920 
 148   0.0000       1.653111        44.9834 
 149   0.0000       1.672324        45.5062 
 150   0.0000       1.749214        47.5985 
 151   0.0000       1.770515        48.1782 
 152   0.0000       1.782357        48.5004 
 153   0.0000       1.787014        48.6271 
 154   0.0000       1.799106        48.9562 
 155   0.0000       1.814964        49.3877 
 156   0.0000       1.826719        49.7076 
 157   0.0000       1.844546        50.1926 
 158   0.0000       1.853602        50.4391 
 159   0.0000       1.873051        50.9683 
 160   0.0000       1.878775        51.1241 
 161   0.0000       1.890118        51.4327 
 162   0.0000       1.896692        51.6116 
 163   0.0000       1.905728        51.8575 
 164   0.0000       1.916361        52.1468 
 165   0.0000       1.918346        52.2008 
 166   0.0000       1.929335        52.4999 
 167   0.0000       1.932223        52.5785 
 168   0.0000       1.940877        52.8139 
 169   0.0000       1.952797        53.1383 
 170   0.0000       1.957481        53.2658 
 171   0.0000       1.960338        53.3435 
 172   0.0000       1.970814        53.6286 
 173   0.0000       1.980357        53.8882 
 174   0.0000       1.994798        54.2812 
 175   0.0000       1.996664        54.3320 
 176   0.0000       2.008049        54.6418 
 177   0.0000       2.022726        55.0412 
 178   0.0000       2.029592        55.2280 
 179   0.0000       2.052569        55.8532 
 180   0.0000       2.061083        56.0849 
 181   0.0000       2.072971        56.4084 
 182   0.0000       2.080493        56.6131 
 183   0.0000       2.117129        57.6100 
 184   0.0000       2.140256        58.2393 
 185   0.0000       2.145210        58.3741 
 186   0.0000       2.177619        59.2560 
 187   0.0000       2.233430        60.7747 
 188   0.0000       2.243087        61.0375 
 189   0.0000       2.248362        61.1811 
 190   0.0000       2.284517        62.1649 
 191   0.0000       2.328297        63.3562 
 192   0.0000       2.349007        63.9197 
 193   0.0000       2.357728        64.1570 
 194   0.0000       2.365085        64.3572 
 195   0.0000       2.419173        65.8290 
 196   0.0000       2.450975        66.6944 
 197   0.0000       2.459187        66.9179 
 198   0.0000       2.473524        67.3080 
 199   0.0000       2.494912        67.8900 
 200   0.0000       2.506323        68.2005 
 201   0.0000       2.509979        68.3000 
 202   0.0000       2.541310        69.1526 
 203   0.0000       2.552313        69.4520 
 204   0.0000       2.577846        70.1467 
 205   0.0000       2.578950        70.1768 
 206   0.0000       2.595039        70.6146 
 207   0.0000       2.605760        70.9063 
 208   0.0000       2.652502        72.1782 
 209   0.0000       2.667314        72.5813 
 210   0.0000       2.672215        72.7147 
 211   0.0000       2.685873        73.0863 
 212   0.0000       2.762093        75.1604 
 213   0.0000       2.774357        75.4941 
 214   0.0000       2.794272        76.0360 
 215   0.0000       2.810991        76.4910 
 216   0.0000       2.833421        77.1013 
 217   0.0000       2.845039        77.4175 
 218   0.0000       2.901636        78.9575 
 219   0.0000       2.916649        79.3661 
 220   0.0000       2.929852        79.7253 
 221   0.0000       2.954207        80.3880 
 222   0.0000       2.958260        80.4984 
 223   0.0000       2.971519        80.8592 
 224   0.0000       2.990222        81.3681 
 225   0.0000       3.000471        81.6470 
 226   0.0000       3.011859        81.9569 
 227   0.0000       3.017074        82.0987 
 228   0.0000       3.036619        82.6306 
 229   0.0000       3.072952        83.6193 
 230   0.0000       3.102054        84.4112 
 231   0.0000       3.125014        85.0359 
 232   0.0000       3.135727        85.3275 
 233   0.0000       3.145749        85.6002 
 234   0.0000       3.159657        85.9786 
 235   0.0000       3.268716        88.9463 
 236   0.0000       3.453365        93.9708 
 237   0.0000       3.572575        97.2147 
 238   0.0000       3.589212        97.6674 

                    ********************************
                    * MULLIKEN POPULATION ANALYSIS *
                    ********************************

-----------------------
MULLIKEN ATOMIC CHARGES
-----------------------
   0 N :   -0.190266
   1 C :    0.217091
   2 N :   -0.207934
   3 H :    0.136290
   4 C :    0.063232
   5 C :    0.058904
   6 C :   -0.049233
   7 C :   -0.008200
   8 C :   -0.006651
   9 H :    0.074920
  10 C :   -0.016591
  11 C :   -0.053008
  12 C :   -0.031202
  13 H :    0.083625
  14 H :    0.105401
  15 H :    0.107568
  16 H :    0.055562
  17 H :    0.063138
  18 H :    0.050174
  19 H :    0.051641
  20 H :    0.063774
  21 H :    0.057925
  22 H :    0.069298
  23 H :    0.068117
  24 H :    0.059713
  25 H :    0.063975
  26 H :    0.053278
  27 H :    0.059459
Sum of atomic charges:    1.0000000

--------------------------------
MULLIKEN REDUCED ORBITAL CHARGES
--------------------------------
  0 N s       :     3.390510  s :     3.390510
      pz      :     1.237970  p :     3.767099
      px      :     1.162948
      py      :     1.366182
      dz2     :     0.007127  d :     0.032657
      dxz     :     0.008468
      dyz     :     0.004383
      dx2y2   :     0.005869
      dxy     :     0.006810
  1 C s       :     3.102298  s :     3.102298
      pz      :     0.917175  p :     2.613291
      px      :     0.776353
      py      :     0.919763
      dz2     :     0.010172  d :     0.067320
      dxz     :     0.020638
      dyz     :     0.006958
      dx2y2   :     0.011529
      dxy     :     0.018023
  2 N s       :     3.406052  s :     3.406052
      pz      :     1.233679  p :     3.769683
      px      :     1.173188
      py      :     1.362816
      dz2     :     0.006793  d :     0.032199
      dxz     :     0.008898
      dyz     :     0.003829
      dx2y2   :     0.005730
      dxy     :     0.006949
  3 H s       :     0.839132  s :     0.839132
      pz      :     0.014568  p :     0.024578
      px      :     0.001559
      py      :     0.008452
  4 C s       :     3.148324  s :     3.148324
      pz      :     0.868236  p :     2.741343
      px      :     0.902564
      py      :     0.970544
      dz2     :     0.010306  d :     0.047101
      dxz     :     0.011758
      dyz     :     0.008200
      dx2y2   :     0.006997
      dxy     :     0.009839
  5 C s       :     3.152630  s :     3.152630
      pz      :     0.861528  p :     2.741289
      px      :     0.921267
      py      :     0.958493
      dz2     :     0.011098  d :     0.047177
      dxz     :     0.010377
      dyz     :     0.009195
      dx2y2   :     0.008499
      dxy     :     0.008008
  6 C s       :     3.116336  s :     3.116336
      pz      :     1.050754  p :     2.877151
      px      :     0.800298
      py      :     1.026100
      dz2     :     0.009619  d :     0.055746
      dxz     :     0.009358
      dyz     :     0.010062
      dx2y2   :     0.013236
      dxy     :     0.013471
  7 C s       :     3.085315  s :     3.085315
      pz      :     1.038656  p :     2.867446
      px      :     0.742771
      py      :     1.086020
      dz2     :     0.012442  d :     0.055438
      dxz     :     0.010644
      dyz     :     0.008527
      dx2y2   :     0.016843
      dxy     :     0.006981
  8 C s       :     3.011232  s :     3.011232
      pz      :     0.988933  p :     2.969477
      px      :     1.014328
      py      :     0.966216
      dz2     :     0.006121  d :     0.025941
      dxz     :     0.003673
      dyz     :     0.006229
      dx2y2   :     0.003448
      dxy     :     0.006471
  9 H s       :     0.903969  s :     0.903969
      pz      :     0.013071  p :     0.021110
      px      :     0.002254
      py      :     0.005785
 10 C s       :     3.014542  s :     3.014542
      pz      :     1.021681  p :     2.976144
      px      :     0.992002
      py      :     0.962461
      dz2     :     0.004052  d :     0.025905
      dxz     :     0.003814
      dyz     :     0.007648
      dx2y2   :     0.003466
      dxy     :     0.006925
 11 C s       :     3.023177  s :     3.023177
      pz      :     0.957057  p :     3.003945
      px      :     1.047245
      py      :     0.999643
      dz2     :     0.006678  d :     0.025886
      dxz     :     0.003588
      dyz     :     0.006174
      dx2y2   :     0.006812
      dxy     :     0.002634
 12 C s       :     3.021326  s :     3.021326
      pz      :     0.962984  p :     2.983966
      px      :     1.001839
      py      :     1.019144
      dz2     :     0.005277  d :     0.025911
      dxz     :     0.004457
      dyz     :     0.006910
      dx2y2   :     0.006903
      dxy     :     0.002364
 13 H s       :     0.895472  s :     0.895472
      pz      :     0.003586  p :     0.020903
      px      :     0.002988
      py      :     0.014328
 14 H s       :     0.869921  s :     0.869921
      pz      :     0.009735  p :     0.024678
      px      :     0.007369
      py      :     0.007574
 15 H s       :     0.867890  s :     0.867890
      pz      :     0.008750  p :     0.024543
      px      :     0.010234
      py      :     0.005559
 16 H s       :     0.920860  s :     0.920860
      pz      :     0.004369  p :     0.023579
      px      :     0.008470
      py      :     0.010740
 17 H s       :     0.912839  s :     0.912839
      pz      :     0.005461  p :     0.024022
      px      :     0.012960
      py      :     0.005602
 18 H s       :     0.926026  s :     0.926026
      pz      :     0.013078  p :     0.023800
      px      :     0.004887
      py      :     0.005835
 19 H s       :     0.924488  s :     0.924488
      pz      :     0.012428  p :     0.023871
      px      :     0.004797
      py      :     0.006646
 20 H s       :     0.912194  s :     0.912194
      pz      :     0.006229  p :     0.024032
      px      :     0.012765
      py      :     0.005038
 21 H s       :     0.918532  s :     0.918532
      pz      :     0.009195  p :     0.023543
      px      :     0.005811
      py      :     0.008537
 22 H s       :     0.906575  s :     0.906575
      pz      :     0.004446  p :     0.024126
      px      :     0.015112
      py      :     0.004568
 23 H s       :     0.908111  s :     0.908111
      pz      :     0.011235  p :     0.023772
      px      :     0.006617
      py      :     0.005920
 24 H s       :     0.916484  s :     0.916484
      pz      :     0.003891  p :     0.023803
      px      :     0.005768
      py      :     0.014144
 25 H s       :     0.911971  s :     0.911971
      pz      :     0.004567  p :     0.024054
      px      :     0.014806
      py      :     0.004681
 26 H s       :     0.923211  s :     0.923211
      pz      :     0.004484  p :     0.023510
      px      :     0.005192
      py      :     0.013834
 27 H s       :     0.916548  s :     0.916548
      pz      :     0.011350  p :     0.023993
      px      :     0.004648
      py      :     0.007994


                     *******************************
                     * LOEWDIN POPULATION ANALYSIS *
                     *******************************

----------------------
LOEWDIN ATOMIC CHARGES
----------------------
   0 N :    0.098487
   1 C :    0.123329
   2 N :    0.093574
   3 H :    0.068548
   4 C :    0.019540
   5 C :    0.018280
   6 C :    0.043263
   7 C :    0.047610
   8 C :   -0.054371
   9 H :    0.048790
  10 C :   -0.054805
  11 C :   -0.058269
  12 C :   -0.054544
  13 H :    0.049384
  14 H :    0.060908
  15 H :    0.061124
  16 H :    0.037783
  17 H :    0.045164
  18 H :    0.036022
  19 H :    0.036055
  20 H :    0.045984
  21 H :    0.038453
  22 H :    0.050193
  23 H :    0.040200
  24 H :    0.038851
  25 H :    0.046033
  26 H :    0.037845
  27 H :    0.036570

-------------------------------
LOEWDIN REDUCED ORBITAL CHARGES
-------------------------------
  0 N s       :     3.053323  s :     3.053323
      pz      :     1.253033  p :     3.773553
      px      :     1.194090
      py      :     1.326430
      dz2     :     0.016137  d :     0.074637
      dxz     :     0.020501
      dyz     :     0.009801
      dx2y2   :     0.014213
      dxy     :     0.013985
  1 C s       :     2.838087  s :     2.838087
      pz      :     1.005955  p :     2.881497
      px      :     0.903190
      py      :     0.972352
      dz2     :     0.021588  d :     0.157086
      dxz     :     0.051800
      dyz     :     0.013864
      dx2y2   :     0.028778
      dxy     :     0.041057
  2 N s       :     3.055807  s :     3.055807
      pz      :     1.250267  p :     3.777014
      px      :     1.194868
      py      :     1.331879
      dz2     :     0.015533  d :     0.073606
      dxz     :     0.021910
      dyz     :     0.008706
      dx2y2   :     0.013176
      dxy     :     0.014280
  3 H s       :     0.856653  s :     0.856653
      pz      :     0.041992  p :     0.074799
      px      :     0.007435
      py      :     0.025372
  4 C s       :     2.856316  s :     2.856316
      pz      :     0.961981  p :     3.008699
      px      :     1.039739
      py      :     1.006979
      dz2     :     0.024408  d :     0.115445
      dxz     :     0.030866
      dyz     :     0.018086
      dx2y2   :     0.019091
      dxy     :     0.022994
  5 C s       :     2.855956  s :     2.855956
      pz      :     0.954790  p :     3.010024
      px      :     1.061907
      py      :     0.993327
      dz2     :     0.026686  d :     0.115740
      dxz     :     0.027011
      dyz     :     0.021082
      dx2y2   :     0.022955
      dxy     :     0.018006
  6 C s       :     2.837341  s :     2.837341
      pz      :     1.057256  p :     2.991121
      px      :     0.884206
      py      :     1.049660
      dz2     :     0.022291  d :     0.128275
      dxz     :     0.020855
      dyz     :     0.024072
      dx2y2   :     0.028199
      dxy     :     0.032858
  7 C s       :     2.836542  s :     2.836542
      pz      :     1.058792  p :     2.988616
      px      :     0.840798
      py      :     1.089026
      dz2     :     0.027289  d :     0.127232
      dxz     :     0.024514
      dyz     :     0.020259
      dx2y2   :     0.039240
      dxy     :     0.015930
  8 C s       :     2.838820  s :     2.838820
      pz      :     1.044063  p :     3.146517
      px      :     1.065792
      py      :     1.036662
      dz2     :     0.015472  d :     0.069034
      dxz     :     0.009503
      dyz     :     0.017469
      dx2y2   :     0.008899
      dxy     :     0.017691
  9 H s       :     0.885130  s :     0.885130
      pz      :     0.037345  p :     0.066081
      px      :     0.009297
      py      :     0.019438
 10 C s       :     2.838110  s :     2.838110
      pz      :     1.070492  p :     3.147683
      px      :     1.050199
      py      :     1.026992
      dz2     :     0.010779  d :     0.069012
      dxz     :     0.009772
      dyz     :     0.019880
      dx2y2   :     0.009262
      dxy     :     0.019319
 11 C s       :     2.836390  s :     2.836390
      pz      :     1.021153  p :     3.152939
      px      :     1.080111
      py      :     1.051675
      dz2     :     0.017997  d :     0.068940
      dxz     :     0.009431
      dyz     :     0.016857
      dx2y2   :     0.017857
      dxy     :     0.006798
 12 C s       :     2.838718  s :     2.838718
      pz      :     1.025165  p :     3.146786
      px      :     1.056948
      py      :     1.064672
      dz2     :     0.014451  d :     0.069040
      dxz     :     0.012485
      dyz     :     0.017988
      dx2y2   :     0.018085
      dxy     :     0.006029
 13 H s       :     0.884401  s :     0.884401
      pz      :     0.014239  p :     0.066215
      px      :     0.011255
      py      :     0.040721
 14 H s       :     0.866365  s :     0.866365
      pz      :     0.028478  p :     0.072727
      px      :     0.021463
      py      :     0.022786
 15 H s       :     0.866168  s :     0.866168
      pz      :     0.026179  p :     0.072708
      px      :     0.028780
      py      :     0.017749
 16 H s       :     0.896466  s :     0.896466
      pz      :     0.012449  p :     0.065751
      px      :     0.022893
      py      :     0.030409
 17 H s       :     0.889065  s :     0.889065
      pz      :     0.015168  p :     0.065771
      px      :     0.035078
      py      :     0.015524
 18 H s       :     0.898051  s :     0.898051
      pz      :     0.035983  p :     0.065927
      px      :     0.013309
      py      :     0.016635
 19 H s       :     0.897904  s :     0.897904
      pz      :     0.033295  p :     0.066041
      px      :     0.013755
      py      :     0.018991
 20 H s       :     0.888191  s :     0.888191
      pz      :     0.016199  p :     0.065825
      px      :     0.035029
      py      :     0.014597
 21 H s       :     0.895746  s :     0.895746
      pz      :     0.024893  p :     0.065801
      px      :     0.016431
      py      :     0.024476
 22 H s       :     0.883703  s :     0.883703
      pz      :     0.012932  p :     0.066104
      px      :     0.040801
      py      :     0.012370
 23 H s       :     0.893380  s :     0.893380
      pz      :     0.031853  p :     0.066419
      px      :     0.017928
      py      :     0.016639
 24 H s       :     0.894731  s :     0.894731
      pz      :     0.012107  p :     0.066418
      px      :     0.015554
      py      :     0.038757
 25 H s       :     0.888144  s :     0.888144
      pz      :     0.013203  p :     0.065824
      px      :     0.040255
      py      :     0.012365
 26 H s       :     0.896279  s :     0.896279
      pz      :     0.013496  p :     0.065875
      px      :     0.014564
      py      :     0.037815
 27 H s       :     0.897041  s :     0.897041
      pz      :     0.031818  p :     0.066390
      px      :     0.012872
      py      :     0.021700


                      *****************************
                      * MAYER POPULATION ANALYSIS *
                      *****************************

  NA   - Mulliken gross atomic population
  ZA   - Total nuclear charge
  QA   - Mulliken gross atomic charge
  VA   - Mayer's total valence
  BVA  - Mayer's bonded valence
  FA   - Mayer's free valence

  ATOM       NA         ZA         QA         VA         BVA        FA
  0 N      7.1903     7.0000    -0.1903     3.4125     3.4125     0.0000
  1 C      5.7829     6.0000     0.2171     3.8665     3.8665     0.0000
  2 N      7.2079     7.0000    -0.2079     3.4199     3.4199     0.0000
  3 H      0.8637     1.0000     0.1363     0.9981     0.9981     0.0000
  4 C      5.9368     6.0000     0.0632     3.8543     3.8543     0.0000
  5 C      5.9411     6.0000     0.0589     3.8563     3.8563    -0.0000
  6 C      6.0492     6.0000    -0.0492     4.0704     4.0704    -0.0000
  7 C      6.0082     6.0000    -0.0082     4.0360     4.0360     0.0000
  8 C      6.0067     6.0000    -0.0067     3.9415     3.9415     0.0000
  9 H      0.9251     1.0000     0.0749     0.9763     0.9763     0.0000
 10 C      6.0166     6.0000    -0.0166     3.9466     3.9466    -0.0000
 11 C      6.0530     6.0000    -0.0530     3.9980     3.9980     0.0000
 12 C      6.0312     6.0000    -0.0312     3.9535     3.9535     0.0000
 13 H      0.9164     1.0000     0.0836     0.9719     0.9719     0.0000
 14 H      0.8946     1.0000     0.1054     0.9948     0.9948    -0.0000
 15 H      0.8924     1.0000     0.1076     0.9940     0.9940    -0.0000
 16 H      0.9444     1.0000     0.0556     0.9920     0.9920     0.0000
 17 H      0.9369     1.0000     0.0631     0.9946     0.9946     0.0000
 18 H      0.9498     1.0000     0.0502     0.9993     0.9993     0.0000
 19 H      0.9484     1.0000     0.0516     0.9988     0.9988    -0.0000
 20 H      0.9362     1.0000     0.0638     0.9946     0.9946     0.0000
 21 H      0.9421     1.0000     0.0579     0.9907     0.9907     0.0000
 22 H      0.9307     1.0000     0.0693     0.9943     0.9943     0.0000
[...]
     31      -0.042641  -0.030026  -0.000756  -0.000218  -0.000059  -0.000192
     32       0.008868   0.000977  -0.000021  -0.000434  -0.000057  -0.000404
     33       0.000159   0.002132  -0.089909   0.000040   0.000301  -0.000259
     34       0.000026   0.000223  -0.007919  -0.000042  -0.000761   0.000236
     35      -0.000036  -0.000402   0.016288  -0.000012  -0.000070   0.000030
     36      -0.000089   0.000258  -0.018079   0.000021   0.000072  -0.000080
     37       0.000001  -0.000098   0.003748   0.000090  -0.000032  -0.000067
     38      -0.000061   0.000084  -0.007756   0.000109  -0.000053  -0.000076
     39       0.000009  -0.000123   0.013556   0.001831   0.001198  -0.001263
     40      -0.000021   0.000408  -0.033573  -0.002396   0.000214  -0.000007
     41      -0.000006   0.000066  -0.003413   0.000251   0.000008  -0.000509
     42       0.000065   0.000247  -0.000071   0.404077  -0.106585  -0.378415
     43      -0.000026  -0.000174  -0.000033  -0.407668   0.106167   0.376029
     44      -0.000072  -0.000162  -0.000140  -0.430094   0.111807   0.395772
     45      -0.000096  -0.001229  -0.000949   0.501605   0.144101   0.504000
     46      -0.000148  -0.000601  -0.000558   0.257108   0.072779   0.253540
     47       0.000094  -0.000944  -0.000738   0.399747   0.113456   0.395797
     48       0.208073  -0.276444  -0.005844   0.001396   0.000215   0.001152
     49       0.270154  -0.358249  -0.007582   0.001795   0.000218   0.001464
     50      -0.111423   0.147422   0.003107  -0.000796  -0.000123  -0.000658
     51       0.363864  -0.573150  -0.012998  -0.001194  -0.000527  -0.001323
     52      -0.165440   0.260315   0.005906   0.000625   0.000357   0.000628
     53      -0.139514   0.218341   0.004894   0.000793   0.000030   0.000811
     54      -0.010230   0.029854   0.000735   0.001485   0.000560   0.001134
     55      -0.016660   0.067570   0.001706   0.004941   0.001316   0.004296
     56      -0.017683   0.081440   0.002072   0.006077   0.001975   0.004995
     57       0.019833   0.021587   0.000595   0.001233   0.000522   0.000945
     58       0.036069   0.049931   0.001407   0.003349   0.001226   0.002675
     59       0.047431   0.060564   0.001692   0.003775   0.001068   0.003222
     60      -0.553708  -0.389453  -0.010061  -0.000691  -0.000462  -0.000923
     61       0.228955   0.160154   0.004085   0.000569   0.000017   0.000634
     62       0.229622   0.161262   0.004157   0.000420   0.000261   0.000445
     63      -0.240540  -0.145705  -0.003502   0.000829   0.000010   0.000729
     64       0.246571   0.148795   0.003569  -0.000928  -0.000077  -0.000773
     65      -0.384830  -0.232344  -0.005598   0.001369   0.000011   0.001154
     66      -0.001346  -0.018726   0.797911   0.000850  -0.004067   0.001754
     67       0.000088   0.001107  -0.046619   0.000106   0.000109  -0.000175
     68      -0.000267  -0.003661   0.157043   0.000502  -0.000223  -0.000098
     69      -0.000449  -0.005814   0.239278   0.000041   0.000213   0.000149
     70      -0.000548  -0.007013   0.289238   0.000084  -0.000261   0.000332
     71       0.000642   0.008258  -0.340266  -0.000206   0.000009  -0.000234
     72      -0.000037  -0.000723   0.034155  -0.000100  -0.005574   0.001699
     73       0.000180   0.003235  -0.149539   0.000032   0.010307  -0.003186
     74       0.000017   0.000327  -0.015264  -0.000169   0.000626  -0.000042
     75       0.000920  -0.002351   0.180722   0.000088   0.000103   0.000480
     76       0.000034  -0.000033   0.003780   0.000010   0.000134  -0.000028
     77       0.000144  -0.000414   0.030045  -0.000277  -0.000059   0.000255
     78       0.000043  -0.000500   0.026602   0.000211  -0.000099  -0.000111
     79      -0.000142   0.001415  -0.075920  -0.000856   0.000307   0.000381
     80      -0.000015   0.000077  -0.004589  -0.000031  -0.000037   0.000068
     81       0.000083  -0.000097   0.010533   0.000152  -0.000030  -0.000133
     82       0.000236  -0.000241   0.026742  -0.000173   0.000135   0.000097
     83       0.000569  -0.000573   0.066563  -0.001417   0.000768   0.000874


-----------
IR SPECTRUM
-----------

 Mode   freq       eps      Int      T**2         TX        TY        TZ
       cm**-1   L/(mol*cm) km/mol    a.u.
----------------------------------------------------------------------------
  6:     11.42   0.000060    0.31  0.001651  (-0.000306 -0.017631  0.036602)
  7:     45.34   0.000004    0.02  0.000025  ( 0.001992 -0.003334  0.003136)
  8:    116.42   0.000042    0.21  0.000111  (-0.004248 -0.008630  0.004326)
  9:    148.61   0.000054    0.27  0.000113  (-0.007662  0.004733  0.005654)
 10:    163.53   0.000012    0.06  0.000022  (-0.004221 -0.000156  0.002040)
 11:    240.79   0.000005    0.03  0.000006  ( 0.000028 -0.002525  0.000216)
 12:    248.65   0.000001    0.00  0.000001  (-0.000745 -0.000501  0.000106)
 13:    262.52   0.000012    0.06  0.000015  (-0.000685 -0.002430 -0.002881)
 14:    283.96   0.000021    0.11  0.000023  ( 0.001883 -0.000356 -0.004444)
 15:    299.07   0.000016    0.08  0.000017  (-0.001116  0.003924  0.000378)
 16:    323.22   0.000032    0.16  0.000031  (-0.000003 -0.004990  0.002456)
 17:    354.93   0.000051    0.26  0.000045  (-0.005363  0.003480  0.002027)
 18:    405.81   0.000104    0.52  0.000080  (-0.000564  0.006587 -0.006003)
 19:    442.56   0.000012    0.06  0.000009  ( 0.001767  0.002026  0.001196)
 20:    485.38   0.000088    0.44  0.000056  ( 0.006745 -0.003185  0.000878)
 21:    500.13   0.000244    1.23  0.000152  (-0.000868 -0.008731 -0.008679)
 22:    628.21   0.000192    0.97  0.000095  (-0.001768  0.008408 -0.004643)
 23:    674.23   0.012536   63.35  0.005802  ( 0.009439  0.057031 -0.049607)
 24:    680.55   0.001402    7.09  0.000643  (-0.014198  0.013618 -0.015999)
 25:    687.22   0.000540    2.73  0.000245  (-0.009136 -0.012105  0.003889)
 26:    773.25   0.009192   46.45  0.003710  (-0.007460 -0.046625  0.038473)
 27:    889.80   0.005614   28.37  0.001969  ( 0.008050  0.035516 -0.025353)
 28:    914.71   0.000665    3.36  0.000227  ( 0.009193 -0.010974 -0.004676)
 29:    915.71   0.000237    1.20  0.000081  (-0.001252  0.001414  0.008781)
 30:    920.23   0.000020    0.10  0.000007  (-0.000351 -0.002473 -0.000817)
 31:    939.47   0.000898    4.54  0.000298  ( 0.002240  0.005215 -0.016314)
 32:    942.55   0.000578    2.92  0.000191  ( 0.000715  0.011086 -0.008251)
 33:    966.60   0.000212    1.07  0.000068  ( 0.001007  0.001437  0.008087)
 34:    967.39   0.000252    1.27  0.000081  (-0.000457 -0.005640  0.007022)
 35:   1029.99   0.003245   16.40  0.000983  (-0.030823  0.005667  0.000984)
 36:   1043.94   0.000385    1.95  0.000115  ( 0.008609  0.003857  0.005112)
 37:   1098.96   0.001155    5.84  0.000328  (-0.000361 -0.011022 -0.014364)
 38:   1113.64   0.003847   19.44  0.001078  (-0.000860  0.019634  0.026299)
 39:   1133.32   0.000477    2.41  0.000131  (-0.010312 -0.004375  0.002437)
 40:   1167.09   0.011730   59.28  0.003137  ( 0.052898 -0.011628 -0.014251)
 41:   1172.20   0.002130   10.76  0.000567  (-0.023801  0.000424  0.000526)
 42:   1173.71   0.007393   37.36  0.001966  (-0.028818  0.028221 -0.018405)
 43:   1195.04   0.001263    6.38  0.000330  (-0.017819 -0.003408 -0.000783)
 44:   1218.21   0.036284  183.37  0.009295  ( 0.096201 -0.006321  0.000444)
 45:   1272.34   0.000098    0.50  0.000024  (-0.001650  0.004489  0.001115)
 46:   1340.90   0.011562   58.43  0.002691  (-0.049681  0.010657  0.010444)
 47:   1348.26   0.000136    0.69  0.000031  (-0.003315 -0.000415  0.004507)
 48:   1352.86   0.002779   14.05  0.000641  (-0.025136 -0.000331  0.003027)
 49:   1371.40   0.000493    2.49  0.000112  (-0.003572 -0.009498 -0.003020)
 50:   1390.58   0.003231   16.33  0.000725  (-0.021666 -0.015352 -0.004460)
 51:   1403.73   0.001096    5.54  0.000244  (-0.012025  0.008122 -0.005750)
 52:   1404.86   0.006577   33.24  0.001461  (-0.009033 -0.025509  0.026992)
 53:   1408.73   0.001355    6.85  0.000300  ( 0.004527 -0.002480 -0.016538)
 54:   1412.27   0.009738   49.21  0.002152  ( 0.031462  0.018691  0.028505)
 55:   1444.73   0.000137    0.69  0.000030  ( 0.001917  0.002877  0.004208)
 56:   1447.31   0.000035    0.18  0.000008  (-0.000501 -0.000491  0.002649)
 57:   1454.97   0.000611    3.09  0.000131  ( 0.010528  0.000305 -0.004492)
 58:   1456.19   0.001803    9.11  0.000386  ( 0.002196 -0.018162 -0.007190)
 59:   1460.52   0.003547   17.92  0.000758  ( 0.009442  0.018720  0.017840)
 60:   1464.64   0.002965   14.99  0.000632  ( 0.008171 -0.022408  0.007931)
 61:   1467.57   0.002450   12.38  0.000521  ( 0.007617 -0.014828 -0.015591)
 62:   1474.22   0.000316    1.60  0.000067  ( 0.006757  0.002329  0.003984)
 63:   1487.82   0.000207    1.05  0.000043  ( 0.004843  0.003460  0.002835)
 64:   1510.12   0.001460    7.38  0.000302  (-0.016817 -0.000399 -0.004335)
 65:   1648.25   0.029909  151.15  0.005663  (-0.074868  0.000673 -0.007551)
 66:   1653.76   0.008296   41.93  0.001566  ( 0.034488 -0.012376 -0.014930)
 67:   3070.57   0.002598   13.13  0.000264  (-0.006392 -0.007580  0.012874)
 68:   3071.75   0.002727   13.78  0.000277  (-0.004281 -0.013673  0.008471)
 69:   3073.95   0.001709    8.64  0.000173  ( 0.008492 -0.000288  0.010064)
 70:   3074.28   0.001416    7.16  0.000144  (-0.000070  0.007304  0.009508)
 71:   3127.26   0.001102    5.57  0.000110  (-0.005484  0.008940  0.000010)
 72:   3134.31   0.000720    3.64  0.000072  (-0.000733 -0.005394 -0.006485)
 73:   3175.41   0.001223    6.18  0.000120  (-0.000034 -0.003088  0.010521)
 74:   3175.69   0.000915    4.62  0.000090  (-0.000788 -0.004204  0.008460)
 75:   3177.92   0.004706   23.78  0.000462  ( 0.004728 -0.020442 -0.004683)
 76:   3178.72   0.004832   24.42  0.000474  (-0.003853 -0.015383 -0.014929)
 77:   3186.22   0.001980   10.00  0.000194  ( 0.010296 -0.002051  0.009147)
 78:   3188.33   0.001332    6.73  0.000130  ( 0.002588 -0.009193  0.006259)
 79:   3190.13   0.003144   15.89  0.000308  ( 0.016177 -0.003834 -0.005584)
 80:   3190.77   0.002165   10.94  0.000212  (-0.014445 -0.000396  0.001725)
 81:   3299.88   0.005092   25.73  0.000482  ( 0.021767 -0.002741  0.000407)
 82:   3310.85   0.013495   68.20  0.001272  ( 0.004602  0.021743  0.027893)
 83:   3318.04   0.001286    6.50  0.000121  ( 0.002169  0.006756  0.008403)

* The epsilon (eps) is given for a Dirac delta lineshape.
** The dipole moment derivative (T) already includes vibrational overlap.

The first frequency considered to be a vibration is 6
The total number of vibrations considered is 78


--------------------------
THERMOCHEMISTRY AT 298.15K
--------------------------

Temperature         ... 298.15 K
Pressure            ... 1.00 atm
Total Mass          ... 153.25 AMU

Throughout the following assumptions are being made:
  (1) The electronic state is orbitally nondegenerate
  (2) There are no thermally accessible electronically excited states
  (3) Hindered rotations indicated by low frequency modes are not
      treated as such but are treated as vibrations and this may
      cause some error
  (4) All equations used are the standard statistical mechanics
      equations for an ideal gas
  (5) All vibrations are strictly harmonic

freq.      11.42  E(vib)   ...       0.58 
freq.      45.34  E(vib)   ...       0.53 
freq.     116.42  E(vib)   ...       0.44 
freq.     148.61  E(vib)   ...       0.41 
freq.     163.53  E(vib)   ...       0.39 
freq.     240.79  E(vib)   ...       0.31 
freq.     248.65  E(vib)   ...       0.31 
freq.     262.52  E(vib)   ...       0.29 
freq.     283.96  E(vib)   ...       0.28 
freq.     299.07  E(vib)   ...       0.26 
freq.     323.22  E(vib)   ...       0.25 
freq.     354.93  E(vib)   ...       0.22 
freq.     405.81  E(vib)   ...       0.19 
freq.     442.56  E(vib)   ...       0.17 
freq.     485.38  E(vib)   ...       0.15 
freq.     500.13  E(vib)   ...       0.14 
freq.     628.21  E(vib)   ...       0.09 
freq.     674.23  E(vib)   ...       0.08 
freq.     680.55  E(vib)   ...       0.08 
freq.     687.22  E(vib)   ...       0.07 
freq.     773.25  E(vib)   ...       0.05 
freq.     889.80  E(vib)   ...       0.04 
freq.     914.71  E(vib)   ...       0.03 
freq.     915.71  E(vib)   ...       0.03 
freq.     920.23  E(vib)   ...       0.03 
freq.     939.47  E(vib)   ...       0.03 
freq.     942.55  E(vib)   ...       0.03 
freq.     966.60  E(vib)   ...       0.03 
freq.     967.39  E(vib)   ...       0.03 
freq.    1029.99  E(vib)   ...       0.02 
freq.    1043.94  E(vib)   ...       0.02 
freq.    1098.96  E(vib)   ...       0.02 
freq.    1113.64  E(vib)   ...       0.01 
freq.    1133.32  E(vib)   ...       0.01 
freq.    1167.09  E(vib)   ...       0.01 
freq.    1172.20  E(vib)   ...       0.01 
freq.    1173.71  E(vib)   ...       0.01 
freq.    1195.04  E(vib)   ...       0.01 
freq.    1218.21  E(vib)   ...       0.01 
freq.    1272.34  E(vib)   ...       0.01 
freq.    1340.90  E(vib)   ...       0.01 
freq.    1348.26  E(vib)   ...       0.01 
freq.    1352.86  E(vib)   ...       0.01 
freq.    1371.40  E(vib)   ...       0.01 
freq.    1390.58  E(vib)   ...       0.00 
freq.    1403.73  E(vib)   ...       0.00 
freq.    1404.86  E(vib)   ...       0.00 
freq.    1408.73  E(vib)   ...       0.00 
freq.    1412.27  E(vib)   ...       0.00 
freq.    1444.73  E(vib)   ...       0.00 
freq.    1447.31  E(vib)   ...       0.00 
freq.    1454.97  E(vib)   ...       0.00 
freq.    1456.19  E(vib)   ...       0.00 
freq.    1460.52  E(vib)   ...       0.00 
freq.    1464.64  E(vib)   ...       0.00 
freq.    1467.57  E(vib)   ...       0.00 
freq.    1474.22  E(vib)   ...       0.00 
freq.    1487.82  E(vib)   ...       0.00 
freq.    1510.12  E(vib)   ...       0.00 
freq.    1648.25  E(vib)   ...       0.00 
freq.    1653.76  E(vib)   ...       0.00 
freq.    3070.57  E(vib)   ...       0.00 
freq.    3071.75  E(vib)   ...       0.00 
freq.    3073.95  E(vib)   ...       0.00 
freq.    3074.28  E(vib)   ...       0.00 
freq.    3127.26  E(vib)   ...       0.00 
freq.    3134.31  E(vib)   ...       0.00 
freq.    3175.41  E(vib)   ...       0.00 
freq.    3175.69  E(vib)   ...       0.00 
freq.    3177.92  E(vib)   ...       0.00 
freq.    3178.72  E(vib)   ...       0.00 
freq.    3186.22  E(vib)   ...       0.00 
freq.    3188.33  E(vib)   ...       0.00 
freq.    3190.13  E(vib)   ...       0.00 
freq.    3190.77  E(vib)   ...       0.00 
freq.    3299.88  E(vib)   ...       0.00 
freq.    3310.85  E(vib)   ...       0.00 
freq.    3318.04  E(vib)   ...       0.00 

------------
INNER ENERGY
------------

The inner energy is: U= E(el) + E(ZPE) + E(vib) + E(rot) + E(trans)
    E(el)   - is the total energy from the electronic structure calculation
              = E(kin-el) + E(nuc-el) + E(el-el) + E(nuc-nuc)
    E(ZPE)  - the the zero temperature vibrational energy from the frequency calculation
    E(vib)  - the the finite temperature correction to E(ZPE) due to population
              of excited vibrational states
    E(rot)  - is the rotational thermal energy
    E(trans)- is the translational thermal energy

Summary of contributions to the inner energy U:
Electronic energy                ...   -462.13607076 Eh
Zero point energy                ...      0.25560698 Eh     160.40 kcal/mol
Thermal vibrational correction   ...      0.00918124 Eh       5.76 kcal/mol
Thermal rotational correction    ...      0.00141627 Eh       0.89 kcal/mol
Thermal translational correction ...      0.00141627 Eh       0.89 kcal/mol
-----------------------------------------------------------------------
Total thermal energy                   -461.86845000 Eh


Summary of corrections to the electronic energy:
(perhaps to be used in another calculation)
Total thermal correction                  0.01201378 Eh       7.54 kcal/mol
Non-thermal (ZPE) correction              0.25560698 Eh     160.40 kcal/mol
-----------------------------------------------------------------------
Total correction                          0.26762076 Eh     167.93 kcal/mol


--------
ENTHALPY
--------

The enthalpy is H = U + kB*T
                kB is Boltzmann's constant
Total free energy                 ...   -461.86845000 Eh 
Thermal Enthalpy correction       ...      0.00094421 Eh       0.59 kcal/mol
-----------------------------------------------------------------------
Total Enthalpy                    ...   -461.86750579 Eh


Note: Only C1 symmetry has been detected, increase convergence thresholds 
      if your molecule has a higher symmetry. Symmetry factor of 1.0 is   
      used for the rotational entropy correction. 
 

Note: Rotational entropy computed according to Herzberg 
Infrared and Raman Spectra, Chapter V,1, Van Nostrand Reinhold, 1945 
Point Group:  C1, Symmetry Number:   1  
Rotational constants in cm-1:     0.080455     0.019312     0.018325 

Vibrational entropy computed according to the QRRHO of S. Grimme
Chem.Eur.J. 2012 18 9955


-------
ENTROPY
-------

The entropy contributions are T*S = T*(S(el)+S(vib)+S(rot)+S(trans))
     S(el)   - electronic entropy
     S(vib)  - vibrational entropy
     S(rot)  - rotational entropy
     S(trans)- translational entropy
The entropies will be listed as multiplied by the temperature to get
units of energy

Electronic entropy                ...      0.00000000 Eh      0.00 kcal/mol
Vibrational entropy               ...      0.01619150 Eh     10.16 kcal/mol
Rotational entropy                ...      0.01445198 Eh      9.07 kcal/mol
Translational entropy             ...      0.01947584 Eh     12.22 kcal/mol
-----------------------------------------------------------------------
Final entropy term                ...      0.05011932 Eh     31.45 kcal/mol

In case the symmetry of your molecule has not been determined correctly
or in case you have a reason to use a different symmetry number we print 
out the resulting rotational entropy values for sn=1,12 :
 --------------------------------------------------------
|  sn= 1 | S(rot)=       0.01445198 Eh      9.07 kcal/mol|
|  sn= 2 | S(rot)=       0.01379752 Eh      8.66 kcal/mol|
|  sn= 3 | S(rot)=       0.01341469 Eh      8.42 kcal/mol|
|  sn= 4 | S(rot)=       0.01314307 Eh      8.25 kcal/mol|
|  sn= 5 | S(rot)=       0.01293238 Eh      8.12 kcal/mol|
|  sn= 6 | S(rot)=       0.01276024 Eh      8.01 kcal/mol|
|  sn= 7 | S(rot)=       0.01261469 Eh      7.92 kcal/mol|
|  sn= 8 | S(rot)=       0.01248861 Eh      7.84 kcal/mol|
|  sn= 9 | S(rot)=       0.01237740 Eh      7.77 kcal/mol|
|  sn=10 | S(rot)=       0.01227792 Eh      7.70 kcal/mol|
|  sn=11 | S(rot)=       0.01218793 Eh      7.65 kcal/mol|
|  sn=12 | S(rot)=       0.01210578 Eh      7.60 kcal/mol|
 --------------------------------------------------------


-------------------
GIBBS FREE ENERGY
-------------------

The Gibbs free energy is G = H - T*S

Total enthalpy                    ...   -461.86750579 Eh 
Total entropy correction          ...     -0.05011932 Eh    -31.45 kcal/mol
-----------------------------------------------------------------------
Final Gibbs free energy         ...   -461.91762511 Eh

For completeness - the Gibbs free energy minus the electronic energy
G-E(el)                           ...      0.21844565 Eh    137.08 kcal/mol


Timings for individual modules:

Sum of individual times         ...     5826.445 sec (=  97.107 min)
GTO integral calculation        ...        4.088 sec (=   0.068 min)   0.1 %
SCF iterations                  ...     3236.790 sec (=  53.946 min)  55.6 %
SCF Gradient evaluation         ...      894.357 sec (=  14.906 min)  15.3 %
Geometry relaxation             ...        0.822 sec (=   0.014 min)   0.0 %
Analytical frequency calculation...     1690.388 sec (=  28.173 min)  29.0 %
                             ****ORCA TERMINATED NORMALLY****
TOTAL RUN TIME: 0 days 1 hours 37 minutes 8 seconds 465 msec
