
                                 *****************
                                 * O   R   C   A *
                                 *****************

                                            #,                                       
                                            ###                                      
                                            ####                                     
                                            #####                                    
                                            ######                                   
                                           ########,                                 
                                     ,,################,,,,,                         
                               ,,#################################,,                 
                          ,,##########################################,,             
                       ,#########################################, ''#####,          
                    ,#############################################,,   '####,        
                  ,##################################################,,,,####,       
                ,###########''''           ''''###############################       
              ,#####''   ,,,,##########,,,,          '''####'''          '####       
            ,##' ,,,,###########################,,,                        '##       
           ' ,,###''''                  '''############,,,                           
         ,,##''                                '''############,,,,        ,,,,,,###''
      ,#''                                            '''#######################'''  
     '                                                          ''''####''''         
             ,#######,   #######,   ,#######,      ##                                
            ,#'     '#,  ##    ##  ,#'     '#,    #''#        ######   ,####,        
            ##       ##  ##   ,#'  ##            #'  '#       #        #'  '#        
            ##       ##  #######   ##           ,######,      #####,   #    #        
            '#,     ,#'  ##    ##  '#,     ,#' ,#      #,         ##   #,  ,#        
             '#######'   ##     ##  '#######'  #'      '#     #####' # '####'        



                  #######################################################
                  #                        -***-                        #
                  #          Department of theory and spectroscopy      #
                  #    Directorship and core code : Frank Neese         #
                  #        Max Planck Institute fuer Kohlenforschung    #
                  #                Kaiser Wilhelm Platz 1               #
                  #                 D-45470 Muelheim/Ruhr               #
                  #                      Germany                        #
                  #                                                     #
                  #                  All rights reserved                #
                  #                        -***-                        #
                  #######################################################


                         Program Version 5.0.4 -  RELEASE  -


 With contributions from (in alphabetic order):
   Daniel Aravena         : Magnetic Suceptibility
   Michael Atanasov       : Ab Initio Ligand Field Theory (pilot matlab implementation)
   Alexander A. Auer      : GIAO ZORA, VPT2 properties, NMR spectrum
   Ute Becker             : Parallelization
   Giovanni Bistoni       : ED, misc. LED, open-shell LED, HFLD
   Martin Brehm           : Molecular dynamics
   Dmytro Bykov           : SCF Hessian
   Vijay G. Chilkuri      : MRCI spin determinant printing, contributions to CSF-ICE
   Dipayan Datta          : RHF DLPNO-CCSD density
   Achintya Kumar Dutta   : EOM-CC, STEOM-CC
   Dmitry Ganyushin       : Spin-Orbit,Spin-Spin,Magnetic field MRCI
   Miquel Garcia          : C-PCM and meta-GGA Hessian, CC/C-PCM, Gaussian charge scheme
   Yang Guo               : DLPNO-NEVPT2, F12-NEVPT2, CIM, IAO-localization
   Andreas Hansen         : Spin unrestricted coupled pair/coupled cluster methods
   Benjamin Helmich-Paris : MC-RPA, TRAH-SCF, COSX integrals
   Lee Huntington         : MR-EOM, pCC
   Robert Izsak           : Overlap fitted RIJCOSX, COSX-SCS-MP3, EOM
   Marcus Kettner         : VPT2
   Christian Kollmar      : KDIIS, OOCD, Brueckner-CCSD(T), CCSD density, CASPT2, CASPT2-K
   Simone Kossmann        : Meta GGA functionals, TD-DFT gradient, OOMP2, MP2 Hessian
   Martin Krupicka        : Initial AUTO-CI
   Lucas Lang             : DCDCAS
   Marvin Lechner         : AUTO-CI (C++ implementation), FIC-MRCC
   Dagmar Lenk            : GEPOL surface, SMD
   Dimitrios Liakos       : Extrapolation schemes; Compound Job, initial MDCI parallelization
   Dimitrios Manganas     : Further ROCIS development; embedding schemes
   Dimitrios Pantazis     : SARC Basis sets
   Anastasios Papadopoulos: AUTO-CI, single reference methods and gradients
   Taras Petrenko         : DFT Hessian,TD-DFT gradient, ASA, ECA, R-Raman, ABS, FL, XAS/XES, NRVS
   Peter Pinski           : DLPNO-MP2, DLPNO-MP2 Gradient
   Christoph Reimann      : Effective Core Potentials
   Marius Retegan         : Local ZFS, SOC
   Christoph Riplinger    : Optimizer, TS searches, QM/MM, DLPNO-CCSD(T), (RO)-DLPNO pert. Triples
   Tobias Risthaus        : Range-separated hybrids, TD-DFT gradient, RPA, STAB
   Michael Roemelt        : Original ROCIS implementation
   Masaaki Saitow         : Open-shell DLPNO-CCSD energy and density
   Barbara Sandhoefer     : DKH picture change effects
   Avijit Sen             : IP-ROCIS
   Kantharuban Sivalingam : CASSCF convergence, NEVPT2, FIC-MRCI
   Bernardo de Souza      : ESD, SOC TD-DFT
   Georgi Stoychev        : AutoAux, RI-MP2 NMR, DLPNO-MP2 response
   Willem Van den Heuvel  : Paramagnetic NMR
   Boris Wezisla          : Elementary symmetry handling
   Frank Wennmohs         : Technical directorship


 We gratefully acknowledge several colleagues who have allowed us to
 interface, adapt or use parts of their codes:
   Stefan Grimme, W. Hujo, H. Kruse, P. Pracht,  : VdW corrections, initial TS optimization,
                  C. Bannwarth, S. Ehlert          DFT functionals, gCP, sTDA/sTD-DF
   Ed Valeev, F. Pavosevic, A. Kumar             : LibInt (2-el integral package), F12 methods
   Garnet Chan, S. Sharma, J. Yang, R. Olivares  : DMRG
   Ulf Ekstrom                                   : XCFun DFT Library
   Mihaly Kallay                                 : mrcc  (arbitrary order and MRCC methods)
   Jiri Pittner, Ondrej Demel                    : Mk-CCSD
   Frank Weinhold                                : gennbo (NPA and NBO analysis)
   Christopher J. Cramer and Donald G. Truhlar   : smd solvation model
   Lars Goerigk                                  : TD-DFT with DH, B97 family of functionals
   V. Asgeirsson, H. Jonsson                     : NEB implementation
   FAccTs GmbH                                   : IRC, NEB, NEB-TS, DLPNO-Multilevel, CI-OPT
                                                   MM, QMMM, 2- and 3-layer-ONIOM, Crystal-QMMM,
                                                   LR-CPCM, SF, NACMEs, symmetry and pop. for TD-DFT,
                                                   nearIR, NL-DFT gradient (VV10), updates on ESD,
                                                   ML-optimized integration grids
   S Lehtola, MJT Oliveira, MAL Marques          : LibXC Library
   Liviu Ungur et al                             : ANISO software


 Your calculation uses the libint2 library for the computation of 2-el integrals
 For citations please refer to: http://libint.valeyev.net

 Your ORCA version has been built with support for libXC version: 5.1.0
 For citations please refer to: https://tddft.org/programs/libxc/

 This ORCA versions uses:
   CBLAS   interface :  Fast vector & matrix operations
   LAPACKE interface :  Fast linear algebra routines
   SCALAPACK package :  Parallel linear algebra routines
   Shared memory     :  Shared parallel matrices
   BLAS/LAPACK       :  OpenBLAS 0.3.15  USE64BITINT DYNAMIC_ARCH NO_AFFINITY SkylakeX SINGLE_THREADED
        Core in use  :  SkylakeX
   Copyright (c) 2011-2014, The OpenBLAS Project




***************************************
The coordinates will be read from file: 4_prot_aq_2.xyz
***************************************


Your calculation utilizes the atom-pairwise dispersion correction
based on tight binding partial charges (D4)
Cite in your paper:
E.Caldeweyher, C.Bannwarth, S.Grimme, J.Chem.Phys., (2017), 147, 034112.
E.Caldeweyher, S.Ehlert, A.Hansen, H.Neugebauer, S.Grimme, J.Chem.Phys., (2018), in progress.
   

XCFun DFT library Copyright 2009-2010 Ulf Ekstrom and contributors.
See http://admol.org/xcfun for more information.
This is free software; see the source code for copying conditions.
There is ABSOLUTELY NO WARRANTY; not even for MERCHANTABILITY or FITNESS FOR A PARTICULAR PURPOSE.
For details see the documentation.
Scientific users of this library should cite U. Ekstrom, L. Visscher, R. Bast, A. J. Thorvaldsen and K. Ruud;
J.Chem.Theor.Comp. 2010, DOI: 10.1021/ct100117s
XCFun Version 0.99 

================================================================================

----- Orbital basis set information -----
Your calculation utilizes the basis: def2-SVP
   F. Weigend and R. Ahlrichs, Phys. Chem. Chem. Phys. 7, 3297 (2005).

----- AuxJ basis set information -----
Your calculation utilizes the auxiliary basis: def2/J
   F. Weigend, Phys. Chem. Chem. Phys. 8, 1057 (2006).

================================================================================
                                        WARNINGS
                       Please study these warnings very carefully!
================================================================================


WARNING: Geometry Optimization
  ===> : Switching off AutoStart
         For restart on a previous wavefunction, please use MOREAD

INFO   : the flag for use of the SHARK integral package has been found!

================================================================================
                                       INPUT FILE
================================================================================
NAME = 4_prot_aq_2.inp
|  1> # ORCA 5.0.4 - /users/bwb16179/postgrad/2024_03/DFT_Crest_Conformers/Opt/prot/4_prot_aq_2.inp # write input file
|  2> # Basic Mode
|  3> #
|  4> ! Opt Freq wB97X Def2-SVP D4 SlowConv TightSCF Defgrid2 Def2/J RIJCOSX CPCM(Water)
|  5> 
|  6> 
|  7> 
|  8> %maxcore 4500
|  9> 
| 10> %geom
| 11> Maxiter 150
| 12> END
| 13> 
| 14> * xyzfile 1 1 4_prot_aq_2.xyz
| 15> 
| 16>                          ****END OF INPUT****
================================================================================

                       *****************************
                       * Geometry Optimization Run *
                       *****************************

Geometry optimization settings:
Update method            Update   .... BFGS
Choice of coordinates    CoordSys .... Z-matrix Internals
Initial Hessian          InHess   .... Almoef's Model

Convergence Tolerances:
Energy Change            TolE     ....  5.0000e-06 Eh
Max. Gradient            TolMAXG  ....  3.0000e-04 Eh/bohr
RMS Gradient             TolRMSG  ....  1.0000e-04 Eh/bohr
Max. Displacement        TolMAXD  ....  4.0000e-03 bohr
RMS Displacement         TolRMSD  ....  2.0000e-03 bohr
Strict Convergence                ....  False
------------------------------------------------------------------------------
                        ORCA OPTIMIZATION COORDINATE SETUP
------------------------------------------------------------------------------

The optimization will be done in new redundant internal coordinates
Making redundant internal coordinates   ...  (new redundants) done
Evaluating the initial hessian          ...  (Almloef) done
Evaluating the coordinates              ...  done
Calculating the B-matrix                .... done
Calculating the G-matrix                .... done
Diagonalizing the G-matrix              .... done
Small eigenvalue found = 1.632e-02
Small eigenvalue found = 2.119e-02
The first mode is                       ....   69
The number of degrees of freedom        ....   78

    -----------------------------------------------------------------
                    Redundant Internal Coordinates


    -----------------------------------------------------------------
         Definition                    Initial Value    Approx d2E/dq
    -----------------------------------------------------------------
      1. B(C   1,N   0)                  1.3286         0.701105   
      2. B(N   2,C   1)                  1.3304         0.696536   
      3. B(H   3,C   1)                  1.0719         0.384793   
      4. B(C   4,N   2)                  1.3601         0.624634   
      5. B(C   5,C   4)                  1.3617         0.693328   
      6. B(C   5,N   0)                  1.3612         0.622028   
      7. B(C   6,N   0)                  1.4595         0.433578   
      8. B(C   7,N   2)                  1.4599         0.432802   
      9. B(C   8,C   6)                  1.5254         0.379877   
     10. B(H   9,C   6)                  1.0946         0.354010   
     11. B(C  10,C   6)                  1.5254         0.379922   
     12. B(C  11,C   7)                  1.5255         0.379831   
     13. B(C  12,C   7)                  1.5255         0.379781   
     14. B(H  13,C   7)                  1.0941         0.354692   
     15. B(H  14,C   4)                  1.0708         0.386422   
     16. B(H  15,C   5)                  1.0699         0.387758   
     17. B(H  16,C   8)                  1.0857         0.365820   
     18. B(H  17,C   8)                  1.0865         0.364762   
     19. B(H  18,C   8)                  1.0874         0.363532   
     20. B(H  19,C  10)                  1.0865         0.364799   
     21. B(H  20,C  10)                  1.0857         0.365808   
     22. B(H  21,C  10)                  1.0874         0.363556   
     23. B(H  22,C  11)                  1.0868         0.364368   
     24. B(H  23,C  11)                  1.0857         0.365789   
     25. B(H  24,C  11)                  1.0874         0.363570   
     26. B(H  25,C  12)                  1.0874         0.363583   
     27. B(H  26,C  12)                  1.0857         0.365794   
     28. B(H  27,C  12)                  1.0868         0.364374   
     29. A(C   1,N   0,C   6)          126.1459         0.410850   
     30. A(C   5,N   0,C   6)          126.0092         0.402250   
     31. A(C   1,N   0,C   5)          107.8450         0.438246   
     32. A(N   0,C   1,H   3)          124.8415         0.362193   
     33. A(N   2,C   1,H   3)          125.4589         0.361789   
     34. A(N   0,C   1,N   2)          109.6996         0.447304   
     35. A(C   1,N   2,C   7)          126.3865         0.410244   
     36. A(C   1,N   2,C   4)          107.7120         0.438059   
     37. A(C   4,N   2,C   7)          125.9015         0.402419   
     38. A(N   2,C   4,H  14)          122.6476         0.355399   
     39. A(C   5,C   4,H  14)          129.8720         0.364028   
     40. A(N   2,C   4,C   5)          107.4804         0.440588   
     41. A(N   0,C   5,C   4)          107.2630         0.440255   
     42. A(N   0,C   5,H  15)          123.0591         0.355355   
     43. A(C   4,C   5,H  15)          129.6779         0.364243   
     44. A(N   0,C   6,C  10)          109.6911         0.371499   
     45. A(C   8,C   6,H   9)          109.4233         0.324301   
     46. A(N   0,C   6,H   9)          106.4015         0.329455   
     47. A(N   0,C   6,C   8)          109.6645         0.371491   
     48. A(H   9,C   6,C  10)          109.4207         0.324308   
     49. A(C   8,C   6,C  10)          112.0768         0.365444   
     50. A(C  12,C   7,H  13)          109.3391         0.324390   
     51. A(C  11,C   7,H  13)          109.3361         0.324397   
     52. A(N   2,C   7,H  13)          106.0835         0.329462   
     53. A(C  11,C   7,C  12)          112.1179         0.365414   
     54. A(N   2,C   7,C  12)          109.8874         0.371361   
     55. A(N   2,C   7,C  11)          109.8926         0.371369   
     56. A(C   6,C   8,H  18)          110.9782         0.325719   
     57. A(H  16,C   8,H  17)          108.1387         0.292151   
     58. A(C   6,C   8,H  17)          111.2056         0.325900   
     59. A(C   6,C   8,H  16)          109.3192         0.326056   
     60. A(H  17,C   8,H  18)          108.8690         0.291863   
     61. A(H  16,C   8,H  18)          108.2398         0.291996   
     62. A(H  19,C  10,H  21)          108.8730         0.291871   
     63. A(C   6,C  10,H  21)          110.9782         0.325729   
     64. A(H  19,C  10,H  20)          108.1341         0.292154   
     65. A(C   6,C  10,H  20)          109.3162         0.326060   
     66. A(H  20,C  10,H  21)          108.2390         0.291997   
     67. A(C   6,C  10,H  19)          111.2097         0.325912   
     68. A(H  23,C  11,H  24)          108.1662         0.291997   
     69. A(H  22,C  11,H  24)          108.9533         0.291818   
     70. A(C   7,C  11,H  24)          110.9333         0.325718   
     71. A(H  22,C  11,H  23)          108.1066         0.292098   
     72. A(C   7,C  11,H  23)          109.3080         0.326045   
     73. A(C   7,C  11,H  22)          111.2792         0.325836   
     74. A(H  26,C  12,H  27)          108.1071         0.292099   
     75. A(H  25,C  12,H  27)          108.9541         0.291821   
     76. A(C   7,C  12,H  27)          111.2770         0.325830   
     77. A(H  25,C  12,H  26)          108.1646         0.291999   
     78. A(C   7,C  12,H  26)          109.3134         0.326038   
     79. A(C   7,C  12,H  25)          110.9305         0.325713   
     80. D(H   3,C   1,N   0,C   5)   -180.0000         0.040690   
     81. D(H   3,C   1,N   0,C   6)      0.0574         0.040690   
     82. D(N   2,C   1,N   0,C   6)   -179.9474         0.040690   
     83. D(N   2,C   1,N   0,C   5)     -0.0049         0.040690   
     84. D(C   7,N   2,C   1,H   3)     -0.0178         0.040109   
     85. D(C   7,N   2,C   1,N   0)    179.9872         0.040109   
     86. D(C   4,N   2,C   1,H   3)    179.9975         0.040109   
     87. D(C   4,N   2,C   1,N   0)      0.0024         0.040109   
     88. D(H  14,C   4,N   2,C   1)    179.9989         0.031631   
     89. D(C   5,C   4,N   2,C   7)   -179.9839         0.031631   
     90. D(H  14,C   4,N   2,C   7)      0.0141         0.031631   
     91. D(C   5,C   4,N   2,C   1)      0.0010         0.031631   
     92. D(H  15,C   5,N   0,C   1)    179.9987         0.031347   
     93. D(C   4,C   5,N   0,C   6)    179.9480         0.031347   
     94. D(C   4,C   5,N   0,C   1)      0.0054         0.031347   
     95. D(H  15,C   5,C   4,H  14)      0.0056         0.033802   
     96. D(H  15,C   5,C   4,N   2)   -179.9966         0.033802   
     97. D(N   0,C   5,C   4,H  14)    179.9984         0.033802   
     98. D(N   0,C   5,C   4,N   2)     -0.0039         0.033802   
     99. D(H  15,C   5,N   0,C   6)     -0.0586         0.031347   
    100. D(C  10,C   6,N   0,C   5)     61.6245         0.016028   
    101. D(C  10,C   6,N   0,C   1)   -118.4430         0.016028   
    102. D(H   9,C   6,N   0,C   5)    179.8846         0.016028   
    103. D(H   9,C   6,N   0,C   1)     -0.1830         0.016028   
    104. D(C   8,C   6,N   0,C   5)    -61.8663         0.016028   
    105. D(C   8,C   6,N   0,C   1)    118.0661         0.016028   
    106. D(C  12,C   7,N   2,C   4)    118.0580         0.015970   
    107. D(C  11,C   7,N   2,C   4)   -118.1143         0.015970   
    108. D(C  11,C   7,N   2,C   1)     61.9036         0.015970   
    109. D(H  13,C   7,N   2,C   1)    179.9894         0.015970   
    110. D(C  12,C   7,N   2,C   1)    -61.9240         0.015970   
    111. D(H  13,C   7,N   2,C   4)     -0.0286         0.015970   
    112. D(H  18,C   8,C   6,C  10)   -177.7554         0.011502   
    113. D(H  18,C   8,C   6,H   9)     60.6788         0.011502   
    114. D(H  18,C   8,C   6,N   0)    -55.6779         0.011502   
    115. D(H  17,C   8,C   6,C  10)    -56.4040         0.011502   
    116. D(H  17,C   8,C   6,H   9)   -177.9699         0.011502   
    117. D(H  17,C   8,C   6,N   0)     65.6735         0.011502   
    118. D(H  16,C   8,C   6,C  10)     62.9281         0.011502   
    119. D(H  16,C   8,C   6,H   9)    -58.6378         0.011502   
    120. D(H  16,C   8,C   6,N   0)   -174.9944         0.011502   
    121. D(H  21,C  10,C   6,H   9)    -60.7676         0.011504   
    122. D(H  21,C  10,C   6,C   8)    177.6651         0.011504   
    123. D(H  21,C  10,C   6,N   0)     55.6028         0.011504   
    124. D(H  20,C  10,C   6,H   9)     58.5461         0.011504   
    125. D(H  20,C  10,C   6,C   8)    -63.0212         0.011504   
    126. D(H  20,C  10,C   6,N   0)    174.9165         0.011504   
    127. D(H  19,C  10,C   6,H   9)    177.8732         0.011504   
    128. D(H  19,C  10,C   6,C   8)     56.3058         0.011504   
    129. D(H  19,C  10,C   6,N   0)    -65.7564         0.011504   
    130. D(H  24,C  11,C   7,C  12)    177.3900         0.011499   
    131. D(H  24,C  11,C   7,N   2)     54.8724         0.011499   
    132. D(H  23,C  11,C   7,H  13)     58.0102         0.011499   
    133. D(H  23,C  11,C   7,C  12)    -63.4192         0.011499   
    134. D(H  23,C  11,C   7,N   2)    174.0633         0.011499   
    135. D(H  22,C  11,C   7,H  13)    177.3410         0.011499   
    136. D(H  22,C  11,C   7,C  12)     55.9117         0.011499   
    137. D(H  24,C  11,C   7,H  13)    -61.1806         0.011499   
    138. D(H  22,C  11,C   7,N   2)    -66.6059         0.011499   
    139. D(H  26,C  12,C   7,N   2)   -173.9267         0.011496   
    140. D(H  25,C  12,C   7,H  13)     61.3157         0.011496   
    141. D(H  25,C  12,C   7,C  11)   -177.2566         0.011496   
    142. D(H  25,C  12,C   7,N   2)    -54.7361         0.011496   
    143. D(H  27,C  12,C   7,H  13)   -177.2084         0.011496   
    144. D(H  27,C  12,C   7,C  11)    -55.7808         0.011496   
    145. D(H  27,C  12,C   7,N   2)     66.7398         0.011496   
    146. D(H  26,C  12,C   7,H  13)    -57.8749         0.011496   
    147. D(H  26,C  12,C   7,C  11)     63.5528         0.011496   
    -----------------------------------------------------------------

Number of atoms                         .... 28
Number of degrees of freedom            .... 147

         *************************************************************
         *                GEOMETRY OPTIMIZATION CYCLE   1            *
         *************************************************************
---------------------------------
CARTESIAN COORDINATES (ANGSTROEM)
---------------------------------
  N     -1.018076   -0.001319   -0.027929
  C      0.164735   -0.004836    0.577224
  N      1.134490    0.002027   -0.333559
  H      0.309210   -0.012187    1.639364
  C      0.549123    0.010252   -1.561186
  C     -0.799254    0.008223   -1.371400
  C     -2.321241   -0.005534    0.629147
  C      2.570405    0.001282   -0.069789
  C     -3.084081    1.264161    0.264540
  H     -2.124449   -0.015437    1.705909
  C     -3.087971   -1.266157    0.242055
  C      2.959782   -1.268951    0.679863
  C      2.957906    1.262136    0.696557
  H      3.058468    0.008064   -1.048995
  H      1.114335    0.016904   -2.470634
  H     -1.590429    0.012764   -2.091549
  H     -4.013605    1.298045    0.824544
  H     -3.326150    1.286800   -0.794407
  H     -2.505142    2.150773    0.511981
  H     -3.331608   -1.268483   -0.816743
  H     -4.016835   -1.307913    0.802638
  H     -2.511132   -2.158750    0.472217
  H      2.528568   -1.286147    1.677299
  H      4.040215   -1.310626    0.778581
  H      2.634353   -2.154429    0.139085
  H      2.629077    2.154068    0.168614
  H      4.038404    1.305412    0.793820
  H      2.528541    1.264435    1.694930

----------------------------
CARTESIAN COORDINATES (A.U.)
----------------------------
  NO LB      ZA    FRAG     MASS         X           Y           Z
   0 N     7.0000    0    14.007   -1.923885   -0.002492   -0.052778
   1 C     6.0000    0    12.011    0.311304   -0.009139    1.090796
   2 N     7.0000    0    14.007    2.143875    0.003830   -0.630334
   3 H     1.0000    0     1.008    0.584323   -0.023030    3.097949
   4 C     6.0000    0    12.011    1.037691    0.019374   -2.950215
   5 C     6.0000    0    12.011   -1.510371    0.015539   -2.591571
   6 C     6.0000    0    12.011   -4.386509   -0.010457    1.188915
   7 C     6.0000    0    12.011    4.857361    0.002423   -0.131882
   8 C     6.0000    0    12.011   -5.828068    2.388917    0.499909
   9 H     1.0000    0     1.008   -4.014627   -0.029172    3.223701
  10 C     6.0000    0    12.011   -5.835419   -2.392690    0.457418
  11 C     6.0000    0    12.011    5.593177   -2.397970    1.284756
  12 C     6.0000    0    12.011    5.589633    2.385092    1.316302
  13 H     1.0000    0     1.008    5.779667    0.015240   -1.982314
  14 H     1.0000    0     1.008    2.105787    0.031944   -4.668822
  15 H     1.0000    0     1.008   -3.005476    0.024120   -3.952455
  16 H     1.0000    0     1.008   -7.584613    2.452949    1.558162
  17 H     1.0000    0     1.008   -6.285513    2.431700   -1.501211
  18 H     1.0000    0     1.008   -4.734032    4.064371    0.967504
  19 H     1.0000    0     1.008   -6.295826   -2.397086   -1.543421
  20 H     1.0000    0     1.008   -7.590719   -2.471597    1.516766
  21 H     1.0000    0     1.008   -4.745351   -4.079446    0.892361
  22 H     1.0000    0     1.008    4.778300   -2.430465    3.169636
  23 H     1.0000    0     1.008    7.634899   -2.476725    1.471305
  24 H     1.0000    0     1.008    4.978206   -4.071281    0.262833
  25 H     1.0000    0     1.008    4.968235    4.070599    0.318635
  26 H     1.0000    0     1.008    7.631477    2.466871    1.500102
  27 H     1.0000    0     1.008    4.778250    2.389435    3.202953

--------------------------------
INTERNAL COORDINATES (ANGSTROEM)
--------------------------------
 N      0   0   0     0.000000000000     0.00000000     0.00000000
 C      1   0   0     1.328632777899     0.00000000     0.00000000
 N      2   1   0     1.330412395371   109.69964196     0.00000000
 H      2   1   3     1.071945857217   124.84150431   180.00489000
 C      3   2   1     1.360070704751   107.71203256     0.00000000
 C      1   2   3     1.361208749917   107.84495008     0.00000000
 C      1   2   3     1.459453426707   126.14586155   180.05255140
 C      3   2   1     1.459940685711   126.38650788   179.98716211
 C      7   1   2     1.525446314464   109.66447029   118.06609274
 H      7   1   2     1.094642754521   106.40154908   359.81702900
 C      7   1   2     1.525413568613   109.69113102   241.55696798
 C      8   3   2     1.525478928502   109.89264737    61.90364086
 C      8   3   2     1.525514685998   109.88739119   298.07595868
 H      8   3   2     1.094119309548   106.08350620   179.98937586
 H      5   3   2     1.070796283403   122.64755900   179.99890741
 H      6   1   2     1.069856418792   123.05910434   179.99870304
 H      9   7   1     1.085710042923   109.31922097   185.00558049
 H      9   7   1     1.086498322452   111.20556014    65.67345236
 H      9   7   1     1.087418199824   110.97815156   304.32211379
 H     11   7   1     1.086470504457   111.20970194   294.24358955
 H     11   7   1     1.085719155045   109.31619898   174.91651452
 H     11   7   1     1.087400293722   110.97824759    55.60280978
 H     12   8   3     1.086792967128   111.27923196   293.39409058
 H     12   8   3     1.085733348228   109.30799180   174.06325288
 H     12   8   3     1.087389461288   110.93329503    54.87240199
 H     13   8   3     1.087380088425   110.93051012   305.26392410
 H     13   8   3     1.085729050456   109.31340363   186.07332378
 H     13   8   3     1.086787962357   111.27697728    66.73975494

---------------------------
INTERNAL COORDINATES (A.U.)
---------------------------
 N      0   0   0     0.000000000000     0.00000000     0.00000000
 C      1   0   0     2.510752082780     0.00000000     0.00000000
 N      2   1   0     2.514115072425   109.69964196     0.00000000
 H      2   1   3     2.025684100532   124.84150431   180.00489000
 C      3   2   1     2.570161154749   107.71203256     0.00000000
 C      1   2   3     2.572311748440   107.84495008     0.00000000
 C      1   2   3     2.757967281690   126.14586155   180.05255140
 C      3   2   1     2.758888067763   126.38650788   179.98716211
 C      7   1   2     2.882675766336   109.66447029   118.06609274
 H      7   1   2     2.068575020526   106.40154908   359.81702900
 C      7   1   2     2.882613885646   109.69113102   241.55696798
 C      8   3   2     2.882737397937   109.89264737    61.90364086
 C      8   3   2     2.882804969810   109.88739119   298.07595868
 H      8   3   2     2.067585852882   106.08350620   179.98937586
 H      5   3   2     2.023511720852   122.64755900   179.99890741
 H      6   1   2     2.021735634135   123.05910434   179.99870304
 H      9   7   1     2.051694641972   109.31922097   185.00558049
 H      9   7   1     2.053184274399   111.20556014    65.67345236
 H      9   7   1     2.054922590710   110.97815156   304.32211379
 H     11   7   1     2.053131706007   111.20970194   294.24358955
 H     11   7   1     2.051711861387   109.31619898   174.91651452
 H     11   7   1     2.054888753080   110.97824759    55.60280978
 H     12   8   3     2.053741072143   111.27923196   293.39409058
 H     12   8   3     2.051738682616   109.30799180   174.06325288
 H     12   8   3     2.054868282746   110.93329503    54.87240199
 H     13   8   3     2.054850570603   110.93051012   305.26392410
 H     13   8   3     2.051730561005   109.31340363   186.07332378
 H     13   8   3     2.053731614497   111.27697728    66.73975494

---------------------
BASIS SET INFORMATION
---------------------
There are 3 groups of distinct atoms

 Group   1 Type N   : 7s4p1d contracted to 3s2p1d pattern {511/31/1}
 Group   2 Type C   : 7s4p1d contracted to 3s2p1d pattern {511/31/1}
 Group   3 Type H   : 4s1p contracted to 2s1p pattern {31/1}

Atom   0N    basis set group =>   1
Atom   1C    basis set group =>   2
Atom   2N    basis set group =>   1
Atom   3H    basis set group =>   3
Atom   4C    basis set group =>   2
Atom   5C    basis set group =>   2
Atom   6C    basis set group =>   2
Atom   7C    basis set group =>   2
Atom   8C    basis set group =>   2
Atom   9H    basis set group =>   3
Atom  10C    basis set group =>   2
Atom  11C    basis set group =>   2
Atom  12C    basis set group =>   2
Atom  13H    basis set group =>   3
Atom  14H    basis set group =>   3
Atom  15H    basis set group =>   3
Atom  16H    basis set group =>   3
Atom  17H    basis set group =>   3
Atom  18H    basis set group =>   3
Atom  19H    basis set group =>   3
Atom  20H    basis set group =>   3
Atom  21H    basis set group =>   3
Atom  22H    basis set group =>   3
Atom  23H    basis set group =>   3
Atom  24H    basis set group =>   3
Atom  25H    basis set group =>   3
Atom  26H    basis set group =>   3
Atom  27H    basis set group =>   3
---------------------------------
AUXILIARY/J BASIS SET INFORMATION
---------------------------------
There are 3 groups of distinct atoms

 Group   1 Type N   : 12s5p4d2f1g contracted to 6s4p3d1f1g pattern {711111/2111/211/2/1}
 Group   2 Type C   : 12s5p4d2f1g contracted to 6s4p3d1f1g pattern {711111/2111/211/2/1}
 Group   3 Type H   : 5s2p1d contracted to 3s1p1d pattern {311/2/1}

Atom   0N    basis set group =>   1
Atom   1C    basis set group =>   2
Atom   2N    basis set group =>   1
Atom   3H    basis set group =>   3
Atom   4C    basis set group =>   2
Atom   5C    basis set group =>   2
Atom   6C    basis set group =>   2
Atom   7C    basis set group =>   2
Atom   8C    basis set group =>   2
Atom   9H    basis set group =>   3
Atom  10C    basis set group =>   2
Atom  11C    basis set group =>   2
Atom  12C    basis set group =>   2
Atom  13H    basis set group =>   3
Atom  14H    basis set group =>   3
Atom  15H    basis set group =>   3
Atom  16H    basis set group =>   3
Atom  17H    basis set group =>   3
Atom  18H    basis set group =>   3
Atom  19H    basis set group =>   3
Atom  20H    basis set group =>   3
Atom  21H    basis set group =>   3
Atom  22H    basis set group =>   3
Atom  23H    basis set group =>   3
Atom  24H    basis set group =>   3
Atom  25H    basis set group =>   3
Atom  26H    basis set group =>   3
Atom  27H    basis set group =>   3
------------------------------------------------------------------------------
                           ORCA GTO INTEGRAL CALCULATION
                           -- RI-GTO INTEGRALS CHOSEN --
------------------------------------------------------------------------------
------------------------------------------------------------------------------
                   ___                                                        
                  /   \      - P O W E R E D   B Y -                         
                 /     \                                                     
                 |  |  |   _    _      __       _____    __    __             
                 |  |  |  | |  | |    /  \     |  _  \  |  |  /  |          
                  \  \/   | |  | |   /    \    | | | |  |  | /  /          
                 / \  \   | |__| |  /  /\  \   | |_| |  |  |/  /          
                |  |  |   |  __  | /  /__\  \  |    /   |      \           
                |  |  |   | |  | | |   __   |  |    \   |  |\   \          
                \     /   | |  | | |  |  |  |  | |\  \  |  | \   \       
                 \___/    |_|  |_| |__|  |__|  |_| \__\ |__|  \__/        
                                                                              
                      - O R C A' S   B I G   F R I E N D -                    
                                      &                                       
                       - I N T E G R A L  F E E D E R -                       
                                                                              
 v1 FN, 2020, v2 2021                                                         
------------------------------------------------------------------------------


Reading SHARK input file 4_prot_aq_2.SHARKINP.tmp ... ok
----------------------
SHARK INTEGRAL PACKAGE
----------------------

Number of atoms                             ...     28
Number of basis functions                   ...    239
Number of shells                            ...    117
Maximum angular momentum                    ...      2
Integral batch strategy                     ... SHARK/LIBINT Hybrid
RI-J (if used) integral strategy            ... SPLIT-RIJ (Revised 2003 algorithm where possible)
Printlevel                                  ...      1
Contraction scheme used                     ... SEGMENTED contraction
Coulomb Range Separation                    ... NOT USED
Exchange Range Separation                   ... Long Range
   Mu parameter                             ...  0.300000
   Scaling (regular/separated)              ...  0.157706  0.842294
Finite Nucleus Model                        ... NOT USED
Auxiliary Coulomb fitting basis             ... AVAILABLE
   # of basis functions in Aux-J            ...    726
   # of shells in Aux-J                     ...    250
   Maximum angular momentum in Aux-J        ...      4
Auxiliary J/K fitting basis                 ... NOT available
Auxiliary Correlation fitting basis         ... NOT available
Auxiliary 'external' fitting basis          ... NOT available
Integral threshold                          ...     2.500000e-11
Primitive cut-off                           ...     2.500000e-12
Primitive pair pre-selection threshold      ...     2.500000e-12

Calculating pre-screening integrals         ... done (  0.0 sec) Dimension = 117
Organizing shell pair data                  ... done (  0.0 sec)
Shell pair information
Total number of shell pairs                 ...      6903
Shell pairs after pre-screening             ...      6052
Total number of primitive shell pairs       ...     23847
Primitive shell pairs kept                  ...     14844
          la=0 lb=0:   2058 shell pairs
          la=1 lb=0:   2286 shell pairs
          la=1 lb=1:    656 shell pairs
          la=2 lb=0:    638 shell pairs
          la=2 lb=1:    357 shell pairs
          la=2 lb=2:     57 shell pairs

Calculating one electron integrals          ... done (  0.0 sec)
Calculating RI/J V-Matrix + Cholesky decomp.... done (  0.0 sec)
Calculating Nuclear repulsion               ... done (  0.0 sec) ENN=    652.846574844567 Eh

SHARK setup successfully completed in   0.3 seconds

Maximum memory used throughout the entire GTOINT-calculation: 36.5 MB
-------------------------------------------------------------------------------
                                 ORCA SCF
-------------------------------------------------------------------------------

------------
SCF SETTINGS
------------
Hamiltonian:
 Density Functional     Method          .... DFT(GTOs)
 Exchange Functional    Exchange        .... WB97X
 Correlation Functional Correlation     .... WB97X
 Gradients option       PostSCFGGA      .... off
 Hybrid DFT is turned on
   Fraction HF Exchange ScalHFX         ....  0.157706
   Scaling of DF-GGA-X  ScalDFX         ....  0.000000
   Scaling of DF-GGA-C  ScalDFC         ....  1.000000
   Scaling of DF-LDA-C  ScalLDAC        ....  1.000000
   Perturbative correction              ....  0.000000
   Density functional embedding theory  .... OFF
 Long-range corrected/Screened/Range-Separated Hybrid DFT is turned on
   Amount of maximum screened exact exchange              ....  0.842294
   Range separation parameter mu (erf(mu*r12)/r12)        ....  0.300000
 RI-approximation to the Coulomb term is turned on
   Number of AuxJ basis functions       .... 726
   RIJ-COSX (HFX calculated with COS-X)).... on


General Settings:
 Integral files         IntName         .... 4_prot_aq_2
 Hartree-Fock type      HFTyp           .... RHF
 Total Charge           Charge          ....    1
 Multiplicity           Mult            ....    1
 Number of Electrons    NEL             ....   84
 Basis Dimension        Dim             ....  239
 Nuclear Repulsion      ENuc            ....    652.8465748446 Eh

Convergence Acceleration:
 DIIS                   CNVDIIS         .... on
   Start iteration      DIISMaxIt       ....     0
   Startup error        DIISStart       ....  0.200000
   # of expansion vecs  DIISMaxEq       ....     5
   Bias factor          DIISBfac        ....   1.050
   Max. coefficient     DIISMaxC        ....  10.000
 Trust-Rad. Augm. Hess. CNVTRAH         .... auto
   Auto Start mean grad. ratio tolernc. ....  1.125000
   Auto Start start iteration           ....    20
   Auto Start num. interpolation iter.  ....    10
   Max. Number of Micro iterations      ....    16
   Max. Number of Macro iterations      .... Maxiter - #DIIS iter
   Number of Davidson start vectors     ....     2
   Converg. threshold I  (grad. norm)   ....   1.000e-05
   Converg. threshold II (energy diff.) ....   1.000e-08
   Grad. Scal. Fac. for Micro threshold ....   0.100
   Minimum threshold for Micro iter.    ....   0.010
   NR start threshold (gradient norm)   ....   0.001
   Initial trust radius                 ....   0.400
   Minimum AH scaling param. (alpha)    ....   1.000
   Maximum AH scaling param. (alpha)    .... 1000.000
   Orbital update algorithm             .... Taylor
   White noise on init. David. guess    .... on
   Maximum white noise                  ....   0.010
   Quad. conv. algorithm                .... NR
 SOSCF                  CNVSOSCF        .... on
   Start iteration      SOSCFMaxIt      ....   150
   Startup grad/error   SOSCFStart      ....  0.001000
 Level Shifting         CNVShift        .... on
   Level shift para.    LevelShift      ....    0.2500
   Turn off err/grad.   ShiftErr        ....    0.0000
 Zerner damping         CNVZerner       .... off
 Static damping         CNVDamp         .... on
   Fraction old density DampFac         ....    0.8500
   Max. Damping (<1)    DampMax         ....    0.9800
   Min. Damping (>=0)   DampMin         ....    0.0000
   Turn off err/grad.   DampErr         ....    0.0300
 Fernandez-Rico         CNVRico         .... off

SCF Procedure:
 Maximum # iterations   MaxIter         ....   125
 SCF integral mode      SCFMode         .... Direct
   Integral package                     .... SHARK and LIBINT hybrid scheme
 Reset frequency        DirectResetFreq ....    20
 Integral Threshold     Thresh          ....  2.500e-11 Eh
 Primitive CutOff       TCut            ....  2.500e-12 Eh

Convergence Tolerance:
 Convergence Check Mode ConvCheckMode   .... Total+1el-Energy
 Convergence forced     ConvForced      .... 0
 Energy Change          TolE            ....  1.000e-08 Eh
 1-El. energy change                    ....  1.000e-05 Eh
 Orbital Gradient       TolG            ....  1.000e-05
 Orbital Rotation angle TolX            ....  1.000e-05
 DIIS Error             TolErr          ....  5.000e-07


Diagonalization of the overlap matrix:
Smallest eigenvalue                        ... 1.308e-03
Time for diagonalization                   ...    0.010 sec
Threshold for overlap eigenvalues          ... 1.000e-08
Number of eigenvalues below threshold      ... 0
Time for construction of square roots      ...    0.005 sec
Total time needed                          ...    0.016 sec

Time for model grid setup =    0.476 sec

------------------------------
INITIAL GUESS: MODEL POTENTIAL
------------------------------
Loading Hartree-Fock densities                     ... done
Calculating cut-offs                               ... done
Initializing the effective Hamiltonian             ... done
Setting up the integral package (SHARK)            ... done
Starting the Coulomb interaction                   ... done (   0.5 sec)
Reading the grid                                   ... done
Mapping shells                                     ... done
Starting the XC term evaluation                    ... done (   0.5 sec)
  promolecular density results
     # of electrons  =     84.984157554
     EX              =    -64.259912071
     EC              =     -2.820842301
     EX+EC           =    -67.080754373
Transforming the Hamiltonian                       ... done (   0.0 sec)
Diagonalizing the Hamiltonian                      ... done (   0.0 sec)
Back transforming the eigenvectors                 ... done (   0.0 sec)
Now organizing SCF variables                       ... done
                      ------------------
                      INITIAL GUESS DONE (   1.5 sec)
                      ------------------
-------------------
DFT GRID GENERATION
-------------------

General Integration Accuracy     IntAcc      ... 4.388
Radial Grid Type                 RadialGrid  ... OptM3 with GC (2021)
Angular Grid (max. ang.)         AngularGrid ... 4 (Lebedev-302)
Angular grid pruning method      GridPruning ... 4 (adaptive)
Weight generation scheme         WeightScheme... Becke
Basis function cutoff            BFCut       ... 1.0000e-11
Integration weight cutoff        WCut        ... 1.0000e-14
Angular grids for H and He will be reduced by one unit
Partially contracted basis set               ... off
Rotationally invariant grid construction     ... off

Total number of grid points                  ...   120043
Total number of batches                      ...     1890
Average number of points per batch           ...       63
Average number of grid points per atom       ...     4287
Time for grid setup =    1.781 sec

--------------------
COSX GRID GENERATION
--------------------

GRIDX 1
-------
General Integration Accuracy     IntAcc      ... 3.816
Radial Grid Type                 RadialGrid  ... OptM3 with GC (2021)
Angular Grid (max. ang.)         AngularGrid ... 1 (Lebedev-50)
Angular grid pruning method      GridPruning ... 4 (adaptive)
Weight generation scheme         WeightScheme... Becke
Basis function cutoff            BFCut       ... 1.0000e-11
Integration weight cutoff        WCut        ... 1.0000e-14
Angular grids for H and He will be reduced by one unit
Partially contracted basis set               ... on
Rotationally invariant grid construction     ... off

Total number of grid points                  ...    15366
Total number of batches                      ...      256
Average number of points per batch           ...       60
Average number of grid points per atom       ...      549
UseSFitting                                  ... on

GRIDX 2
-------
General Integration Accuracy     IntAcc      ... 4.020
Radial Grid Type                 RadialGrid  ... OptM3 with GC (2021)
Angular Grid (max. ang.)         AngularGrid ... 2 (Lebedev-110)
Angular grid pruning method      GridPruning ... 4 (adaptive)
Weight generation scheme         WeightScheme... Becke
Basis function cutoff            BFCut       ... 1.0000e-11
Integration weight cutoff        WCut        ... 1.0000e-14
Angular grids for H and He will be reduced by one unit
Partially contracted basis set               ... on
Rotationally invariant grid construction     ... off

Total number of grid points                  ...    32117
Total number of batches                      ...      516
Average number of points per batch           ...       62
Average number of grid points per atom       ...     1147
UseSFitting                                  ... on

GRIDX 3
-------
General Integration Accuracy     IntAcc      ... 4.338
Radial Grid Type                 RadialGrid  ... OptM3 with GC (2021)
Angular Grid (max. ang.)         AngularGrid ... 3 (Lebedev-194)
Angular grid pruning method      GridPruning ... 4 (adaptive)
Weight generation scheme         WeightScheme... Becke
Basis function cutoff            BFCut       ... 1.0000e-11
Integration weight cutoff        WCut        ... 1.0000e-14
Angular grids for H and He will be reduced by one unit
Partially contracted basis set               ... on
Rotationally invariant grid construction     ... off

Total number of grid points                  ...    69893
Total number of batches                      ...     1107
Average number of points per batch           ...       63
Average number of grid points per atom       ...     2496
UseSFitting                                  ... on

Time for X-Grid setup             =    2.330 sec


--------------------
CPCM SOLVATION MODEL
--------------------
CPCM parameters:
  Epsilon                                         ...      80.4000
  Refrac                                          ...       1.3300
  Rsolv                                           ...       1.3000
  Surface type                                    ... GAUSSIAN VDW
  Epsilon function type                           ...         CPCM
Radii:
 Radius for N  used is    3.5149 Bohr (=   1.8600 Ang.)
 Radius for C  used is    3.8550 Bohr (=   2.0400 Ang.)
 Radius for H  used is    2.4944 Bohr (=   1.3200 Ang.)
Calculating surface                               ...        done! (  0.0s)
GEPOL surface points                              ...         1507
GEPOL Volume                                      ...    1446.7627
GEPOL Surface-area                                ...     805.1231
Calculating surface distance matrix               ...        done! (  0.0s)
Performing Cholesky decomposition & store         ...        done! (  0.1s)
Overall time for CPCM initialization              ...                 0.1s
--------------
SCF ITERATIONS
--------------
ITER       Energy         Delta-E        Max-DP      RMS-DP      [F,P]     Damp
               ***  Starting incremental Fock matrix formation  ***
  0   -461.9126141543   0.000000000000 0.03343272  0.00064391  0.1503272 0.8500
  1   -461.9574119385  -0.044797784207 0.03008410  0.00060356  0.1209625 0.8500
                               ***Turning on DIIS***
  2   -461.9914272864  -0.034015347914 0.02356157  0.00049158  0.0927179 0.8500
  3   -462.0166560795  -0.025228793139 0.01473788  0.00034952  0.0701612 0.8500
  4   -462.0360770321  -0.019420952541 0.00988977  0.00026770  0.0558225 0.8500
  5   -462.0513429550  -0.015265922910 0.00750670  0.00021940  0.0461550 0.8500
  6   -462.0637294901  -0.012386535121 0.00607550  0.00018487  0.0388250 0.8500
  7   -462.0739648167  -0.010235326647 0.00517681  0.00015883  0.0328853 0.8500
  8   -462.0825154934  -0.008550676632 0.02942612  0.00090983  0.0278099 0.0000
  9   -462.1283689550  -0.045853461627 0.00136293  0.00003222  0.0011980 0.0000
                      *** Initiating the SOSCF procedure ***
                           *** Shutting down DIIS ***
                      *** Re-Reading the Fockian *** 
                      *** Removing any level shift *** 
ITER      Energy       Delta-E        Grad      Rot      Max-DP    RMS-DP
 10   -462.12838577  -0.0000168110  0.000152  0.000152  0.000547  0.000013
               *** Restarting incremental Fock matrix formation ***
 11   -462.12840854  -0.0000227768  0.000057  0.000108  0.000330  0.000009
 12   -462.12840883  -0.0000002853  0.000054  0.000123  0.000189  0.000004
 13   -462.12840888  -0.0000000485  0.000020  0.000020  0.000049  0.000001
 14   -462.12840889  -0.0000000125  0.000004  0.000007  0.000014  0.000000
 15   -462.12840889  -0.0000000007  0.000004  0.000007  0.000007  0.000000
                  ***Gradient check signals convergence***
              ***Rediagonalizing the Fockian in SOSCF/NRSCF***

               *****************************************************
               *                     SUCCESS                       *
               *           SCF CONVERGED AFTER  16 CYCLES          *
               *****************************************************

Old exchange energy                            =    -21.420580485 Eh
New exchange energy                            =    -21.420682416 Eh
Exchange energy change after final integration =     -0.000101930 Eh
Total energy after final integration           =   -462.128510820 Eh
Final COS-X integration done in                =    59.697 sec

----------------
TOTAL SCF ENERGY
----------------

Total Energy       :         -462.12851082 Eh          -12575.15609 eV

Components:
Nuclear Repulsion  :          652.84657484 Eh           17764.85845 eV
Electronic Energy  :        -1114.97508566 Eh          -30340.01454 eV
One Electron Energy:        -1902.05209980 Eh          -51757.46893 eV
Two Electron Energy:          787.07701413 Eh           21417.45440 eV
Max COSX asymmetry :            0.00000312 Eh               0.00009 eV
CPCM Dielectric    :           -0.07881082 Eh              -2.14455 eV

Virial components:
Potential Energy   :         -918.97064835 Eh          -25006.46265 eV
Kinetic Energy     :          456.84213753 Eh           12431.30656 eV
Virial Ratio       :            2.01157155


DFT components:
N(Alpha)           :       42.000035723015 electrons
N(Beta)            :       42.000035723015 electrons
N(Total)           :       84.000071446029 electrons
E(XC)              :      -47.266370629142 Eh       
DFET-embed. en.    :        0.000000000000 Eh       
CPCM Solvation Model Properties:
Surface-charge          :           -1.02131575
Charge-correction       :            0.00290965 Eh               0.07918 eV
Free-energy (cav+disp)  :  This term is not implemented in the current solvation scheme

---------------
SCF CONVERGENCE
---------------

  Last Energy change         ...    9.1802e-11  Tolerance :   1.0000e-08
  Last MAX-Density change    ...    6.2172e-15  Tolerance :   1.0000e-07
  Last RMS-Density change    ...    5.1027e-17  Tolerance :   5.0000e-09
  Last Orbital Gradient      ...    7.2363e-07  Tolerance :   1.0000e-05
  Last Orbital Rotation      ...    2.1064e-06  Tolerance :   1.0000e-05

             **** THE GBW FILE WAS UPDATED (4_prot_aq_2.gbw) ****
             **** DENSITY 4_prot_aq_2.scfp WAS UPDATED ****
             **** ENERGY FILE WAS UPDATED (4_prot_aq_2.en.tmp) ****
             **** THE GBW FILE WAS UPDATED (4_prot_aq_2.gbw) ****
             **** DENSITY 4_prot_aq_2.scfp WAS UPDATED ****
----------------
ORBITAL ENERGIES
----------------

  NO   OCC          E(Eh)            E(eV) 
   0   2.0000     -14.511551      -394.8794 
   1   2.0000     -14.510201      -394.8426 
   2   2.0000     -10.380743      -282.4744 
   3   2.0000     -10.335861      -281.2531 
   4   2.0000     -10.335466      -281.2423 
   5   2.0000     -10.331303      -281.1290 
   6   2.0000     -10.329734      -281.0864 
   7   2.0000     -10.270464      -279.4735 
   8   2.0000     -10.270459      -279.4734 
   9   2.0000     -10.270343      -279.4702 
  10   2.0000     -10.270326      -279.4698 
  11   2.0000      -1.222857       -33.2756 
  12   2.0000      -1.104626       -30.0584 
  13   2.0000      -0.969823       -26.3902 
  14   2.0000      -0.922711       -25.1082 
  15   2.0000      -0.913235       -24.8504 
  16   2.0000      -0.824694       -22.4411 
  17   2.0000      -0.823912       -22.4198 
  18   2.0000      -0.810621       -22.0581 
  19   2.0000      -0.786016       -21.3886 
  20   2.0000      -0.735858       -20.0237 
  21   2.0000      -0.725929       -19.7535 
  22   2.0000      -0.661367       -17.9967 
  23   2.0000      -0.632745       -17.2179 
  24   2.0000      -0.616147       -16.7662 
  25   2.0000      -0.598199       -16.2778 
  26   2.0000      -0.589697       -16.0465 
  27   2.0000      -0.575069       -15.6484 
  28   2.0000      -0.563801       -15.3418 
  29   2.0000      -0.561268       -15.2729 
  30   2.0000      -0.558794       -15.2056 
  31   2.0000      -0.520103       -14.1527 
  32   2.0000      -0.506300       -13.7771 
  33   2.0000      -0.501192       -13.6381 
  34   2.0000      -0.499235       -13.5849 
  35   2.0000      -0.493790       -13.4367 
  36   2.0000      -0.473843       -12.8939 
  37   2.0000      -0.462394       -12.5824 
  38   2.0000      -0.462048       -12.5730 
  39   2.0000      -0.459329       -12.4990 
  40   2.0000      -0.415378       -11.3030 
  41   2.0000      -0.372905       -10.1473 
  42   0.0000       0.060312         1.6412 
  43   0.0000       0.097203         2.6450 
  44   0.0000       0.141622         3.8537 
  45   0.0000       0.148417         4.0386 
  46   0.0000       0.162124         4.4116 
  47   0.0000       0.172252         4.6872 
  48   0.0000       0.179859         4.8942 
  49   0.0000       0.196074         5.3354 
  50   0.0000       0.204850         5.5743 
  51   0.0000       0.206820         5.6279 
  52   0.0000       0.211097         5.7442 
  53   0.0000       0.221116         6.0169 
  54   0.0000       0.234165         6.3720 
  55   0.0000       0.243244         6.6190 
  56   0.0000       0.251417         6.8414 
  57   0.0000       0.254867         6.9353 
  58   0.0000       0.255594         6.9551 
  59   0.0000       0.264672         7.2021 
  60   0.0000       0.265558         7.2262 
  61   0.0000       0.266123         7.2416 
  62   0.0000       0.272966         7.4278 
  63   0.0000       0.286024         7.7831 
  64   0.0000       0.297740         8.1019 
  65   0.0000       0.319992         8.7074 
  66   0.0000       0.329084         8.9548 
  67   0.0000       0.337069         9.1721 
  68   0.0000       0.338461         9.2100 
  69   0.0000       0.343011         9.3338 
  70   0.0000       0.399506        10.8711 
  71   0.0000       0.417645        11.3647 
  72   0.0000       0.455815        12.4034 
  73   0.0000       0.480420        13.0729 
  74   0.0000       0.482858        13.1392 
  75   0.0000       0.493991        13.4422 
  76   0.0000       0.507321        13.8049 
  77   0.0000       0.508124        13.8268 
  78   0.0000       0.513002        13.9595 
  79   0.0000       0.535655        14.5759 
  80   0.0000       0.547372        14.8948 
  81   0.0000       0.574812        15.6414 
  82   0.0000       0.587942        15.9987 
  83   0.0000       0.614127        16.7112 
  84   0.0000       0.617733        16.8094 
  85   0.0000       0.661223        17.9928 
  86   0.0000       0.666089        18.1252 
  87   0.0000       0.669202        18.2099 
  88   0.0000       0.674250        18.3473 
  89   0.0000       0.681988        18.5578 
  90   0.0000       0.704774        19.1779 
  91   0.0000       0.722317        19.6552 
  92   0.0000       0.729466        19.8498 
  93   0.0000       0.730552        19.8793 
  94   0.0000       0.741056        20.1651 
  95   0.0000       0.742792        20.2124 
  96   0.0000       0.756468        20.5845 
  97   0.0000       0.760839        20.7035 
  98   0.0000       0.765992        20.8437 
  99   0.0000       0.768375        20.9086 
 100   0.0000       0.769856        20.9489 
 101   0.0000       0.771544        20.9948 
 102   0.0000       0.792212        21.5572 
 103   0.0000       0.795921        21.6581 
 104   0.0000       0.799790        21.7634 
 105   0.0000       0.801416        21.8076 
 106   0.0000       0.806589        21.9484 
 107   0.0000       0.810069        22.0431 
 108   0.0000       0.817097        22.2343 
 109   0.0000       0.821166        22.3451 
 110   0.0000       0.824442        22.4342 
 111   0.0000       0.828511        22.5449 
 112   0.0000       0.841304        22.8930 
 113   0.0000       0.843042        22.9403 
 114   0.0000       0.846177        23.0257 
 115   0.0000       0.847959        23.0741 
 116   0.0000       0.908825        24.7304 
 117   0.0000       0.922310        25.0973 
 118   0.0000       0.967116        26.3166 
 119   0.0000       1.022598        27.8263 
 120   0.0000       1.048995        28.5446 
 121   0.0000       1.049630        28.5619 
 122   0.0000       1.095309        29.8049 
 123   0.0000       1.121748        30.5243 
 124   0.0000       1.149314        31.2744 
 125   0.0000       1.159281        31.5456 
 126   0.0000       1.172236        31.8982 
 127   0.0000       1.190642        32.3990 
 128   0.0000       1.199003        32.6265 
 129   0.0000       1.240998        33.7693 
 130   0.0000       1.263756        34.3886 
 131   0.0000       1.290295        35.1107 
 132   0.0000       1.318988        35.8915 
 133   0.0000       1.328190        36.1419 
 134   0.0000       1.330276        36.1986 
 135   0.0000       1.392211        37.8840 
 136   0.0000       1.395386        37.9704 
 137   0.0000       1.409036        38.3418 
 138   0.0000       1.452535        39.5255 
 139   0.0000       1.455501        39.6062 
 140   0.0000       1.475382        40.1472 
 141   0.0000       1.518776        41.3280 
 142   0.0000       1.530371        41.6435 
 143   0.0000       1.623347        44.1735 
 144   0.0000       1.641956        44.6799 
 145   0.0000       1.650401        44.9097 
 146   0.0000       1.651331        44.9350 
 147   0.0000       1.653683        44.9990 
 148   0.0000       1.655552        45.0499 
 149   0.0000       1.682147        45.7735 
 150   0.0000       1.758039        47.8387 
 151   0.0000       1.782249        48.4975 
 152   0.0000       1.789091        48.6836 
 153   0.0000       1.789961        48.7073 
 154   0.0000       1.824767        49.6544 
 155   0.0000       1.826427        49.6996 
 156   0.0000       1.833868        49.9021 
 157   0.0000       1.862358        50.6773 
 158   0.0000       1.866552        50.7915 
 159   0.0000       1.884207        51.2719 
 160   0.0000       1.899979        51.7011 
 161   0.0000       1.903808        51.8052 
 162   0.0000       1.908000        51.9193 
 163   0.0000       1.916030        52.1378 
 164   0.0000       1.922430        52.3120 
 165   0.0000       1.928568        52.4790 
 166   0.0000       1.942954        52.8705 
 167   0.0000       1.943147        52.8757 
 168   0.0000       1.951247        53.0961 
 169   0.0000       1.965290        53.4783 
 170   0.0000       1.970941        53.6320 
 171   0.0000       1.974133        53.7189 
 172   0.0000       1.979583        53.8672 
 173   0.0000       1.981576        53.9214 
 174   0.0000       1.988191        54.1014 
 175   0.0000       2.007137        54.6170 
 176   0.0000       2.013064        54.7782 
 177   0.0000       2.026906        55.1549 
 178   0.0000       2.035179        55.3800 
 179   0.0000       2.069017        56.3008 
 180   0.0000       2.072100        56.3847 
 181   0.0000       2.078469        56.5580 
 182   0.0000       2.090433        56.8836 
 183   0.0000       2.141497        58.2731 
 184   0.0000       2.148598        58.4663 
 185   0.0000       2.171734        59.0959 
 186   0.0000       2.186280        59.4917 
 187   0.0000       2.252486        61.2933 
 188   0.0000       2.254782        61.3557 
 189   0.0000       2.258886        61.4674 
 190   0.0000       2.278411        61.9987 
 191   0.0000       2.355541        64.0975 
 192   0.0000       2.366483        64.3953 
 193   0.0000       2.376531        64.6687 
 194   0.0000       2.378616        64.7254 
 195   0.0000       2.428184        66.0742 
 196   0.0000       2.452693        66.7412 
 197   0.0000       2.474365        67.3309 
 198   0.0000       2.498194        67.9793 
 199   0.0000       2.512375        68.3652 
 200   0.0000       2.517279        68.4986 
 201   0.0000       2.522417        68.6384 
 202   0.0000       2.545630        69.2701 
 203   0.0000       2.558495        69.6202 
 204   0.0000       2.598465        70.7078 
 205   0.0000       2.600615        70.7663 
 206   0.0000       2.607465        70.9527 
 207   0.0000       2.613343        71.1127 
 208   0.0000       2.675638        72.8078 
 209   0.0000       2.676950        72.8435 
 210   0.0000       2.692150        73.2571 
 211   0.0000       2.700003        73.4708 
 212   0.0000       2.795860        76.0792 
 213   0.0000       2.802783        76.2676 
 214   0.0000       2.821532        76.7778 
 215   0.0000       2.826198        76.9048 
 216   0.0000       2.861803        77.8736 
 217   0.0000       2.879608        78.3581 
 218   0.0000       2.916273        79.3558 
 219   0.0000       2.945936        80.1630 
 220   0.0000       2.951350        80.3103 
 221   0.0000       2.963057        80.6289 
 222   0.0000       2.978436        81.0474 
 223   0.0000       2.996993        81.5523 
 224   0.0000       3.004468        81.7557 
 225   0.0000       3.031105        82.4806 
 226   0.0000       3.032288        82.5127 
 227   0.0000       3.033895        82.5565 
 228   0.0000       3.063988        83.3753 
 229   0.0000       3.087752        84.0220 
 230   0.0000       3.121207        84.9324 
 231   0.0000       3.144390        85.5632 
 232   0.0000       3.148456        85.6738 
 233   0.0000       3.148717        85.6809 
 234   0.0000       3.165638        86.1414 
 235   0.0000       3.299427        89.7820 
 236   0.0000       3.480738        94.7157 
 237   0.0000       3.605676        98.1154 
 238   0.0000       3.632383        98.8422 

                    ********************************
                    * MULLIKEN POPULATION ANALYSIS *
                    ********************************

-----------------------
MULLIKEN ATOMIC CHARGES
-----------------------
   0 N :   -0.165062
   1 C :    0.217210
   2 N :   -0.173149
   3 H :    0.127293
   4 C :    0.072493
   5 C :    0.055639
   6 C :   -0.062895
   7 C :   -0.056501
   8 C :    0.006651
   9 H :    0.075903
  10 C :    0.006405
  11 C :    0.003088
  12 C :    0.003044
  13 H :    0.076686
  14 H :    0.091818
  15 H :    0.094812
  16 H :    0.058385
  17 H :    0.045779
  18 H :    0.051976
  19 H :    0.045811
  20 H :    0.058434
  21 H :    0.052015
  22 H :    0.046454
  23 H :    0.057747
  24 H :    0.052886
  25 H :    0.052859
  26 H :    0.057780
  27 H :    0.046439
Sum of atomic charges:    1.0000000

--------------------------------
MULLIKEN REDUCED ORBITAL CHARGES
--------------------------------
  0 N s       :     3.378314  s :     3.378314
      pz      :     1.153114  p :     3.752649
      px      :     1.150143
      py      :     1.449393
      dz2     :     0.007634  d :     0.034099
      dxz     :     0.009765
      dyz     :     0.006518
      dx2y2   :     0.004201
      dxy     :     0.005980
  1 C s       :     3.098235  s :     3.098235
      pz      :     0.908991  p :     2.617125
      px      :     0.771569
      py      :     0.936565
      dz2     :     0.013241  d :     0.067430
      dxz     :     0.021925
      dyz     :     0.006672
      dx2y2   :     0.009313
      dxy     :     0.016278
  2 N s       :     3.381725  s :     3.381725
      pz      :     1.134157  p :     3.757632
      px      :     1.166708
      py      :     1.456767
      dz2     :     0.005784  d :     0.033792
      dxz     :     0.011423
      dyz     :     0.006941
      dx2y2   :     0.004320
      dxy     :     0.005324
  3 H s       :     0.847686  s :     0.847686
      pz      :     0.018883  p :     0.025021
      px      :     0.001675
      py      :     0.004464
  4 C s       :     3.140573  s :     3.140573
      pz      :     0.812169  p :     2.738151
      px      :     0.896606
      py      :     1.029376
      dz2     :     0.013248  d :     0.048783
      dxz     :     0.014980
      dyz     :     0.007410
      dx2y2   :     0.004818
      dxy     :     0.008326
  5 C s       :     3.143998  s :     3.143998
      pz      :     0.786436  p :     2.752216
      px      :     0.925143
      py      :     1.040637
      dz2     :     0.016187  d :     0.048146
      dxz     :     0.011484
      dyz     :     0.008761
      dx2y2   :     0.005040
      dxy     :     0.006674
  6 C s       :     3.122360  s :     3.122360
      pz      :     1.030085  p :     2.884192
      px      :     0.807618
      py      :     1.046489
      dz2     :     0.010177  d :     0.056343
      dxz     :     0.011629
      dyz     :     0.006465
      dx2y2   :     0.015702
      dxy     :     0.012369
  7 C s       :     3.119821  s :     3.119821
      pz      :     1.086311  p :     2.880424
      px      :     0.751612
      py      :     1.042501
      dz2     :     0.011129  d :     0.056257
      dxz     :     0.007825
      dyz     :     0.009071
      dx2y2   :     0.018508
      dxy     :     0.009725
  8 C s       :     2.991799  s :     2.991799
      pz      :     1.025637  p :     2.975206
      px      :     1.006286
      py      :     0.943284
      dz2     :     0.007348  d :     0.026344
      dxz     :     0.005040
      dyz     :     0.002489
      dx2y2   :     0.004861
      dxy     :     0.006605
  9 H s       :     0.902759  s :     0.902759
      pz      :     0.015738  p :     0.021338
      px      :     0.002267
      py      :     0.003332
 10 C s       :     2.991886  s :     2.991886
      pz      :     1.025132  p :     2.975367
      px      :     1.006103
      py      :     0.944132
      dz2     :     0.007386  d :     0.026343
      dxz     :     0.005066
      dyz     :     0.002433
      dx2y2   :     0.004856
      dxy     :     0.006602
 11 C s       :     2.994710  s :     2.994710
      pz      :     1.004988  p :     2.975827
      px      :     1.027265
      py      :     0.943573
      dz2     :     0.006244  d :     0.026375
      dxz     :     0.003368
      dyz     :     0.006530
      dx2y2   :     0.007665
      dxy     :     0.002568
 12 C s       :     2.994758  s :     2.994758
      pz      :     1.003857  p :     2.975822
      px      :     1.027405
      py      :     0.944560
      dz2     :     0.006314  d :     0.026376
      dxz     :     0.003361
      dyz     :     0.006474
      dx2y2   :     0.007654
      dxy     :     0.002573
 13 H s       :     0.901970  s :     0.901970
      pz      :     0.013032  p :     0.021344
      px      :     0.004966
      py      :     0.003346
 14 H s       :     0.883036  s :     0.883036
      pz      :     0.013745  p :     0.025145
      px      :     0.006558
      py      :     0.004842
 15 H s       :     0.879887  s :     0.879887
      pz      :     0.009336  p :     0.025301
      px      :     0.011034
      py      :     0.004931
 16 H s       :     0.916868  s :     0.916868
      pz      :     0.007797  p :     0.024747
      px      :     0.012717
      py      :     0.004233
 17 H s       :     0.929616  s :     0.929616
      pz      :     0.015234  p :     0.024605
      px      :     0.005341
      py      :     0.004031
 18 H s       :     0.923773  s :     0.923773
      pz      :     0.005396  p :     0.024251
      px      :     0.007493
      py      :     0.011362
 19 H s       :     0.929581  s :     0.929581
      pz      :     0.015231  p :     0.024607
      px      :     0.005347
      py      :     0.004030
 20 H s       :     0.916819  s :     0.916819
      pz      :     0.007790  p :     0.024747
      px      :     0.012703
      py      :     0.004253
 21 H s       :     0.923731  s :     0.923731
      pz      :     0.005314  p :     0.024254
      px      :     0.007468
      py      :     0.011471
 22 H s       :     0.928980  s :     0.928980
      pz      :     0.014005  p :     0.024566
      px      :     0.006540
      py      :     0.004021
 23 H s       :     0.917495  s :     0.917495
      pz      :     0.004889  p :     0.024758
      px      :     0.015611
      py      :     0.004258
 24 H s       :     0.922853  s :     0.922853
      pz      :     0.007172  p :     0.024261
      px      :     0.005744
      py      :     0.011345
 25 H s       :     0.922878  s :     0.922878
      pz      :     0.007036  p :     0.024264
      px      :     0.005766
      py      :     0.011463
 26 H s       :     0.917463  s :     0.917463
      pz      :     0.004873  p :     0.024757
      px      :     0.015611
      py      :     0.004272
 27 H s       :     0.928995  s :     0.928995
      pz      :     0.014014  p :     0.024566
      px      :     0.006528
      py      :     0.004024


                     *******************************
                     * LOEWDIN POPULATION ANALYSIS *
                     *******************************

----------------------
LOEWDIN ATOMIC CHARGES
----------------------
   0 N :    0.114899
   1 C :    0.126125
   2 N :    0.109838
   3 H :    0.061800
   4 C :    0.024023
   5 C :    0.015551
   6 C :    0.041901
   7 C :    0.042182
   8 C :   -0.048425
   9 H :    0.049114
  10 C :   -0.048425
  11 C :   -0.048967
  12 C :   -0.048975
  13 H :    0.049217
  14 H :    0.056407
  15 H :    0.054312
  16 H :    0.043105
  17 H :    0.033557
  18 H :    0.035778
  19 H :    0.033556
  20 H :    0.043146
  21 H :    0.035789
  22 H :    0.033488
  23 H :    0.042834
  24 H :    0.035932
  25 H :    0.035918
  26 H :    0.042831
  27 H :    0.033489

-------------------------------
LOEWDIN REDUCED ORBITAL CHARGES
-------------------------------
  0 N s       :     3.043430  s :     3.043430
      pz      :     1.201744  p :     3.763349
      px      :     1.191589
      py      :     1.370016
      dz2     :     0.020138  d :     0.078322
      dxz     :     0.025324
      dyz     :     0.012583
      dx2y2   :     0.010090
      dxy     :     0.010186
  1 C s       :     2.830373  s :     2.830373
      pz      :     1.025852  p :     2.885589
      px      :     0.899396
      py      :     0.960342
      dz2     :     0.031567  d :     0.157913
      dxz     :     0.058118
      dyz     :     0.010711
      dx2y2   :     0.023929
      dxy     :     0.033588
  2 N s       :     3.043607  s :     3.043607
      pz      :     1.199677  p :     3.768852
      px      :     1.193161
      py      :     1.376015
      dz2     :     0.015882  d :     0.077703
      dxz     :     0.030087
      dyz     :     0.013355
      dx2y2   :     0.009384
      dxy     :     0.008995
  3 H s       :     0.861467  s :     0.861467
      pz      :     0.053354  p :     0.076733
      px      :     0.008479
      py      :     0.014900
  4 C s       :     2.847809  s :     2.847809
      pz      :     0.951854  p :     3.007620
      px      :     1.031987
      py      :     1.023779
      dz2     :     0.034328  d :     0.120548
      dxz     :     0.041634
      dyz     :     0.013836
      dx2y2   :     0.013708
      dxy     :     0.017043
  5 C s       :     2.845738  s :     2.845738
      pz      :     0.922155  p :     3.019517
      px      :     1.065100
      py      :     1.032262
      dz2     :     0.042974  d :     0.119194
      dxz     :     0.032152
      dyz     :     0.017586
      dx2y2   :     0.014016
      dxy     :     0.012466
  6 C s       :     2.832185  s :     2.832185
      pz      :     1.036647  p :     2.995941
      px      :     0.891640
      py      :     1.067654
      dz2     :     0.026595  d :     0.129973
      dxz     :     0.026681
      dyz     :     0.012227
      dx2y2   :     0.033922
      dxy     :     0.030548
  7 C s       :     2.831955  s :     2.831955
      pz      :     1.082513  p :     2.996176
      px      :     0.846365
      py      :     1.067298
      dz2     :     0.024532  d :     0.129687
      dxz     :     0.019497
      dyz     :     0.021996
      dx2y2   :     0.043099
      dxy     :     0.020563
  8 C s       :     2.828777  s :     2.828777
      pz      :     1.072959  p :     3.149175
      px      :     1.059354
      py      :     1.016862
      dz2     :     0.019742  d :     0.070473
      dxz     :     0.013048
      dyz     :     0.005917
      dx2y2   :     0.013095
      dxy     :     0.018670
  9 H s       :     0.883766  s :     0.883766
      pz      :     0.043805  p :     0.067120
      px      :     0.009554
      py      :     0.013761
 10 C s       :     2.828743  s :     2.828743
      pz      :     1.072461  p :     3.149210
      px      :     1.059172
      py      :     1.017577
      dz2     :     0.019805  d :     0.070472
      dxz     :     0.013122
      dyz     :     0.005824
      dx2y2   :     0.013054
      dxy     :     0.018667
 11 C s       :     2.829082  s :     2.829082
      pz      :     1.056182  p :     3.149292
      px      :     1.075908
      py      :     1.017203
      dz2     :     0.015945  d :     0.070592
      dxz     :     0.008832
      dyz     :     0.017747
      dx2y2   :     0.021211
      dxy     :     0.006856
 12 C s       :     2.829089  s :     2.829089
      pz      :     1.055364  p :     3.149295
      px      :     1.075982
      py      :     1.017949
      dz2     :     0.016100  d :     0.070591
      dxz     :     0.008813
      dyz     :     0.017650
      dx2y2   :     0.021159
      dxy     :     0.006867
 13 H s       :     0.883687  s :     0.883687
      pz      :     0.037630  p :     0.067096
      px      :     0.015595
      py      :     0.013870
 14 H s       :     0.868899  s :     0.868899
      pz      :     0.038961  p :     0.074694
      px      :     0.019691
      py      :     0.016043
 15 H s       :     0.870006  s :     0.870006
      pz      :     0.028255  p :     0.075683
      px      :     0.031040
      py      :     0.016387
 16 H s       :     0.888934  s :     0.888934
      pz      :     0.020611  p :     0.067961
      px      :     0.034590
      py      :     0.012760
 17 H s       :     0.898047  s :     0.898047
      pz      :     0.040560  p :     0.068396
      px      :     0.015188
      py      :     0.012648
 18 H s       :     0.896430  s :     0.896430
      pz      :     0.014416  p :     0.067792
      px      :     0.020594
      py      :     0.032782
 19 H s       :     0.898042  s :     0.898042
      pz      :     0.040571  p :     0.068402
      px      :     0.015214
      py      :     0.012618
 20 H s       :     0.888893  s :     0.888893
      pz      :     0.020614  p :     0.067960
      px      :     0.034559
      py      :     0.012787
 21 H s       :     0.896416  s :     0.896416
      pz      :     0.014209  p :     0.067795
      px      :     0.020535
      py      :     0.033051
 22 H s       :     0.898250  s :     0.898250
      pz      :     0.038123  p :     0.068263
      px      :     0.017528
      py      :     0.012612
 23 H s       :     0.889229  s :     0.889229
      pz      :     0.013325  p :     0.067937
      px      :     0.041790
      py      :     0.012822
 24 H s       :     0.896252  s :     0.896252
      pz      :     0.019574  p :     0.067817
      px      :     0.015497
      py      :     0.032745
 25 H s       :     0.896263  s :     0.896263
      pz      :     0.019236  p :     0.067818
      px      :     0.015550
      py      :     0.033033
 26 H s       :     0.889231  s :     0.889231
      pz      :     0.013312  p :     0.067939
      px      :     0.041793
      py      :     0.012834
 27 H s       :     0.898248  s :     0.898248
      pz      :     0.038178  p :     0.068262
      px      :     0.017494
      py      :     0.012590


                      *****************************
                      * MAYER POPULATION ANALYSIS *
                      *****************************

  NA   - Mulliken gross atomic population
  ZA   - Total nuclear charge
  QA   - Mulliken gross atomic charge
  VA   - Mayer's total valence
  BVA  - Mayer's bonded valence
  FA   - Mayer's free valence

  ATOM       NA         ZA         QA         VA         BVA        FA
  0 N      7.1651     7.0000    -0.1651     3.4391     3.4391    -0.0000
  1 C      5.7828     6.0000     0.2172     3.8609     3.8609     0.0000
  2 N      7.1731     7.0000    -0.1731     3.4242     3.4242     0.0000
  3 H      0.8727     1.0000     0.1273     0.9974     0.9974     0.0000
  4 C      5.9275     6.0000     0.0725     3.8662     3.8662     0.0000
  5 C      5.9444     6.0000     0.0556     3.8586     3.8586     0.0000
  6 C      6.0629     6.0000    -0.0629     4.0775     4.0775    -0.0000
  7 C      6.0565     6.0000    -0.0565     4.0630     4.0630    -0.0000
  8 C      5.9933     6.0000     0.0067     3.9432     3.9432     0.0000
  9 H      0.9241     1.0000     0.0759     0.9770     0.9770    -0.0000
 10 C      5.9936     6.0000     0.0064     3.9434     3.9434    -0.0000
 11 C      5.9969     6.0000     0.0031     3.9512     3.9512    -0.0000
 12 C      5.9970     6.0000     0.0030     3.9511     3.9511     0.0000
 13 H      0.9233     1.0000     0.0767     0.9772     0.9772     0.0000
 14 H      0.9082     1.0000     0.0918     0.9976     0.9976    -0.0000
 15 H      0.9052     1.0000     0.0948     0.9977     0.9977    -0.0000
 16 H      0.9416     1.0000     0.0584     0.9962     0.9962    -0.0000
 17 H      0.9542     1.0000     0.0458     1.0014     1.0014    -0.0000
 18 H      0.9480     1.0000     0.0520     0.9929     0.9929    -0.0000
 19 H      0.9542     1.0000     0.0458     1.0014     1.0014     0.0000
 20 H      0.9416     1.0000     0.0584     0.9962     0.9962     0.0000
 21 H      0.9480     1.0000     0.0520     0.9929     0.9929    -0.0000
 22 H      0.9535     1.0000     0.0465     1.0003     1.0003     0.0000
 23 H      0.9423     1.0000     0.0577     0.9962     0.9962     0.0000
 24 H      0.9471     1.0000     0.0529     0.9924     0.9924    -0.0000
 25 H      0.9471     1.0000     0.0529     0.9924     0.9924    -0.0000
[...]
     31      -0.028441   0.000741   0.026379   0.000010  -0.000146   0.000121
     32      -0.017209   0.000604   0.024171   0.000094   0.000708  -0.000563
     33       0.000054  -0.057147   0.001547  -0.000319   0.000040  -0.000115
     34       0.000038  -0.027476   0.000692   0.000173  -0.000008   0.000033
     35       0.000027  -0.018208   0.000423   0.000575  -0.000065   0.000065
     36      -0.000069  -0.058372   0.001574  -0.000325   0.000040  -0.000116
     37       0.000048   0.028233  -0.000708  -0.000189   0.000010  -0.000034
     38      -0.000035  -0.018018   0.000417   0.000593  -0.000067   0.000067
     39      -0.000005   0.011193  -0.000689  -0.001104  -0.003785  -0.003181
     40       0.000009   0.000176  -0.000012   0.000016  -0.000030  -0.000009
     41       0.000011  -0.019503   0.001277  -0.001963   0.004310   0.002218
     42      -0.000004  -0.000581  -0.000243   0.004680  -0.371904  -0.406685
     43       0.000030  -0.000005  -0.000001   0.000046  -0.003719  -0.004000
     44       0.000004   0.000633   0.000245  -0.006573   0.564874   0.607435
     45       0.000022  -0.000791   0.001411  -0.106076  -0.538984   0.500254
     46      -0.000173   0.000005  -0.000006   0.000641   0.003264  -0.002979
     47       0.000020  -0.000708   0.001245  -0.094790  -0.484088   0.442082
     48       0.469734   0.012495   0.480061   0.000468   0.001073  -0.001223
     49      -0.012164  -0.000309  -0.012970  -0.000220   0.000155  -0.000093
     50      -0.285524  -0.007605  -0.290792  -0.000212  -0.000993   0.000970
     51      -0.015646  -0.000647  -0.027137  -0.000580  -0.001753   0.001317
     52      -0.001835  -0.000006   0.000319   0.000301   0.000255  -0.000115
     53      -0.039750  -0.002081  -0.090545  -0.001839  -0.007349   0.005779
     54       0.240412   0.005805   0.210594  -0.000084  -0.001274   0.000943
     55       0.366861   0.008833   0.320514  -0.000137  -0.001989   0.001443
     56       0.112960   0.002712   0.098882   0.000016  -0.000546   0.000393
     57       0.014412  -0.000652  -0.027150  -0.000588  -0.001802   0.001356
     58      -0.002348   0.000035   0.000879  -0.000277  -0.000167   0.000047
     59       0.035246  -0.002079  -0.090093  -0.001890  -0.007612   0.005985
     60      -0.455598   0.012980   0.492922   0.000471   0.001117  -0.001256
     61      -0.014822   0.000408   0.016586   0.000223  -0.000142   0.000081
     62       0.276365  -0.007883  -0.297954  -0.000212  -0.001013   0.000983
     63      -0.234793   0.006063   0.217479  -0.000094  -0.001295   0.000957
     64       0.360177  -0.009275  -0.332750   0.000151   0.002032  -0.001472
     65      -0.106337   0.002730   0.098437   0.000011  -0.000531   0.000380
     66       0.000034   0.023329  -0.000867   0.002259  -0.000346   0.000259
     67       0.000009  -0.000449  -0.000014   0.000413  -0.000273  -0.000120
     68      -0.000049  -0.066094   0.002294  -0.006333   0.001290  -0.000523
     69      -0.000468   0.544317  -0.014901   0.002200  -0.001170   0.000400
     70       0.000027  -0.014299   0.000418   0.000069   0.000287   0.000157
     71      -0.000054   0.059711  -0.001662  -0.000084  -0.000216  -0.000087
     72      -0.000120   0.115119  -0.002913  -0.000718   0.000046  -0.000092
     73      -0.000375   0.342349  -0.008687  -0.002077   0.000080  -0.000308
     74      -0.000253   0.222986  -0.005663  -0.001255  -0.000019  -0.000217
     75       0.000163   0.119059  -0.003002  -0.000748   0.000051  -0.000091
     76      -0.000500  -0.353477   0.008937   0.002143  -0.000085   0.000307
     77       0.000321   0.221015  -0.005592  -0.001235  -0.000016  -0.000206
     78       0.000615   0.554935  -0.015125   0.002241  -0.001173   0.000407
     79       0.000031   0.014960  -0.000435  -0.000063  -0.000286  -0.000155
     80       0.000069   0.060015  -0.001664  -0.000083  -0.000221  -0.000089
     81      -0.000037   0.023328  -0.000865   0.002389  -0.000356   0.000271
     82       0.000009   0.001805  -0.000034  -0.000223   0.000242   0.000137
     83       0.000052  -0.066746   0.002310  -0.006571   0.001315  -0.000541


-----------
IR SPECTRUM
-----------

 Mode   freq       eps      Int      T**2         TX        TY        TZ
       cm**-1   L/(mol*cm) km/mol    a.u.
----------------------------------------------------------------------------
  6:     22.44   0.000055    0.28  0.000766  ( 0.000019 -0.027678 -0.000542)
  7:     55.11   0.000002    0.01  0.000009  (-0.000069 -0.003013 -0.000043)
  8:    110.49   0.000052    0.26  0.000147  (-0.000071  0.012112 -0.000004)
  9:    148.24   0.000087    0.44  0.000182  ( 0.010743  0.000064 -0.008166)
 10:    165.72   0.000000    0.00  0.000000  (-0.000067 -0.000425  0.000102)
 11:    244.12   0.000004    0.02  0.000005  (-0.001677 -0.000136 -0.001503)
 12:    248.04   0.000002    0.01  0.000002  (-0.000141 -0.001419  0.000470)
 13:    250.72   0.000010    0.05  0.000013  ( 0.000078 -0.003594 -0.000035)
 14:    276.30   0.000035    0.18  0.000040  ( 0.002319 -0.000175 -0.005857)
 15:    294.13   0.000019    0.10  0.000020  ( 0.001109  0.000006 -0.004381)
 16:    333.54   0.000023    0.12  0.000022  (-0.001133 -0.000089  0.004505)
 17:    347.23   0.000057    0.29  0.000052  (-0.006159  0.000005  0.003686)
 18:    397.77   0.000174    0.88  0.000137  (-0.000045 -0.011686 -0.000080)
 19:    450.36   0.000003    0.01  0.000002  (-0.000034  0.001325 -0.000046)
 20:    493.28   0.000196    0.99  0.000124  ( 0.001926  0.000156 -0.010962)
 21:    499.22   0.000050    0.25  0.000031  ( 0.005179  0.000121  0.002139)
 22:    632.93   0.000049    0.25  0.000024  (-0.003233  0.000015  0.003674)
 23:    682.72   0.014488   73.22  0.006622  ( 0.000570 -0.081376 -0.000305)
 24:    685.08   0.000406    2.05  0.000185  (-0.000491  0.013598 -0.000002)
 25:    686.27   0.000879    4.44  0.000400  (-0.018492 -0.002932 -0.007024)
 26:    771.64   0.009287   46.93  0.003756  (-0.000035  0.061285  0.000326)
 27:    897.83   0.005362   27.10  0.001864  ( 0.000048  0.043169  0.000300)
 28:    915.90   0.000338    1.71  0.000115  ( 0.003067  0.000125 -0.010280)
 29:    917.04   0.000684    3.46  0.000233  (-0.011327 -0.000373  0.010210)
 30:    919.22   0.000274    1.39  0.000093  ( 0.000112 -0.009646 -0.000166)
 31:    939.99   0.000420    2.12  0.000139  ( 0.000183 -0.011795 -0.000349)
 32:    945.39   0.000610    3.08  0.000201  ( 0.000001 -0.014190 -0.000156)
 33:    964.65   0.000057    0.29  0.000018  ( 0.000013  0.004292  0.000037)
 34:    965.45   0.000385    1.95  0.000124  (-0.000087  0.011155  0.000128)
 35:   1030.35   0.003322   16.79  0.001006  ( 0.031358  0.000004 -0.004789)
 36:   1042.64   0.000362    1.83  0.000108  (-0.008804 -0.000013 -0.005552)
 37:   1100.98   0.000453    2.29  0.000129  ( 0.000186 -0.000154  0.011334)
 38:   1109.73   0.004637   23.43  0.001304  (-0.001140  0.000111 -0.036091)
 39:   1134.87   0.000094    0.47  0.000026  ( 0.001868 -0.000022  0.004718)
 40:   1169.01   0.018664   94.32  0.004982  ( 0.067874 -0.000042 -0.019376)
 41:   1174.63   0.000144    0.73  0.000038  (-0.000786  0.006123  0.000298)
 42:   1175.91   0.004163   21.04  0.001105  (-0.000300 -0.033236 -0.000082)
 43:   1196.61   0.001118    5.65  0.000292  ( 0.015993  0.000015  0.005993)
 44:   1217.38   0.035807  180.95  0.009179  ( 0.095786  0.000071 -0.001917)
 45:   1269.54   0.000251    1.27  0.000062  (-0.001410 -0.000057  0.007721)
 46:   1344.79   0.010797   54.56  0.002505  ( 0.048590 -0.000025 -0.012022)
 47:   1346.81   0.000104    0.52  0.000024  (-0.000904 -0.004811  0.000238)
 48:   1350.90   0.000023    0.12  0.000005  ( 0.000806 -0.002167 -0.000200)
 49:   1377.46   0.000796    4.02  0.000180  ( 0.006107  0.000308 -0.011952)
 50:   1399.50   0.001530    7.73  0.000341  (-0.008867  0.001561 -0.016130)
 51:   1403.27   0.003529   17.83  0.000785  (-0.000005  0.027999  0.000940)
 52:   1405.13   0.004803   24.27  0.001067  (-0.000832 -0.032644 -0.000643)
 53:   1409.12   0.001144    5.78  0.000253  (-0.015912  0.000246  0.000158)
 54:   1412.97   0.010627   53.71  0.002347  ( 0.036646 -0.000535  0.031683)
 55:   1445.69   0.000004    0.02  0.000001  (-0.000150  0.000400  0.000859)
 56:   1449.03   0.000038    0.19  0.000008  (-0.000051 -0.002847 -0.000063)
 57:   1455.61   0.000416    2.10  0.000089  (-0.000068 -0.009443 -0.000301)
 58:   1458.33   0.003141   15.87  0.000672  (-0.012005  0.000446 -0.022974)
 59:   1459.67   0.000371    1.88  0.000079  (-0.000141  0.008764  0.001594)
 60:   1462.25   0.004362   22.04  0.000931  (-0.007414 -0.000582  0.029590)
 61:   1468.32   0.001047    5.29  0.000222  ( 0.011554  0.000210 -0.009431)
 62:   1470.28   0.003067   15.50  0.000651  ( 0.005897  0.000150 -0.024822)
 63:   1495.56   0.000128    0.65  0.000027  ( 0.001507 -0.000071  0.004936)
 64:   1514.58   0.001414    7.15  0.000291  ( 0.016035 -0.000054  0.005856)
 65:   1646.57   0.018501   93.50  0.003506  (-0.057039 -0.000092  0.015905)
 66:   1648.83   0.018193   91.94  0.003443  ( 0.057794 -0.000050  0.010160)
 67:   3072.16   0.002780   14.05  0.000282  ( 0.000113 -0.016802  0.000115)
 68:   3072.38   0.002943   14.87  0.000299  ( 0.000291  0.017285  0.000345)
 69:   3073.99   0.001515    7.66  0.000154  (-0.004974 -0.000231 -0.011359)
 70:   3074.25   0.001108    5.60  0.000112  (-0.008881  0.000625 -0.005760)
 71:   3138.86   0.000491    2.48  0.000049  (-0.000568  0.000047 -0.006961)
 72:   3142.60   0.000599    3.03  0.000059  ( 0.003965  0.000097 -0.006614)
 73:   3175.63   0.000859    4.34  0.000084  (-0.000280  0.009172  0.000429)
 74:   3175.96   0.000860    4.35  0.000085  (-0.000040  0.009183 -0.000428)
 75:   3179.20   0.005312   26.85  0.000521  (-0.003714 -0.000058 -0.022531)
 76:   3179.48   0.005192   26.24  0.000510  (-0.012140 -0.000356  0.019028)
 77:   3187.99   0.001325    6.70  0.000130  (-0.000160 -0.011388 -0.000156)
 78:   3188.51   0.001233    6.23  0.000121  (-0.000223 -0.010983  0.000079)
 79:   3189.75   0.003250   16.42  0.000318  (-0.017180  0.000140 -0.004769)
 80:   3190.23   0.002903   14.67  0.000284  (-0.015325  0.000126  0.007009)
 81:   3297.25   0.012125   61.28  0.001148  (-0.005708  0.000232 -0.033391)
 82:   3298.30   0.005274   26.65  0.000499  (-0.021880 -0.000016  0.004493)
 83:   3316.02   0.003183   16.09  0.000300  ( 0.001147 -0.000120  0.017269)

* The epsilon (eps) is given for a Dirac delta lineshape.
** The dipole moment derivative (T) already includes vibrational overlap.

The first frequency considered to be a vibration is 6
The total number of vibrations considered is 78


--------------------------
THERMOCHEMISTRY AT 298.15K
--------------------------

Temperature         ... 298.15 K
Pressure            ... 1.00 atm
Total Mass          ... 153.25 AMU

Throughout the following assumptions are being made:
  (1) The electronic state is orbitally nondegenerate
  (2) There are no thermally accessible electronically excited states
  (3) Hindered rotations indicated by low frequency modes are not
      treated as such but are treated as vibrations and this may
      cause some error
  (4) All equations used are the standard statistical mechanics
      equations for an ideal gas
  (5) All vibrations are strictly harmonic

freq.      22.44  E(vib)   ...       0.56 
freq.      55.11  E(vib)   ...       0.52 
freq.     110.49  E(vib)   ...       0.45 
freq.     148.24  E(vib)   ...       0.41 
freq.     165.72  E(vib)   ...       0.39 
freq.     244.12  E(vib)   ...       0.31 
freq.     248.04  E(vib)   ...       0.31 
freq.     250.72  E(vib)   ...       0.30 
freq.     276.30  E(vib)   ...       0.28 
freq.     294.13  E(vib)   ...       0.27 
freq.     333.54  E(vib)   ...       0.24 
freq.     347.23  E(vib)   ...       0.23 
freq.     397.77  E(vib)   ...       0.20 
freq.     450.36  E(vib)   ...       0.17 
freq.     493.28  E(vib)   ...       0.14 
freq.     499.22  E(vib)   ...       0.14 
freq.     632.93  E(vib)   ...       0.09 
freq.     682.72  E(vib)   ...       0.08 
freq.     685.08  E(vib)   ...       0.07 
freq.     686.27  E(vib)   ...       0.07 
freq.     771.64  E(vib)   ...       0.05 
freq.     897.83  E(vib)   ...       0.03 
freq.     915.90  E(vib)   ...       0.03 
freq.     917.04  E(vib)   ...       0.03 
freq.     919.22  E(vib)   ...       0.03 
freq.     939.99  E(vib)   ...       0.03 
freq.     945.39  E(vib)   ...       0.03 
freq.     964.65  E(vib)   ...       0.03 
freq.     965.45  E(vib)   ...       0.03 
freq.    1030.35  E(vib)   ...       0.02 
freq.    1042.64  E(vib)   ...       0.02 
freq.    1100.98  E(vib)   ...       0.02 
freq.    1109.73  E(vib)   ...       0.02 
freq.    1134.87  E(vib)   ...       0.01 
freq.    1169.01  E(vib)   ...       0.01 
freq.    1174.63  E(vib)   ...       0.01 
freq.    1175.91  E(vib)   ...       0.01 
freq.    1196.61  E(vib)   ...       0.01 
freq.    1217.38  E(vib)   ...       0.01 
freq.    1269.54  E(vib)   ...       0.01 
freq.    1344.79  E(vib)   ...       0.01 
freq.    1346.81  E(vib)   ...       0.01 
freq.    1350.90  E(vib)   ...       0.01 
freq.    1377.46  E(vib)   ...       0.01 
freq.    1399.50  E(vib)   ...       0.00 
freq.    1403.27  E(vib)   ...       0.00 
freq.    1405.13  E(vib)   ...       0.00 
freq.    1409.12  E(vib)   ...       0.00 
freq.    1412.97  E(vib)   ...       0.00 
freq.    1445.69  E(vib)   ...       0.00 
freq.    1449.03  E(vib)   ...       0.00 
freq.    1455.61  E(vib)   ...       0.00 
freq.    1458.33  E(vib)   ...       0.00 
freq.    1459.67  E(vib)   ...       0.00 
freq.    1462.25  E(vib)   ...       0.00 
freq.    1468.32  E(vib)   ...       0.00 
freq.    1470.28  E(vib)   ...       0.00 
freq.    1495.56  E(vib)   ...       0.00 
freq.    1514.58  E(vib)   ...       0.00 
freq.    1646.57  E(vib)   ...       0.00 
freq.    1648.83  E(vib)   ...       0.00 
freq.    3072.16  E(vib)   ...       0.00 
freq.    3072.38  E(vib)   ...       0.00 
freq.    3073.99  E(vib)   ...       0.00 
freq.    3074.25  E(vib)   ...       0.00 
freq.    3138.86  E(vib)   ...       0.00 
freq.    3142.60  E(vib)   ...       0.00 
freq.    3175.63  E(vib)   ...       0.00 
freq.    3175.96  E(vib)   ...       0.00 
freq.    3179.20  E(vib)   ...       0.00 
freq.    3179.48  E(vib)   ...       0.00 
freq.    3187.99  E(vib)   ...       0.00 
freq.    3188.51  E(vib)   ...       0.00 
freq.    3189.75  E(vib)   ...       0.00 
freq.    3190.23  E(vib)   ...       0.00 
freq.    3297.25  E(vib)   ...       0.00 
freq.    3298.30  E(vib)   ...       0.00 
freq.    3316.02  E(vib)   ...       0.00 

------------
INNER ENERGY
------------

The inner energy is: U= E(el) + E(ZPE) + E(vib) + E(rot) + E(trans)
    E(el)   - is the total energy from the electronic structure calculation
              = E(kin-el) + E(nuc-el) + E(el-el) + E(nuc-nuc)
    E(ZPE)  - the the zero temperature vibrational energy from the frequency calculation
    E(vib)  - the the finite temperature correction to E(ZPE) due to population
              of excited vibrational states
    E(rot)  - is the rotational thermal energy
    E(trans)- is the translational thermal energy

Summary of contributions to the inner energy U:
Electronic energy                ...   -462.13623565 Eh
Zero point energy                ...      0.25574639 Eh     160.48 kcal/mol
Thermal vibrational correction   ...      0.00915532 Eh       5.75 kcal/mol
Thermal rotational correction    ...      0.00141627 Eh       0.89 kcal/mol
Thermal translational correction ...      0.00141627 Eh       0.89 kcal/mol
-----------------------------------------------------------------------
Total thermal energy                   -461.86850140 Eh


Summary of corrections to the electronic energy:
(perhaps to be used in another calculation)
Total thermal correction                  0.01198786 Eh       7.52 kcal/mol
Non-thermal (ZPE) correction              0.25574639 Eh     160.48 kcal/mol
-----------------------------------------------------------------------
Total correction                          0.26773426 Eh     168.01 kcal/mol


--------
ENTHALPY
--------

The enthalpy is H = U + kB*T
                kB is Boltzmann's constant
Total free energy                 ...   -461.86850140 Eh 
Thermal Enthalpy correction       ...      0.00094421 Eh       0.59 kcal/mol
-----------------------------------------------------------------------
Total Enthalpy                    ...   -461.86755719 Eh


Note: Only C1 symmetry has been detected, increase convergence thresholds 
      if your molecule has a higher symmetry. Symmetry factor of 1.0 is   
      used for the rotational entropy correction. 
 

Note: Rotational entropy computed according to Herzberg 
Infrared and Raman Spectra, Chapter V,1, Van Nostrand Reinhold, 1945 
Point Group:  C1, Symmetry Number:   1  
Rotational constants in cm-1:     0.078279     0.019053     0.018941 

Vibrational entropy computed according to the QRRHO of S. Grimme
Chem.Eur.J. 2012 18 9955


-------
ENTROPY
-------

The entropy contributions are T*S = T*(S(el)+S(vib)+S(rot)+S(trans))
     S(el)   - electronic entropy
     S(vib)  - vibrational entropy
     S(rot)  - rotational entropy
     S(trans)- translational entropy
The entropies will be listed as multiplied by the temperature to get
units of energy

Electronic entropy                ...      0.00000000 Eh      0.00 kcal/mol
Vibrational entropy               ...      0.01585959 Eh      9.95 kcal/mol
Rotational entropy                ...      0.01445570 Eh      9.07 kcal/mol
Translational entropy             ...      0.01947584 Eh     12.22 kcal/mol
-----------------------------------------------------------------------
Final entropy term                ...      0.04979112 Eh     31.24 kcal/mol

In case the symmetry of your molecule has not been determined correctly
or in case you have a reason to use a different symmetry number we print 
out the resulting rotational entropy values for sn=1,12 :
 --------------------------------------------------------
|  sn= 1 | S(rot)=       0.01445570 Eh      9.07 kcal/mol|
|  sn= 2 | S(rot)=       0.01380124 Eh      8.66 kcal/mol|
|  sn= 3 | S(rot)=       0.01341841 Eh      8.42 kcal/mol|
|  sn= 4 | S(rot)=       0.01314679 Eh      8.25 kcal/mol|
|  sn= 5 | S(rot)=       0.01293610 Eh      8.12 kcal/mol|
|  sn= 6 | S(rot)=       0.01276395 Eh      8.01 kcal/mol|
|  sn= 7 | S(rot)=       0.01261841 Eh      7.92 kcal/mol|
|  sn= 8 | S(rot)=       0.01249233 Eh      7.84 kcal/mol|
|  sn= 9 | S(rot)=       0.01238112 Eh      7.77 kcal/mol|
|  sn=10 | S(rot)=       0.01228164 Eh      7.71 kcal/mol|
|  sn=11 | S(rot)=       0.01219165 Eh      7.65 kcal/mol|
|  sn=12 | S(rot)=       0.01210950 Eh      7.60 kcal/mol|
 --------------------------------------------------------


-------------------
GIBBS FREE ENERGY
-------------------

The Gibbs free energy is G = H - T*S

Total enthalpy                    ...   -461.86755719 Eh 
Total entropy correction          ...     -0.04979112 Eh    -31.24 kcal/mol
-----------------------------------------------------------------------
Final Gibbs free energy         ...   -461.91734831 Eh

For completeness - the Gibbs free energy minus the electronic energy
G-E(el)                           ...      0.21888734 Eh    137.35 kcal/mol


Timings for individual modules:

Sum of individual times         ...     3979.941 sec (=  66.332 min)
GTO integral calculation        ...        2.282 sec (=   0.038 min)   0.1 %
SCF iterations                  ...     1899.450 sec (=  31.658 min)  47.7 %
SCF Gradient evaluation         ...      505.882 sec (=   8.431 min)  12.7 %
Geometry relaxation             ...        0.434 sec (=   0.007 min)   0.0 %
Analytical frequency calculation...     1571.892 sec (=  26.198 min)  39.5 %
                             ****ORCA TERMINATED NORMALLY****
TOTAL RUN TIME: 0 days 1 hours 6 minutes 20 seconds 959 msec
