
                                 *****************
                                 * O   R   C   A *
                                 *****************

                                            #,                                       
                                            ###                                      
                                            ####                                     
                                            #####                                    
                                            ######                                   
                                           ########,                                 
                                     ,,################,,,,,                         
                               ,,#################################,,                 
                          ,,##########################################,,             
                       ,#########################################, ''#####,          
                    ,#############################################,,   '####,        
                  ,##################################################,,,,####,       
                ,###########''''           ''''###############################       
              ,#####''   ,,,,##########,,,,          '''####'''          '####       
            ,##' ,,,,###########################,,,                        '##       
           ' ,,###''''                  '''############,,,                           
         ,,##''                                '''############,,,,        ,,,,,,###''
      ,#''                                            '''#######################'''  
     '                                                          ''''####''''         
             ,#######,   #######,   ,#######,      ##                                
            ,#'     '#,  ##    ##  ,#'     '#,    #''#        ######   ,####,        
            ##       ##  ##   ,#'  ##            #'  '#       #        #'  '#        
            ##       ##  #######   ##           ,######,      #####,   #    #        
            '#,     ,#'  ##    ##  '#,     ,#' ,#      #,         ##   #,  ,#        
             '#######'   ##     ##  '#######'  #'      '#     #####' # '####'        



                  #######################################################
                  #                        -***-                        #
                  #          Department of theory and spectroscopy      #
                  #    Directorship and core code : Frank Neese         #
                  #        Max Planck Institute fuer Kohlenforschung    #
                  #                Kaiser Wilhelm Platz 1               #
                  #                 D-45470 Muelheim/Ruhr               #
                  #                      Germany                        #
                  #                                                     #
                  #                  All rights reserved                #
                  #                        -***-                        #
                  #######################################################


                         Program Version 5.0.4 -  RELEASE  -


 With contributions from (in alphabetic order):
   Daniel Aravena         : Magnetic Suceptibility
   Michael Atanasov       : Ab Initio Ligand Field Theory (pilot matlab implementation)
   Alexander A. Auer      : GIAO ZORA, VPT2 properties, NMR spectrum
   Ute Becker             : Parallelization
   Giovanni Bistoni       : ED, misc. LED, open-shell LED, HFLD
   Martin Brehm           : Molecular dynamics
   Dmytro Bykov           : SCF Hessian
   Vijay G. Chilkuri      : MRCI spin determinant printing, contributions to CSF-ICE
   Dipayan Datta          : RHF DLPNO-CCSD density
   Achintya Kumar Dutta   : EOM-CC, STEOM-CC
   Dmitry Ganyushin       : Spin-Orbit,Spin-Spin,Magnetic field MRCI
   Miquel Garcia          : C-PCM and meta-GGA Hessian, CC/C-PCM, Gaussian charge scheme
   Yang Guo               : DLPNO-NEVPT2, F12-NEVPT2, CIM, IAO-localization
   Andreas Hansen         : Spin unrestricted coupled pair/coupled cluster methods
   Benjamin Helmich-Paris : MC-RPA, TRAH-SCF, COSX integrals
   Lee Huntington         : MR-EOM, pCC
   Robert Izsak           : Overlap fitted RIJCOSX, COSX-SCS-MP3, EOM
   Marcus Kettner         : VPT2
   Christian Kollmar      : KDIIS, OOCD, Brueckner-CCSD(T), CCSD density, CASPT2, CASPT2-K
   Simone Kossmann        : Meta GGA functionals, TD-DFT gradient, OOMP2, MP2 Hessian
   Martin Krupicka        : Initial AUTO-CI
   Lucas Lang             : DCDCAS
   Marvin Lechner         : AUTO-CI (C++ implementation), FIC-MRCC
   Dagmar Lenk            : GEPOL surface, SMD
   Dimitrios Liakos       : Extrapolation schemes; Compound Job, initial MDCI parallelization
   Dimitrios Manganas     : Further ROCIS development; embedding schemes
   Dimitrios Pantazis     : SARC Basis sets
   Anastasios Papadopoulos: AUTO-CI, single reference methods and gradients
   Taras Petrenko         : DFT Hessian,TD-DFT gradient, ASA, ECA, R-Raman, ABS, FL, XAS/XES, NRVS
   Peter Pinski           : DLPNO-MP2, DLPNO-MP2 Gradient
   Christoph Reimann      : Effective Core Potentials
   Marius Retegan         : Local ZFS, SOC
   Christoph Riplinger    : Optimizer, TS searches, QM/MM, DLPNO-CCSD(T), (RO)-DLPNO pert. Triples
   Tobias Risthaus        : Range-separated hybrids, TD-DFT gradient, RPA, STAB
   Michael Roemelt        : Original ROCIS implementation
   Masaaki Saitow         : Open-shell DLPNO-CCSD energy and density
   Barbara Sandhoefer     : DKH picture change effects
   Avijit Sen             : IP-ROCIS
   Kantharuban Sivalingam : CASSCF convergence, NEVPT2, FIC-MRCI
   Bernardo de Souza      : ESD, SOC TD-DFT
   Georgi Stoychev        : AutoAux, RI-MP2 NMR, DLPNO-MP2 response
   Willem Van den Heuvel  : Paramagnetic NMR
   Boris Wezisla          : Elementary symmetry handling
   Frank Wennmohs         : Technical directorship


 We gratefully acknowledge several colleagues who have allowed us to
 interface, adapt or use parts of their codes:
   Stefan Grimme, W. Hujo, H. Kruse, P. Pracht,  : VdW corrections, initial TS optimization,
                  C. Bannwarth, S. Ehlert          DFT functionals, gCP, sTDA/sTD-DF
   Ed Valeev, F. Pavosevic, A. Kumar             : LibInt (2-el integral package), F12 methods
   Garnet Chan, S. Sharma, J. Yang, R. Olivares  : DMRG
   Ulf Ekstrom                                   : XCFun DFT Library
   Mihaly Kallay                                 : mrcc  (arbitrary order and MRCC methods)
   Jiri Pittner, Ondrej Demel                    : Mk-CCSD
   Frank Weinhold                                : gennbo (NPA and NBO analysis)
   Christopher J. Cramer and Donald G. Truhlar   : smd solvation model
   Lars Goerigk                                  : TD-DFT with DH, B97 family of functionals
   V. Asgeirsson, H. Jonsson                     : NEB implementation
   FAccTs GmbH                                   : IRC, NEB, NEB-TS, DLPNO-Multilevel, CI-OPT
                                                   MM, QMMM, 2- and 3-layer-ONIOM, Crystal-QMMM,
                                                   LR-CPCM, SF, NACMEs, symmetry and pop. for TD-DFT,
                                                   nearIR, NL-DFT gradient (VV10), updates on ESD,
                                                   ML-optimized integration grids
   S Lehtola, MJT Oliveira, MAL Marques          : LibXC Library
   Liviu Ungur et al                             : ANISO software


 Your calculation uses the libint2 library for the computation of 2-el integrals
 For citations please refer to: http://libint.valeyev.net

 Your ORCA version has been built with support for libXC version: 5.1.0
 For citations please refer to: https://tddft.org/programs/libxc/

 This ORCA versions uses:
   CBLAS   interface :  Fast vector & matrix operations
   LAPACKE interface :  Fast linear algebra routines
   SCALAPACK package :  Parallel linear algebra routines
   Shared memory     :  Shared parallel matrices
   BLAS/LAPACK       :  OpenBLAS 0.3.15  USE64BITINT DYNAMIC_ARCH NO_AFFINITY SkylakeX SINGLE_THREADED
        Core in use  :  SkylakeX
   Copyright (c) 2011-2014, The OpenBLAS Project




***************************************
The coordinates will be read from file: 4_prot_aq_8.xyz
***************************************


Your calculation utilizes the atom-pairwise dispersion correction
based on tight binding partial charges (D4)
Cite in your paper:
E.Caldeweyher, C.Bannwarth, S.Grimme, J.Chem.Phys., (2017), 147, 034112.
E.Caldeweyher, S.Ehlert, A.Hansen, H.Neugebauer, S.Grimme, J.Chem.Phys., (2018), in progress.
   

XCFun DFT library Copyright 2009-2010 Ulf Ekstrom and contributors.
See http://admol.org/xcfun for more information.
This is free software; see the source code for copying conditions.
There is ABSOLUTELY NO WARRANTY; not even for MERCHANTABILITY or FITNESS FOR A PARTICULAR PURPOSE.
For details see the documentation.
Scientific users of this library should cite U. Ekstrom, L. Visscher, R. Bast, A. J. Thorvaldsen and K. Ruud;
J.Chem.Theor.Comp. 2010, DOI: 10.1021/ct100117s
XCFun Version 0.99 

================================================================================

----- Orbital basis set information -----
Your calculation utilizes the basis: def2-SVP
   F. Weigend and R. Ahlrichs, Phys. Chem. Chem. Phys. 7, 3297 (2005).

----- AuxJ basis set information -----
Your calculation utilizes the auxiliary basis: def2/J
   F. Weigend, Phys. Chem. Chem. Phys. 8, 1057 (2006).

================================================================================
                                        WARNINGS
                       Please study these warnings very carefully!
================================================================================


WARNING: Geometry Optimization
  ===> : Switching off AutoStart
         For restart on a previous wavefunction, please use MOREAD

INFO   : the flag for use of the SHARK integral package has been found!

================================================================================
                                       INPUT FILE
================================================================================
NAME = 4_prot_aq_8.inp
|  1> # ORCA 5.0.4 - /users/bwb16179/postgrad/2024_03/DFT_Crest_Conformers/Opt/prot/4_prot_aq_8.inp # write input file
|  2> # Basic Mode
|  3> #
|  4> ! Opt Freq wB97X Def2-SVP D4 SlowConv TightSCF Defgrid2 Def2/J RIJCOSX CPCM(Water)
|  5> 
|  6> 
|  7> 
|  8> %maxcore 4500
|  9> 
| 10> %geom
| 11> Maxiter 150
| 12> END
| 13> 
| 14> * xyzfile 1 1 4_prot_aq_8.xyz
| 15> 
| 16>                          ****END OF INPUT****
================================================================================

                       *****************************
                       * Geometry Optimization Run *
                       *****************************

Geometry optimization settings:
Update method            Update   .... BFGS
Choice of coordinates    CoordSys .... Z-matrix Internals
Initial Hessian          InHess   .... Almoef's Model

Convergence Tolerances:
Energy Change            TolE     ....  5.0000e-06 Eh
Max. Gradient            TolMAXG  ....  3.0000e-04 Eh/bohr
RMS Gradient             TolRMSG  ....  1.0000e-04 Eh/bohr
Max. Displacement        TolMAXD  ....  4.0000e-03 bohr
RMS Displacement         TolRMSD  ....  2.0000e-03 bohr
Strict Convergence                ....  False
------------------------------------------------------------------------------
                        ORCA OPTIMIZATION COORDINATE SETUP
------------------------------------------------------------------------------

The optimization will be done in new redundant internal coordinates
Making redundant internal coordinates   ...  (new redundants) done
Evaluating the initial hessian          ...  (Almloef) done
Evaluating the coordinates              ...  done
Calculating the B-matrix                .... done
Calculating the G-matrix                .... done
Diagonalizing the G-matrix              .... done
Small eigenvalue found = 1.172e-02
Small eigenvalue found = 2.271e-02
The first mode is                       ....   69
The number of degrees of freedom        ....   78

    -----------------------------------------------------------------
                    Redundant Internal Coordinates


    -----------------------------------------------------------------
         Definition                    Initial Value    Approx d2E/dq
    -----------------------------------------------------------------
      1. B(C   1,N   0)                  1.3300         0.697562   
      2. B(N   2,C   1)                  1.3297         0.698256   
      3. B(H   3,C   1)                  1.0707         0.386620   
      4. B(C   4,N   2)                  1.3611         0.622316   
      5. B(C   5,C   4)                  1.3612         0.694649   
      6. B(C   5,N   0)                  1.3609         0.622816   
      7. B(C   6,N   0)                  1.4600         0.432634   
      8. B(C   7,N   2)                  1.4601         0.432510   
      9. B(C   8,C   6)                  1.5233         0.382825   
     10. B(H   9,C   6)                  1.0946         0.354070   
     11. B(C  10,C   6)                  1.5273         0.377318   
     12. B(C  11,C   7)                  1.5275         0.377084   
     13. B(C  12,C   7)                  1.5230         0.383352   
     14. B(H  13,C   7)                  1.0948         0.353820   
     15. B(H  14,C   4)                  1.0707         0.386551   
     16. B(H  15,C   5)                  1.0707         0.386535   
     17. B(H  16,C   8)                  1.0874         0.363567   
     18. B(H  17,C   8)                  1.0859         0.365506   
     19. B(H  18,C   8)                  1.0867         0.364490   
     20. B(H  19,C  10)                  1.0856         0.365968   
     21. B(H  20,C  10)                  1.0873         0.363692   
     22. B(H  21,C  10)                  1.0874         0.363527   
     23. B(H  22,C  11)                  1.0856         0.365964   
     24. B(H  23,C  11)                  1.0872         0.363765   
     25. B(H  24,C  11)                  1.0875         0.363476   
     26. B(H  25,C  12)                  1.0860         0.365470   
     27. B(H  26,C  12)                  1.0868         0.364375   
     28. B(H  27,C  12)                  1.0874         0.363524   
     29. A(C   1,N   0,C   6)          126.9979         0.410323   
     30. A(C   5,N   0,C   6)          125.0635         0.402185   
     31. A(C   1,N   0,C   5)          107.8522         0.437945   
     32. A(N   0,C   1,H   3)          125.1825         0.362173   
     33. A(N   2,C   1,H   3)          125.2328         0.362234   
     34. A(N   0,C   1,N   2)          109.5847         0.447093   
     35. A(C   1,N   2,C   7)          127.2049         0.410374   
     36. A(C   1,N   2,C   4)          107.8477         0.437960   
     37. A(C   4,N   2,C   7)          124.8626         0.402108   
     38. A(N   2,C   4,H  14)          122.6249         0.355195   
     39. A(C   5,C   4,H  14)          130.0161         0.364167   
     40. A(N   2,C   4,C   5)          107.3587         0.440443   
     41. A(N   0,C   5,C   4)          107.3559         0.440507   
     42. A(N   0,C   5,H  15)          122.6339         0.355241   
     43. A(C   4,C   5,H  15)          130.0101         0.364165   
     44. A(N   0,C   6,C  10)          109.0142         0.370920   
     45. A(C   8,C   6,H   9)          109.3842         0.324723   
     46. A(N   0,C   6,H   9)          106.0634         0.329345   
     47. A(N   0,C   6,C   8)          110.9801         0.371846   
     48. A(H   9,C   6,C  10)          109.3442         0.323951   
     49. A(C   8,C   6,C  10)          111.8774         0.365498   
     50. A(C  12,C   7,H  13)          109.3976         0.324758   
     51. A(C  11,C   7,H  13)          109.3290         0.323880   
     52. A(N   2,C   7,H  13)          106.0705         0.329291   
     53. A(C  11,C   7,C  12)          111.8241         0.365545   
     54. A(N   2,C   7,C  12)          111.0790         0.371916   
     55. A(N   2,C   7,C  11)          108.9653         0.370862   
     56. A(C   6,C   8,H  18)          111.5519         0.326275   
     57. A(H  16,C   8,H  17)          108.0291         0.291961   
     58. A(C   6,C   8,H  17)          109.0579         0.326425   
     59. A(C   6,C   8,H  16)          111.0804         0.326139   
     60. A(H  17,C   8,H  18)          107.6746         0.292077   
     61. A(H  16,C   8,H  18)          109.3222         0.291833   
     62. A(H  19,C  10,H  21)          108.3606         0.292014   
     63. A(C   6,C  10,H  21)          110.7846         0.325357   
     64. A(H  19,C  10,H  20)          108.2787         0.292035   
     65. A(C   6,C  10,H  20)          111.0352         0.325381   
     66. A(H  20,C  10,H  21)          108.8476         0.291728   
     67. A(C   6,C  10,H  19)          109.4587         0.325715   
     68. A(H  23,C  11,H  24)          108.8407         0.291730   
     69. A(H  22,C  11,H  24)          108.3688         0.292007   
     70. A(C   7,C  11,H  24)          110.7497         0.325316   
     71. A(H  22,C  11,H  23)          108.2848         0.292044   
     72. A(C   7,C  11,H  23)          111.0673         0.325358   
     73. A(C   7,C  11,H  22)          109.4544         0.325681   
     74. A(H  26,C  12,H  27)          109.3855         0.291813   
     75. A(H  25,C  12,H  27)          108.0049         0.291951   
     76. A(C   7,C  12,H  27)          111.1155         0.326207   
     77. A(H  25,C  12,H  26)          107.6480         0.292059   
     78. A(C   7,C  12,H  26)          111.5305         0.326332   
     79. A(C   7,C  12,H  25)          109.0291         0.326493   
     80. D(H   3,C   1,N   0,C   5)    179.9073         0.040239   
     81. D(H   3,C   1,N   0,C   6)      3.1710         0.040239   
     82. D(N   2,C   1,N   0,C   6)   -176.8161         0.040239   
     83. D(N   2,C   1,N   0,C   5)     -0.0798         0.040239   
     84. D(C   7,N   2,C   1,H   3)      3.1549         0.040327   
     85. D(C   7,N   2,C   1,N   0)   -176.8580         0.040327   
     86. D(C   4,N   2,C   1,H   3)    179.9124         0.040327   
     87. D(C   4,N   2,C   1,N   0)     -0.1005         0.040327   
     88. D(H  14,C   4,N   2,C   1)   -179.9301         0.031378   
     89. D(C   5,C   4,N   2,C   7)    177.0931         0.031378   
     90. D(H  14,C   4,N   2,C   7)     -3.0775         0.031378   
     91. D(C   5,C   4,N   2,C   1)      0.2405         0.031378   
     92. D(H  15,C   5,N   0,C   1)   -179.8920         0.031432   
     93. D(C   4,C   5,N   0,C   6)    177.0436         0.031432   
     94. D(C   4,C   5,N   0,C   1)      0.2280         0.031432   
     95. D(H  15,C   5,C   4,H  14)      0.0325         0.033942   
     96. D(H  15,C   5,C   4,N   2)    179.8448         0.033942   
     97. D(N   0,C   5,C   4,H  14)    179.9005         0.033942   
     98. D(N   0,C   5,C   4,N   2)     -0.2871         0.033942   
     99. D(H  15,C   5,N   0,C   6)     -3.0764         0.031432   
    100. D(C  10,C   6,N   0,C   5)    -92.1714         0.015958   
    101. D(C  10,C   6,N   0,C   1)     84.0325         0.015958   
    102. D(H   9,C   6,N   0,C   5)     25.4626         0.015958   
    103. D(H   9,C   6,N   0,C   1)   -158.3335         0.015958   
    104. D(C   8,C   6,N   0,C   5)    144.1692         0.015958   
    105. D(C   8,C   6,N   0,C   1)    -39.6268         0.015958   
    106. D(C  12,C   7,N   2,C   4)    147.9360         0.015949   
    107. D(C  11,C   7,N   2,C   4)    -88.4395         0.015949   
    108. D(C  11,C   7,N   2,C   1)     87.7983         0.015949   
    109. D(H  13,C   7,N   2,C   1)   -154.6066         0.015949   
    110. D(C  12,C   7,N   2,C   1)    -35.8262         0.015949   
    111. D(H  13,C   7,N   2,C   4)     29.1557         0.015949   
    112. D(H  18,C   8,C   6,C  10)    -50.0541         0.011672   
    113. D(H  18,C   8,C   6,H   9)   -171.3648         0.011672   
    114. D(H  18,C   8,C   6,N   0)     71.9508         0.011672   
    115. D(H  17,C   8,C   6,C  10)     68.7492         0.011672   
    116. D(H  17,C   8,C   6,H   9)    -52.5615         0.011672   
    117. D(H  17,C   8,C   6,N   0)   -169.2459         0.011672   
    118. D(H  16,C   8,C   6,C  10)   -172.2973         0.011672   
    119. D(H  16,C   8,C   6,H   9)     66.3920         0.011672   
    120. D(H  16,C   8,C   6,N   0)    -50.2925         0.011672   
    121. D(H  21,C  10,C   6,H   9)   -179.4186         0.011355   
    122. D(H  21,C  10,C   6,C   8)     59.2476         0.011355   
    123. D(H  21,C  10,C   6,N   0)    -63.8775         0.011355   
    124. D(H  20,C  10,C   6,H   9)    -58.3426         0.011355   
    125. D(H  20,C  10,C   6,C   8)   -179.6764         0.011355   
    126. D(H  20,C  10,C   6,N   0)     57.1985         0.011355   
    127. D(H  19,C  10,C   6,H   9)     61.1466         0.011355   
    128. D(H  19,C  10,C   6,C   8)    -60.1872         0.011355   
    129. D(H  19,C  10,C   6,N   0)    176.6877         0.011355   
    130. D(H  24,C  11,C   7,C  12)     59.4338         0.011342   
    131. D(H  24,C  11,C   7,N   2)    -63.7467         0.011342   
    132. D(H  23,C  11,C   7,H  13)    -58.1956         0.011342   
    133. D(H  23,C  11,C   7,C  12)   -179.5009         0.011342   
    134. D(H  23,C  11,C   7,N   2)     57.3185         0.011342   
    135. D(H  22,C  11,C   7,H  13)     61.3185         0.011342   
    136. D(H  22,C  11,C   7,C  12)    -59.9868         0.011342   
    137. D(H  24,C  11,C   7,H  13)   -179.2608         0.011342   
    138. D(H  22,C  11,C   7,N   2)    176.8326         0.011342   
    139. D(H  26,C  12,C   7,N   2)     72.1109         0.011702   
    140. D(H  25,C  12,C   7,H  13)    -52.3909         0.011702   
    141. D(H  25,C  12,C   7,C  11)     68.8748         0.011702   
    142. D(H  25,C  12,C   7,N   2)   -169.1502         0.011702   
    143. D(H  27,C  12,C   7,H  13)     66.5358         0.011702   
    144. D(H  27,C  12,C   7,C  11)   -172.1985         0.011702   
    145. D(H  27,C  12,C   7,N   2)    -50.2235         0.011702   
    146. D(H  26,C  12,C   7,H  13)   -171.1298         0.011702   
    147. D(H  26,C  12,C   7,C  11)    -49.8641         0.011702   
    -----------------------------------------------------------------

Number of atoms                         .... 28
Number of degrees of freedom            .... 147

         *************************************************************
         *                GEOMETRY OPTIMIZATION CYCLE   1            *
         *************************************************************
---------------------------------
CARTESIAN COORDINATES (ANGSTROEM)
---------------------------------
  N     -1.085308    0.150311    0.358614
  C     -0.002563   -0.075028   -0.380180
  N      1.079964   -0.032314    0.390873
  H     -0.003049   -0.262322   -1.434327
  C      0.675529    0.231105    1.663504
  C     -0.680998    0.341469    1.643894
  C     -2.474927    0.125764   -0.088703
  C      2.471195   -0.163513   -0.032477
  C     -2.614660    0.754116   -1.469362
  H     -3.037877    0.718783    0.639003
  C     -2.979703   -1.315511   -0.065642
  C      3.005156    1.214928   -0.417065
  C      2.604189   -1.161281   -1.175368
  H      3.019644   -0.534219    0.839500
  H      1.361606    0.318141    2.480899
  H     -1.367060    0.540612    2.441450
  H     -2.130975    1.727285   -1.506944
  H     -3.668662    0.893896   -1.690305
  H     -2.197329    0.115050   -2.242893
  H     -4.029663   -1.335413   -0.340806
  H     -2.878946   -1.748489    0.926625
  H     -2.428215   -1.928901   -0.774232
  H      4.055504    1.135434   -0.679712
  H      2.912336    1.914676    0.409878
  H      2.466520    1.611242   -1.274605
  H      3.656142   -1.378577   -1.335081
  H      2.206032   -0.759960   -2.103548
  H      2.099878   -2.095598   -0.940394

----------------------------
CARTESIAN COORDINATES (A.U.)
----------------------------
  NO LB      ZA    FRAG     MASS         X           Y           Z
   0 N     7.0000    0    14.007   -2.050934    0.284047    0.677682
   1 C     6.0000    0    12.011   -0.004843   -0.141782   -0.718437
   2 N     7.0000    0    14.007    2.040835   -0.061065    0.738644
   3 H     1.0000    0     1.008   -0.005761   -0.495717   -2.710485
   4 C     6.0000    0    12.011    1.276565    0.436725    3.143568
   5 C     6.0000    0    12.011   -1.286900    0.645283    3.106509
   6 C     6.0000    0    12.011   -4.676934    0.237659   -0.167625
   7 C     6.0000    0    12.011    4.669883   -0.308994   -0.061373
   8 C     6.0000    0    12.011   -4.940991    1.425072   -2.776692
   9 H     1.0000    0     1.008   -5.740755    1.358304    1.207540
  10 C     6.0000    0    12.011   -5.630822   -2.485956   -0.124046
  11 C     6.0000    0    12.011    5.678922    2.295880   -0.788138
  12 C     6.0000    0    12.011    4.921204   -2.194503   -2.221123
  13 H     1.0000    0     1.008    5.706301   -1.009527    1.586425
  14 H     1.0000    0     1.008    2.573063    0.601199    4.688219
  15 H     1.0000    0     1.008   -2.583369    1.021609    4.613671
  16 H     1.0000    0     1.008   -4.026958    3.264095   -2.847712
  17 H     1.0000    0     1.008   -6.932766    1.689218   -3.194214
  18 H     1.0000    0     1.008   -4.152350    0.217413   -4.238453
  19 H     1.0000    0     1.008   -7.614959   -2.523565   -0.644031
  20 H     1.0000    0     1.008   -5.440419   -3.304166    1.751068
  21 H     1.0000    0     1.008   -4.588661   -3.645095   -1.463087
  22 H     1.0000    0     1.008    7.663793    2.145660   -1.284470
  23 H     1.0000    0     1.008    5.503518    3.618213    0.774558
  24 H     1.0000    0     1.008    4.661048    3.044806   -2.408654
  25 H     1.0000    0     1.008    6.909107   -2.605133   -2.522938
  26 H     1.0000    0     1.008    4.168796   -1.436116   -3.975130
  27 H     1.0000    0     1.008    3.968195   -3.960107   -1.777086

--------------------------------
INTERNAL COORDINATES (ANGSTROEM)
--------------------------------
 N      0   0   0     0.000000000000     0.00000000     0.00000000
 C      1   0   0     1.330011611972     0.00000000     0.00000000
 N      2   1   0     1.329741038299   109.58469152     0.00000000
 H      2   1   3     1.070656331879   125.18250512   179.98711832
 C      3   2   1     1.361082859592   107.84766731   359.89950923
 C      1   2   3     1.360864312049   107.85223383   359.92017725
 C      1   2   3     1.460046820879   126.99793519   183.18386612
 C      3   2   1     1.460124847299   127.20492291   183.14198763
 C      7   1   2     1.523341803712   110.98011566   320.37317163
 H      7   1   2     1.094596548138   106.06343121   201.66650587
 C      7   1   2     1.527286220078   109.01421223    84.03252847
 C      8   3   2     1.527455126092   108.96529222    87.79827165
 C      8   3   2     1.522966965891   111.07904103   324.17378031
 H      8   3   2     1.094788890112   106.07048510   205.39343927
 H      5   3   2     1.070705401567   122.62494425   180.06987415
 H      6   1   2     1.070716732148   122.63390308   180.10803019
 H      9   7   1     1.087391853728   111.08038856   309.70752051
 H      9   7   1     1.085944051852   109.05793799   190.75406298
 H      9   7   1     1.086701596548   111.55194358    71.95076075
 H     11   7   1     1.085599897127   109.45872498   176.68770859
 H     11   7   1     1.087297939377   111.03518244    57.19851552
 H     11   7   1     1.087421607660   110.78458265   296.12250253
 H     12   8   3     1.085603207235   109.45444257   176.83264036
 H     12   8   3     1.087243334711   111.06726576    57.31854419
 H     12   8   3     1.087459633160   110.74968238   296.25326413
 H     13   8   3     1.085970306455   109.02906058   190.84976784
 H     13   8   3     1.086787333897   111.53049016    72.11087649
 H     13   8   3     1.087423717297   111.11549547   309.77646196

---------------------------
INTERNAL COORDINATES (A.U.)
---------------------------
 N      0   0   0     0.000000000000     0.00000000     0.00000000
 C      1   0   0     2.513357701563     0.00000000     0.00000000
 N      2   1   0     2.512846391421   109.58469152     0.00000000
 H      2   1   3     2.023247250799   125.18250512   179.98711832
 C      3   2   1     2.572073850203   107.84766731   359.89950923
 C      1   2   3     2.571660855201   107.85223383   359.92017725
 C      1   2   3     2.759088634164   126.99793519   183.18386612
 C      3   2   1     2.759236082729   127.20492291   183.14198763
 C      7   1   2     2.878698817370   110.98011566   320.37317163
 H      7   1   2     2.068487703117   106.06343121   201.66650587
 C      7   1   2     2.886152684060   109.01421223    84.03252847
 C      8   3   2     2.886471870168   108.96529222    87.79827165
 C      8   3   2     2.877990476543   111.07904103   324.17378031
 H      8   3   2     2.068851176772   106.07048510   205.39343927
 H      5   3   2     2.023339979073   122.62494425   180.06987415
 H      6   1   2     2.023361390766   122.63390308   180.10803019
 H      9   7   1     2.054872803803   111.08038856   309.70752051
 H      9   7   1     2.052136854761   109.05793799   190.75406298
 H      9   7   1     2.053568406771   111.55194358    71.95076075
 H     11   7   1     2.051486496583   109.45872498   176.68770859
 H     11   7   1     2.054695331399   111.03518244    57.19851552
 H     11   7   1     2.054929030586   110.78458265   296.12250253
 H     12   8   3     2.051492751780   109.45444257   176.83264036
 H     12   8   3     2.054592143536   111.06726576    57.31854419
 H     12   8   3     2.055000888367   110.74968238   296.25326413
 H     13   8   3     2.052186468771   109.02906058   190.84976784
 H     13   8   3     2.053730426880   111.53049016    72.11087649
 H     13   8   3     2.054933017222   111.11549547   309.77646196

---------------------
BASIS SET INFORMATION
---------------------
There are 3 groups of distinct atoms

 Group   1 Type N   : 7s4p1d contracted to 3s2p1d pattern {511/31/1}
 Group   2 Type C   : 7s4p1d contracted to 3s2p1d pattern {511/31/1}
 Group   3 Type H   : 4s1p contracted to 2s1p pattern {31/1}

Atom   0N    basis set group =>   1
Atom   1C    basis set group =>   2
Atom   2N    basis set group =>   1
Atom   3H    basis set group =>   3
Atom   4C    basis set group =>   2
Atom   5C    basis set group =>   2
Atom   6C    basis set group =>   2
Atom   7C    basis set group =>   2
Atom   8C    basis set group =>   2
Atom   9H    basis set group =>   3
Atom  10C    basis set group =>   2
Atom  11C    basis set group =>   2
Atom  12C    basis set group =>   2
Atom  13H    basis set group =>   3
Atom  14H    basis set group =>   3
Atom  15H    basis set group =>   3
Atom  16H    basis set group =>   3
Atom  17H    basis set group =>   3
Atom  18H    basis set group =>   3
Atom  19H    basis set group =>   3
Atom  20H    basis set group =>   3
Atom  21H    basis set group =>   3
Atom  22H    basis set group =>   3
Atom  23H    basis set group =>   3
Atom  24H    basis set group =>   3
Atom  25H    basis set group =>   3
Atom  26H    basis set group =>   3
Atom  27H    basis set group =>   3
---------------------------------
AUXILIARY/J BASIS SET INFORMATION
---------------------------------
There are 3 groups of distinct atoms

 Group   1 Type N   : 12s5p4d2f1g contracted to 6s4p3d1f1g pattern {711111/2111/211/2/1}
 Group   2 Type C   : 12s5p4d2f1g contracted to 6s4p3d1f1g pattern {711111/2111/211/2/1}
 Group   3 Type H   : 5s2p1d contracted to 3s1p1d pattern {311/2/1}

Atom   0N    basis set group =>   1
Atom   1C    basis set group =>   2
Atom   2N    basis set group =>   1
Atom   3H    basis set group =>   3
Atom   4C    basis set group =>   2
Atom   5C    basis set group =>   2
Atom   6C    basis set group =>   2
Atom   7C    basis set group =>   2
Atom   8C    basis set group =>   2
Atom   9H    basis set group =>   3
Atom  10C    basis set group =>   2
Atom  11C    basis set group =>   2
Atom  12C    basis set group =>   2
Atom  13H    basis set group =>   3
Atom  14H    basis set group =>   3
Atom  15H    basis set group =>   3
Atom  16H    basis set group =>   3
Atom  17H    basis set group =>   3
Atom  18H    basis set group =>   3
Atom  19H    basis set group =>   3
Atom  20H    basis set group =>   3
Atom  21H    basis set group =>   3
Atom  22H    basis set group =>   3
Atom  23H    basis set group =>   3
Atom  24H    basis set group =>   3
Atom  25H    basis set group =>   3
Atom  26H    basis set group =>   3
Atom  27H    basis set group =>   3
------------------------------------------------------------------------------
                           ORCA GTO INTEGRAL CALCULATION
                           -- RI-GTO INTEGRALS CHOSEN --
------------------------------------------------------------------------------
------------------------------------------------------------------------------
                   ___                                                        
                  /   \      - P O W E R E D   B Y -                         
                 /     \                                                     
                 |  |  |   _    _      __       _____    __    __             
                 |  |  |  | |  | |    /  \     |  _  \  |  |  /  |          
                  \  \/   | |  | |   /    \    | | | |  |  | /  /          
                 / \  \   | |__| |  /  /\  \   | |_| |  |  |/  /          
                |  |  |   |  __  | /  /__\  \  |    /   |      \           
                |  |  |   | |  | | |   __   |  |    \   |  |\   \          
                \     /   | |  | | |  |  |  |  | |\  \  |  | \   \       
                 \___/    |_|  |_| |__|  |__|  |_| \__\ |__|  \__/        
                                                                              
                      - O R C A' S   B I G   F R I E N D -                    
                                      &                                       
                       - I N T E G R A L  F E E D E R -                       
                                                                              
 v1 FN, 2020, v2 2021                                                         
------------------------------------------------------------------------------


Reading SHARK input file 4_prot_aq_8.SHARKINP.tmp ... ok
----------------------
SHARK INTEGRAL PACKAGE
----------------------

Number of atoms                             ...     28
Number of basis functions                   ...    239
Number of shells                            ...    117
Maximum angular momentum                    ...      2
Integral batch strategy                     ... SHARK/LIBINT Hybrid
RI-J (if used) integral strategy            ... SPLIT-RIJ (Revised 2003 algorithm where possible)
Printlevel                                  ...      1
Contraction scheme used                     ... SEGMENTED contraction
Coulomb Range Separation                    ... NOT USED
Exchange Range Separation                   ... Long Range
   Mu parameter                             ...  0.300000
   Scaling (regular/separated)              ...  0.157706  0.842294
Finite Nucleus Model                        ... NOT USED
Auxiliary Coulomb fitting basis             ... AVAILABLE
   # of basis functions in Aux-J            ...    726
   # of shells in Aux-J                     ...    250
   Maximum angular momentum in Aux-J        ...      4
Auxiliary J/K fitting basis                 ... NOT available
Auxiliary Correlation fitting basis         ... NOT available
Auxiliary 'external' fitting basis          ... NOT available
Integral threshold                          ...     2.500000e-11
Primitive cut-off                           ...     2.500000e-12
Primitive pair pre-selection threshold      ...     2.500000e-12

Calculating pre-screening integrals         ... done (  0.1 sec) Dimension = 117
Organizing shell pair data                  ... done (  0.0 sec)
Shell pair information
Total number of shell pairs                 ...      6903
Shell pairs after pre-screening             ...      6081
Total number of primitive shell pairs       ...     23847
Primitive shell pairs kept                  ...     14940
          la=0 lb=0:   2068 shell pairs
          la=1 lb=0:   2300 shell pairs
          la=1 lb=1:    659 shell pairs
          la=2 lb=0:    640 shell pairs
          la=2 lb=1:    357 shell pairs
          la=2 lb=2:     57 shell pairs

Calculating one electron integrals          ... done (  0.0 sec)
Calculating RI/J V-Matrix + Cholesky decomp.... done (  0.3 sec)
Calculating Nuclear repulsion               ... done (  0.0 sec) ENN=    655.553700283980 Eh

SHARK setup successfully completed in   1.0 seconds

Maximum memory used throughout the entire GTOINT-calculation: 36.8 MB
-------------------------------------------------------------------------------
                                 ORCA SCF
-------------------------------------------------------------------------------

------------
SCF SETTINGS
------------
Hamiltonian:
 Density Functional     Method          .... DFT(GTOs)
 Exchange Functional    Exchange        .... WB97X
 Correlation Functional Correlation     .... WB97X
 Gradients option       PostSCFGGA      .... off
 Hybrid DFT is turned on
   Fraction HF Exchange ScalHFX         ....  0.157706
   Scaling of DF-GGA-X  ScalDFX         ....  0.000000
   Scaling of DF-GGA-C  ScalDFC         ....  1.000000
   Scaling of DF-LDA-C  ScalLDAC        ....  1.000000
   Perturbative correction              ....  0.000000
   Density functional embedding theory  .... OFF
 Long-range corrected/Screened/Range-Separated Hybrid DFT is turned on
   Amount of maximum screened exact exchange              ....  0.842294
   Range separation parameter mu (erf(mu*r12)/r12)        ....  0.300000
 RI-approximation to the Coulomb term is turned on
   Number of AuxJ basis functions       .... 726
   RIJ-COSX (HFX calculated with COS-X)).... on


General Settings:
 Integral files         IntName         .... 4_prot_aq_8
 Hartree-Fock type      HFTyp           .... RHF
 Total Charge           Charge          ....    1
 Multiplicity           Mult            ....    1
 Number of Electrons    NEL             ....   84
 Basis Dimension        Dim             ....  239
 Nuclear Repulsion      ENuc            ....    655.5537002840 Eh

Convergence Acceleration:
 DIIS                   CNVDIIS         .... on
   Start iteration      DIISMaxIt       ....     0
   Startup error        DIISStart       ....  0.200000
   # of expansion vecs  DIISMaxEq       ....     5
   Bias factor          DIISBfac        ....   1.050
   Max. coefficient     DIISMaxC        ....  10.000
 Trust-Rad. Augm. Hess. CNVTRAH         .... auto
   Auto Start mean grad. ratio tolernc. ....  1.125000
   Auto Start start iteration           ....    20
   Auto Start num. interpolation iter.  ....    10
   Max. Number of Micro iterations      ....    16
   Max. Number of Macro iterations      .... Maxiter - #DIIS iter
   Number of Davidson start vectors     ....     2
   Converg. threshold I  (grad. norm)   ....   1.000e-05
   Converg. threshold II (energy diff.) ....   1.000e-08
   Grad. Scal. Fac. for Micro threshold ....   0.100
   Minimum threshold for Micro iter.    ....   0.010
   NR start threshold (gradient norm)   ....   0.001
   Initial trust radius                 ....   0.400
   Minimum AH scaling param. (alpha)    ....   1.000
   Maximum AH scaling param. (alpha)    .... 1000.000
   Orbital update algorithm             .... Taylor
   White noise on init. David. guess    .... on
   Maximum white noise                  ....   0.010
   Quad. conv. algorithm                .... NR
 SOSCF                  CNVSOSCF        .... on
   Start iteration      SOSCFMaxIt      ....   150
   Startup grad/error   SOSCFStart      ....  0.001000
 Level Shifting         CNVShift        .... on
   Level shift para.    LevelShift      ....    0.2500
   Turn off err/grad.   ShiftErr        ....    0.0000
 Zerner damping         CNVZerner       .... off
 Static damping         CNVDamp         .... on
   Fraction old density DampFac         ....    0.8500
   Max. Damping (<1)    DampMax         ....    0.9800
   Min. Damping (>=0)   DampMin         ....    0.0000
   Turn off err/grad.   DampErr         ....    0.0300
 Fernandez-Rico         CNVRico         .... off

SCF Procedure:
 Maximum # iterations   MaxIter         ....   125
 SCF integral mode      SCFMode         .... Direct
   Integral package                     .... SHARK and LIBINT hybrid scheme
 Reset frequency        DirectResetFreq ....    20
 Integral Threshold     Thresh          ....  2.500e-11 Eh
 Primitive CutOff       TCut            ....  2.500e-12 Eh

Convergence Tolerance:
 Convergence Check Mode ConvCheckMode   .... Total+1el-Energy
 Convergence forced     ConvForced      .... 0
 Energy Change          TolE            ....  1.000e-08 Eh
 1-El. energy change                    ....  1.000e-05 Eh
 Orbital Gradient       TolG            ....  1.000e-05
 Orbital Rotation angle TolX            ....  1.000e-05
 DIIS Error             TolErr          ....  5.000e-07


Diagonalization of the overlap matrix:
Smallest eigenvalue                        ... 1.379e-03
Time for diagonalization                   ...    0.014 sec
Threshold for overlap eigenvalues          ... 1.000e-08
Number of eigenvalues below threshold      ... 0
Time for construction of square roots      ...    0.004 sec
Total time needed                          ...    0.019 sec

Time for model grid setup =    0.508 sec

------------------------------
INITIAL GUESS: MODEL POTENTIAL
------------------------------
Loading Hartree-Fock densities                     ... done
Calculating cut-offs                               ... done
Initializing the effective Hamiltonian             ... done
Setting up the integral package (SHARK)            ... done
Starting the Coulomb interaction                   ... done (   0.8 sec)
Reading the grid                                   ... done
Mapping shells                                     ... done
Starting the XC term evaluation                    ... done (   0.6 sec)
  promolecular density results
     # of electrons  =     84.986016576
     EX              =    -64.260079758
     EC              =     -2.821413327
     EX+EC           =    -67.081493085
Transforming the Hamiltonian                       ... done (   0.0 sec)
Diagonalizing the Hamiltonian                      ... done (   0.0 sec)
Back transforming the eigenvectors                 ... done (   0.0 sec)
Now organizing SCF variables                       ... done
                      ------------------
                      INITIAL GUESS DONE (   1.9 sec)
                      ------------------
-------------------
DFT GRID GENERATION
-------------------

General Integration Accuracy     IntAcc      ... 4.388
Radial Grid Type                 RadialGrid  ... OptM3 with GC (2021)
Angular Grid (max. ang.)         AngularGrid ... 4 (Lebedev-302)
Angular grid pruning method      GridPruning ... 4 (adaptive)
Weight generation scheme         WeightScheme... Becke
Basis function cutoff            BFCut       ... 1.0000e-11
Integration weight cutoff        WCut        ... 1.0000e-14
Angular grids for H and He will be reduced by one unit
Partially contracted basis set               ... off
Rotationally invariant grid construction     ... off

Total number of grid points                  ...   119990
Total number of batches                      ...     1889
Average number of points per batch           ...       63
Average number of grid points per atom       ...     4285
Time for grid setup =    1.888 sec

--------------------
COSX GRID GENERATION
--------------------

GRIDX 1
-------
General Integration Accuracy     IntAcc      ... 3.816
Radial Grid Type                 RadialGrid  ... OptM3 with GC (2021)
Angular Grid (max. ang.)         AngularGrid ... 1 (Lebedev-50)
Angular grid pruning method      GridPruning ... 4 (adaptive)
Weight generation scheme         WeightScheme... Becke
Basis function cutoff            BFCut       ... 1.0000e-11
Integration weight cutoff        WCut        ... 1.0000e-14
Angular grids for H and He will be reduced by one unit
Partially contracted basis set               ... on
Rotationally invariant grid construction     ... off

Total number of grid points                  ...    15366
Total number of batches                      ...      255
Average number of points per batch           ...       60
Average number of grid points per atom       ...      549
UseSFitting                                  ... on

GRIDX 2
-------
General Integration Accuracy     IntAcc      ... 4.020
Radial Grid Type                 RadialGrid  ... OptM3 with GC (2021)
Angular Grid (max. ang.)         AngularGrid ... 2 (Lebedev-110)
Angular grid pruning method      GridPruning ... 4 (adaptive)
Weight generation scheme         WeightScheme... Becke
Basis function cutoff            BFCut       ... 1.0000e-11
Integration weight cutoff        WCut        ... 1.0000e-14
Angular grids for H and He will be reduced by one unit
Partially contracted basis set               ... on
Rotationally invariant grid construction     ... off

Total number of grid points                  ...    32059
Total number of batches                      ...      514
Average number of points per batch           ...       62
Average number of grid points per atom       ...     1145
UseSFitting                                  ... on

GRIDX 3
-------
General Integration Accuracy     IntAcc      ... 4.338
Radial Grid Type                 RadialGrid  ... OptM3 with GC (2021)
Angular Grid (max. ang.)         AngularGrid ... 3 (Lebedev-194)
Angular grid pruning method      GridPruning ... 4 (adaptive)
Weight generation scheme         WeightScheme... Becke
Basis function cutoff            BFCut       ... 1.0000e-11
Integration weight cutoff        WCut        ... 1.0000e-14
Angular grids for H and He will be reduced by one unit
Partially contracted basis set               ... on
Rotationally invariant grid construction     ... off

Total number of grid points                  ...    69844
Total number of batches                      ...     1104
Average number of points per batch           ...       63
Average number of grid points per atom       ...     2494
UseSFitting                                  ... on

Time for X-Grid setup             =    2.390 sec


--------------------
CPCM SOLVATION MODEL
--------------------
CPCM parameters:
  Epsilon                                         ...      80.4000
  Refrac                                          ...       1.3300
  Rsolv                                           ...       1.3000
  Surface type                                    ... GAUSSIAN VDW
  Epsilon function type                           ...         CPCM
Radii:
 Radius for N  used is    3.5149 Bohr (=   1.8600 Ang.)
 Radius for C  used is    3.8550 Bohr (=   2.0400 Ang.)
 Radius for H  used is    2.4944 Bohr (=   1.3200 Ang.)
Calculating surface                               ...        done! (  0.0s)
GEPOL surface points                              ...         1519
GEPOL Volume                                      ...    1437.7193
GEPOL Surface-area                                ...     802.2150
Calculating surface distance matrix               ...        done! (  0.0s)
Performing Cholesky decomposition & store         ...        done! (  0.1s)
Overall time for CPCM initialization              ...                 0.1s
--------------
SCF ITERATIONS
--------------
ITER       Energy         Delta-E        Max-DP      RMS-DP      [F,P]     Damp
               ***  Starting incremental Fock matrix formation  ***
  0   -461.9128819332   0.000000000000 0.03364000  0.00064593  0.1533088 0.8500
  1   -461.9573629072  -0.044480974040 0.03026832  0.00060507  0.1234265 0.8500
                               ***Turning on DIIS***
  2   -461.9911766557  -0.033813748426 0.02369076  0.00049298  0.0946916 0.8500
  3   -462.0162800375  -0.025103381873 0.01480299  0.00035078  0.0717322 0.8500
  4   -462.0356116776  -0.019331640017 0.00998214  0.00026852  0.0571110 0.8500
  5   -462.0508103327  -0.015198655171 0.00760108  0.00021998  0.0472377 0.8500
  6   -462.0631414336  -0.012331100909 0.00616194  0.00018534  0.0397437 0.8500
  7   -462.0733295095  -0.010188075828 0.00525155  0.00015924  0.0336678 0.8500
  8   -462.0818392867  -0.008509777271 0.02985733  0.00091216  0.0284760 0.0000
  9   -462.1274689553  -0.045629668607 0.00140374  0.00003158  0.0012133 0.0000
                      *** Initiating the SOSCF procedure ***
                           *** Shutting down DIIS ***
                      *** Re-Reading the Fockian *** 
                      *** Removing any level shift *** 
ITER      Energy       Delta-E        Grad      Rot      Max-DP    RMS-DP
 10   -462.12748550  -0.0000165453  0.000142  0.000142  0.000524  0.000013
               *** Restarting incremental Fock matrix formation ***
 11   -462.12753595  -0.0000504511  0.000051  0.000098  0.000341  0.000009
 12   -462.12753624  -0.0000002892  0.000044  0.000111  0.000176  0.000005
 13   -462.12753628  -0.0000000428  0.000020  0.000021  0.000044  0.000001
 14   -462.12753630  -0.0000000138  0.000003  0.000005  0.000008  0.000000
                  ***Gradient check signals convergence***
              ***Rediagonalizing the Fockian in SOSCF/NRSCF***

               *****************************************************
               *                     SUCCESS                       *
               *           SCF CONVERGED AFTER  15 CYCLES          *
               *****************************************************

Old exchange energy                            =    -21.420230390 Eh
New exchange energy                            =    -21.420256348 Eh
Exchange energy change after final integration =     -0.000025958 Eh
Total energy after final integration           =   -462.127562258 Eh
Final COS-X integration done in                =    61.496 sec

----------------
TOTAL SCF ENERGY
----------------

Total Energy       :         -462.12756226 Eh          -12575.13028 eV

Components:
Nuclear Repulsion  :          655.55370028 Eh           17838.52308 eV
Electronic Energy  :        -1117.68126254 Eh          -30413.65335 eV
One Electron Energy:        -1907.42635813 Eh          -51903.70994 eV
Two Electron Energy:          789.74509559 Eh           21490.05658 eV
Max COSX asymmetry :            0.00000205 Eh               0.00006 eV
CPCM Dielectric    :           -0.07809193 Eh              -2.12499 eV

Virial components:
Potential Energy   :         -918.96834424 Eh          -25006.39995 eV
Kinetic Energy     :          456.84078199 Eh           12431.26967 eV
Virial Ratio       :            2.01157248


DFT components:
N(Alpha)           :       42.000037930760 electrons
N(Beta)            :       42.000037930760 electrons
N(Total)           :       84.000075861520 electrons
E(XC)              :      -47.266260028500 Eh       
DFET-embed. en.    :        0.000000000000 Eh       
CPCM Solvation Model Properties:
Surface-charge          :           -1.02109276
Charge-correction       :            0.00288800 Eh               0.07859 eV
Free-energy (cav+disp)  :  This term is not implemented in the current solvation scheme

---------------
SCF CONVERGENCE
---------------

  Last Energy change         ...   -3.0179e-09  Tolerance :   1.0000e-08
  Last MAX-Density change    ...    5.3291e-15  Tolerance :   1.0000e-07
  Last RMS-Density change    ...    4.9360e-17  Tolerance :   5.0000e-09
  Last Orbital Gradient      ...    1.3257e-06  Tolerance :   1.0000e-05
  Last Orbital Rotation      ...    2.8913e-06  Tolerance :   1.0000e-05

             **** THE GBW FILE WAS UPDATED (4_prot_aq_8.gbw) ****
             **** DENSITY 4_prot_aq_8.scfp WAS UPDATED ****
             **** ENERGY FILE WAS UPDATED (4_prot_aq_8.en.tmp) ****
             **** THE GBW FILE WAS UPDATED (4_prot_aq_8.gbw) ****
             **** DENSITY 4_prot_aq_8.scfp WAS UPDATED ****
----------------
ORBITAL ENERGIES
----------------

  NO   OCC          E(Eh)            E(eV) 
   0   2.0000     -14.511222      -394.8704 
   1   2.0000     -14.510971      -394.8636 
   2   2.0000     -10.381043      -282.4826 
   3   2.0000     -10.335788      -281.2511 
   4   2.0000     -10.335625      -281.2466 
   5   2.0000     -10.330526      -281.1079 
   6   2.0000     -10.329927      -281.0916 
   7   2.0000     -10.272280      -279.5229 
   8   2.0000     -10.271941      -279.5137 
   9   2.0000     -10.270029      -279.4617 
  10   2.0000     -10.269974      -279.4602 
  11   2.0000      -1.222854       -33.2755 
  12   2.0000      -1.104472       -30.0542 
  13   2.0000      -0.970650       -26.4127 
  14   2.0000      -0.918375       -24.9902 
  15   2.0000      -0.917386       -24.9633 
  16   2.0000      -0.827012       -22.5041 
  17   2.0000      -0.825521       -22.4636 
  18   2.0000      -0.812104       -22.0985 
  19   2.0000      -0.779141       -21.2015 
  20   2.0000      -0.737749       -20.0752 
  21   2.0000      -0.729804       -19.8590 
  22   2.0000      -0.654957       -17.8223 
  23   2.0000      -0.637847       -17.3567 
  24   2.0000      -0.609464       -16.5844 
  25   2.0000      -0.604760       -16.4564 
  26   2.0000      -0.589370       -16.0376 
  27   2.0000      -0.582086       -15.8394 
  28   2.0000      -0.566078       -15.4038 
  29   2.0000      -0.563655       -15.3378 
  30   2.0000      -0.549527       -14.9534 
  31   2.0000      -0.520031       -14.1508 
  32   2.0000      -0.504091       -13.7170 
  33   2.0000      -0.500431       -13.6174 
  34   2.0000      -0.498646       -13.5689 
  35   2.0000      -0.495393       -13.4803 
  36   2.0000      -0.477156       -12.9841 
  37   2.0000      -0.463108       -12.6018 
  38   2.0000      -0.461748       -12.5648 
  39   2.0000      -0.461399       -12.5553 
  40   2.0000      -0.413915       -11.2632 
  41   2.0000      -0.373261       -10.1570 
  42   0.0000       0.058871         1.6020 
  43   0.0000       0.096312         2.6208 
  44   0.0000       0.138593         3.7713 
  45   0.0000       0.151599         4.1252 
  46   0.0000       0.160921         4.3789 
  47   0.0000       0.177065         4.8182 
  48   0.0000       0.187101         5.0913 
  49   0.0000       0.192526         5.2389 
  50   0.0000       0.203009         5.5242 
  51   0.0000       0.208410         5.6711 
  52   0.0000       0.211373         5.7517 
  53   0.0000       0.227114         6.1801 
  54   0.0000       0.229657         6.2493 
  55   0.0000       0.242849         6.6083 
  56   0.0000       0.242909         6.6099 
  57   0.0000       0.246845         6.7170 
  58   0.0000       0.257265         7.0005 
  59   0.0000       0.259624         7.0647 
  60   0.0000       0.264378         7.1941 
  61   0.0000       0.268953         7.3186 
  62   0.0000       0.272661         7.4195 
  63   0.0000       0.282622         7.6905 
  64   0.0000       0.300933         8.1888 
  65   0.0000       0.302103         8.2206 
  66   0.0000       0.312741         8.5101 
  67   0.0000       0.332986         9.0610 
  68   0.0000       0.352707         9.5976 
  69   0.0000       0.362238         9.8570 
  70   0.0000       0.395611        10.7651 
  71   0.0000       0.446174        12.1410 
  72   0.0000       0.462625        12.5887 
  73   0.0000       0.479035        13.0352 
  74   0.0000       0.484230        13.1766 
  75   0.0000       0.493744        13.4355 
  76   0.0000       0.501275        13.6404 
  77   0.0000       0.515277        14.0214 
  78   0.0000       0.520899        14.1744 
  79   0.0000       0.545681        14.8487 
  80   0.0000       0.557234        15.1631 
  81   0.0000       0.571463        15.5503 
  82   0.0000       0.575841        15.6694 
  83   0.0000       0.611088        16.6285 
  84   0.0000       0.611461        16.6387 
  85   0.0000       0.643142        17.5008 
  86   0.0000       0.667122        18.1533 
  87   0.0000       0.676782        18.4162 
  88   0.0000       0.681145        18.5349 
  89   0.0000       0.698506        19.0073 
  90   0.0000       0.701671        19.0934 
  91   0.0000       0.717844        19.5335 
  92   0.0000       0.732578        19.9345 
  93   0.0000       0.736738        20.0477 
  94   0.0000       0.742987        20.2177 
  95   0.0000       0.752533        20.4775 
  96   0.0000       0.754689        20.5361 
  97   0.0000       0.755721        20.5642 
  98   0.0000       0.762071        20.7370 
  99   0.0000       0.768748        20.9187 
 100   0.0000       0.776859        21.1394 
 101   0.0000       0.782103        21.2821 
 102   0.0000       0.785819        21.3832 
 103   0.0000       0.790873        21.5207 
 104   0.0000       0.791853        21.5474 
 105   0.0000       0.799922        21.7670 
 106   0.0000       0.805411        21.9163 
 107   0.0000       0.808611        22.0034 
 108   0.0000       0.814098        22.1527 
 109   0.0000       0.826808        22.4986 
 110   0.0000       0.828656        22.5489 
 111   0.0000       0.831308        22.6210 
 112   0.0000       0.837800        22.7977 
 113   0.0000       0.841402        22.8957 
 114   0.0000       0.858869        23.3710 
 115   0.0000       0.863988        23.5103 
 116   0.0000       0.878277        23.8991 
 117   0.0000       0.957889        26.0655 
 118   0.0000       0.972793        26.4710 
 119   0.0000       1.009850        27.4794 
 120   0.0000       1.043926        28.4067 
 121   0.0000       1.055727        28.7278 
 122   0.0000       1.059999        28.8440 
 123   0.0000       1.134444        30.8698 
 124   0.0000       1.157832        31.5062 
 125   0.0000       1.165486        31.7145 
 126   0.0000       1.184043        32.2194 
 127   0.0000       1.203141        32.7391 
 128   0.0000       1.233368        33.5616 
 129   0.0000       1.262942        34.3664 
 130   0.0000       1.272707        34.6321 
 131   0.0000       1.291181        35.1348 
 132   0.0000       1.296999        35.2931 
 133   0.0000       1.322582        35.9893 
 134   0.0000       1.347939        36.6793 
 135   0.0000       1.380669        37.5699 
 136   0.0000       1.403803        38.1994 
 137   0.0000       1.424478        38.7620 
 138   0.0000       1.434852        39.0443 
 139   0.0000       1.447065        39.3766 
 140   0.0000       1.473892        40.1066 
 141   0.0000       1.537142        41.8277 
 142   0.0000       1.547842        42.1189 
 143   0.0000       1.625340        44.2277 
 144   0.0000       1.636180        44.5227 
 145   0.0000       1.649604        44.8880 
 146   0.0000       1.654309        45.0160 
 147   0.0000       1.657189        45.0944 
 148   0.0000       1.657501        45.1029 
 149   0.0000       1.695291        46.1312 
 150   0.0000       1.731214        47.1087 
 151   0.0000       1.789487        48.6944 
 152   0.0000       1.796696        48.8906 
 153   0.0000       1.809107        49.2283 
 154   0.0000       1.812963        49.3332 
 155   0.0000       1.822179        49.5840 
 156   0.0000       1.826818        49.7102 
 157   0.0000       1.853456        50.4351 
 158   0.0000       1.869499        50.8717 
 159   0.0000       1.871566        50.9279 
 160   0.0000       1.886469        51.3334 
 161   0.0000       1.899142        51.6783 
 162   0.0000       1.901569        51.7443 
 163   0.0000       1.911635        52.0182 
 164   0.0000       1.916104        52.1398 
 165   0.0000       1.924828        52.3772 
 166   0.0000       1.933885        52.6237 
 167   0.0000       1.945368        52.9362 
 168   0.0000       1.955615        53.2150 
 169   0.0000       1.968801        53.5738 
 170   0.0000       1.971040        53.6347 
 171   0.0000       1.979238        53.8578 
 172   0.0000       1.983252        53.9670 
 173   0.0000       1.986297        54.0499 
 174   0.0000       1.994309        54.2679 
 175   0.0000       2.010175        54.6996 
 176   0.0000       2.012985        54.7761 
 177   0.0000       2.028742        55.2049 
 178   0.0000       2.046833        55.6971 
 179   0.0000       2.049027        55.7569 
 180   0.0000       2.078442        56.5573 
 181   0.0000       2.087100        56.7929 
 182   0.0000       2.097754        57.0828 
 183   0.0000       2.138950        58.2038 
 184   0.0000       2.151609        58.5483 
 185   0.0000       2.177536        59.2538 
 186   0.0000       2.179692        59.3124 
 187   0.0000       2.228848        60.6501 
 188   0.0000       2.257834        61.4388 
 189   0.0000       2.264380        61.6169 
 190   0.0000       2.289642        62.3043 
 191   0.0000       2.354710        64.0749 
 192   0.0000       2.368855        64.4598 
 193   0.0000       2.376827        64.6767 
 194   0.0000       2.389682        65.0266 
 195   0.0000       2.418165        65.8016 
 196   0.0000       2.463843        67.0446 
 197   0.0000       2.474583        67.3368 
 198   0.0000       2.493359        67.8477 
 199   0.0000       2.495204        67.8980 
 200   0.0000       2.518082        68.5205 
 201   0.0000       2.524837        68.7043 
 202   0.0000       2.551849        69.4393 
 203   0.0000       2.569605        69.9225 
 204   0.0000       2.598190        70.7003 
 205   0.0000       2.603298        70.8393 
 206   0.0000       2.611439        71.0609 
 207   0.0000       2.620096        71.2964 
 208   0.0000       2.663610        72.4805 
 209   0.0000       2.679049        72.9006 
 210   0.0000       2.681400        72.9646 
 211   0.0000       2.697037        73.3901 
 212   0.0000       2.789081        75.8948 
 213   0.0000       2.801042        76.2202 
 214   0.0000       2.817934        76.6799 
 215   0.0000       2.827807        76.9485 
 216   0.0000       2.859021        77.7979 
 217   0.0000       2.877760        78.3078 
 218   0.0000       2.921207        79.4901 
 219   0.0000       2.943650        80.1008 
 220   0.0000       2.945939        80.1631 
 221   0.0000       2.961354        80.5825 
 222   0.0000       2.980170        81.0946 
 223   0.0000       2.988051        81.3090 
 224   0.0000       3.011214        81.9393 
 225   0.0000       3.028828        82.4186 
 226   0.0000       3.037381        82.6513 
 227   0.0000       3.038598        82.6845 
 228   0.0000       3.061281        83.3017 
 229   0.0000       3.089309        84.0644 
 230   0.0000       3.114516        84.7503 
 231   0.0000       3.142711        85.5175 
 232   0.0000       3.152229        85.7765 
 233   0.0000       3.155017        85.8524 
 234   0.0000       3.176516        86.4374 
 235   0.0000       3.295254        89.6684 
 236   0.0000       3.484913        94.8293 
 237   0.0000       3.604366        98.0798 
 238   0.0000       3.626879        98.6924 

                    ********************************
                    * MULLIKEN POPULATION ANALYSIS *
                    ********************************

-----------------------
MULLIKEN ATOMIC CHARGES
-----------------------
   0 N :   -0.172843
   1 C :    0.221336
   2 N :   -0.173740
   3 H :    0.115533
   4 C :    0.069123
   5 C :    0.070180
   6 C :   -0.055457
   7 C :   -0.053971
   8 C :   -0.019995
   9 H :    0.078021
  10 C :    0.018759
  11 C :    0.018172
  12 C :   -0.022769
  13 H :    0.078128
  14 H :    0.091565
  15 H :    0.091656
  16 H :    0.057889
  17 H :    0.062430
  18 H :    0.051850
  19 H :    0.056267
  20 H :    0.048844
  21 H :    0.044487
  22 H :    0.056520
  23 H :    0.048858
  24 H :    0.044623
  25 H :    0.063270
  26 H :    0.052996
  27 H :    0.058267
Sum of atomic charges:    1.0000000

--------------------------------
MULLIKEN REDUCED ORBITAL CHARGES
--------------------------------
  0 N s       :     3.382296  s :     3.382296
      pz      :     1.153408  p :     3.756655
      px      :     1.161351
      py      :     1.441896
      dz2     :     0.006774  d :     0.033892
      dxz     :     0.010310
      dyz     :     0.006264
      dx2y2   :     0.004623
      dxy     :     0.005921
  1 C s       :     3.095173  s :     3.095173
      pz      :     0.906968  p :     2.616296
      px      :     0.773076
      py      :     0.936252
      dz2     :     0.012572  d :     0.067194
      dxz     :     0.021916
      dyz     :     0.006653
      dx2y2   :     0.009627
      dxy     :     0.016426
  2 N s       :     3.383220  s :     3.383220
      pz      :     1.150028  p :     3.756612
      px      :     1.161148
      py      :     1.445435
      dz2     :     0.006466  d :     0.033908
      dxz     :     0.010527
      dyz     :     0.006620
      dx2y2   :     0.004572
      dxy     :     0.005724
  3 H s       :     0.859100  s :     0.859100
      pz      :     0.018920  p :     0.025367
      px      :     0.001507
      py      :     0.004940
  4 C s       :     3.145937  s :     3.145937
      pz      :     0.806918  p :     2.736532
      px      :     0.906279
      py      :     1.023335
      dz2     :     0.014409  d :     0.048408
      dxz     :     0.012847
      dyz     :     0.008223
      dx2y2   :     0.005458
      dxy     :     0.007472
  5 C s       :     3.145029  s :     3.145029
      pz      :     0.800120  p :     2.736310
      px      :     0.907121
      py      :     1.029068
      dz2     :     0.014691  d :     0.048481
      dxz     :     0.012689
      dyz     :     0.008319
      dx2y2   :     0.005119
      dxy     :     0.007663
  6 C s       :     3.111124  s :     3.111124
      pz      :     1.052323  p :     2.888059
      px      :     0.770940
      py      :     1.064796
      dz2     :     0.009835  d :     0.056274
      dxz     :     0.010567
      dyz     :     0.010530
      dx2y2   :     0.015542
      dxy     :     0.009799
  7 C s       :     3.108521  s :     3.108521
      pz      :     1.062176  p :     2.889182
      px      :     0.769325
      py      :     1.057682
      dz2     :     0.009458  d :     0.056268
      dxz     :     0.010349
      dyz     :     0.010221
      dx2y2   :     0.016258
      dxy     :     0.009982
  8 C s       :     3.001305  s :     3.001305
      pz      :     0.944866  p :     2.992450
      px      :     1.046635
      py      :     1.000949
      dz2     :     0.007331  d :     0.026241
      dxz     :     0.003110
      dyz     :     0.006576
      dx2y2   :     0.005403
      dxy     :     0.003820
  9 H s       :     0.900695  s :     0.900695
      pz      :     0.008270  p :     0.021284
      px      :     0.005900
      py      :     0.007114
 10 C s       :     2.987752  s :     2.987752
      pz      :     1.028134  p :     2.967041
      px      :     1.011466
      py      :     0.927441
      dz2     :     0.005597  d :     0.026448
      dxz     :     0.003146
      dyz     :     0.006747
      dx2y2   :     0.006994
      dxy     :     0.003965
 11 C s       :     2.987775  s :     2.987775
      pz      :     1.022607  p :     2.967619
      px      :     1.009548
      py      :     0.935465
      dz2     :     0.004123  d :     0.026434
      dxz     :     0.003851
      dyz     :     0.008262
      dx2y2   :     0.006932
      dxy     :     0.003266
 12 C s       :     3.001651  s :     3.001651
      pz      :     0.976162  p :     2.994881
      px      :     1.048024
      py      :     0.970694
      dz2     :     0.006882  d :     0.026237
      dxz     :     0.003097
      dyz     :     0.006758
      dx2y2   :     0.005634
      dxy     :     0.003865
 13 H s       :     0.900603  s :     0.900603
      pz      :     0.010703  p :     0.021268
      px      :     0.005692
      py      :     0.004874
 14 H s       :     0.883301  s :     0.883301
      pz      :     0.011593  p :     0.025134
      px      :     0.008670
      py      :     0.004871
 15 H s       :     0.883220  s :     0.883220
      pz      :     0.011129  p :     0.025124
      px      :     0.008683
      py      :     0.005311
 16 H s       :     0.917775  s :     0.917775
      pz      :     0.003908  p :     0.024336
      px      :     0.006997
      py      :     0.013431
 17 H s       :     0.912820  s :     0.912820
      pz      :     0.004588  p :     0.024749
      px      :     0.015060
      py      :     0.005101
 18 H s       :     0.923522  s :     0.923522
      pz      :     0.009830  p :     0.024627
      px      :     0.006558
      py      :     0.008240
 19 H s       :     0.918976  s :     0.918976
      pz      :     0.005718  p :     0.024758
      px      :     0.015029
      py      :     0.004010
 20 H s       :     0.926815  s :     0.926815
      pz      :     0.013820  p :     0.024341
      px      :     0.004870
      py      :     0.005651
 21 H s       :     0.931123  s :     0.931123
      pz      :     0.009503  p :     0.024390
      px      :     0.007470
      py      :     0.007417
 22 H s       :     0.918731  s :     0.918731
      pz      :     0.005616  p :     0.024749
      px      :     0.015029
      py      :     0.004104
 23 H s       :     0.926784  s :     0.926784
      pz      :     0.010930  p :     0.024358
      px      :     0.004853
      py      :     0.008575
 24 H s       :     0.931019  s :     0.931019
      pz      :     0.011651  p :     0.024358
      px      :     0.007319
      py      :     0.005388
 25 H s       :     0.911994  s :     0.911994
      pz      :     0.004661  p :     0.024736
      px      :     0.015016
      py      :     0.005060
 26 H s       :     0.922402  s :     0.922402
      pz      :     0.012572  p :     0.024602
      px      :     0.006412
      py      :     0.005618
 27 H s       :     0.917368  s :     0.917368
      pz      :     0.004646  p :     0.024365
      px      :     0.007167
      py      :     0.012551


                     *******************************
                     * LOEWDIN POPULATION ANALYSIS *
                     *******************************

----------------------
LOEWDIN ATOMIC CHARGES
----------------------
   0 N :    0.111532
   1 C :    0.123251
   2 N :    0.111747
   3 H :    0.058271
   4 C :    0.020450
   5 C :    0.021256
   6 C :    0.041968
   7 C :    0.042062
   8 C :   -0.050800
   9 H :    0.049284
  10 C :   -0.047431
  11 C :   -0.047342
  12 C :   -0.051055
  13 H :    0.049177
  14 H :    0.056238
  15 H :    0.056376
  16 H :    0.037052
  17 H :    0.046051
  18 H :    0.034790
  19 H :    0.041514
  20 H :    0.034293
  21 H :    0.033356
  22 H :    0.041554
  23 H :    0.034092
  24 H :    0.033560
  25 H :    0.046609
  26 H :    0.035114
  27 H :    0.037030

-------------------------------
LOEWDIN REDUCED ORBITAL CHARGES
-------------------------------
  0 N s       :     3.043479  s :     3.043479
      pz      :     1.206118  p :     3.767106
      px      :     1.192806
      py      :     1.368181
      dz2     :     0.017885  d :     0.077883
      dxz     :     0.026985
      dyz     :     0.012233
      dx2y2   :     0.010351
      dxy     :     0.010429
  1 C s       :     2.827875  s :     2.827875
      pz      :     1.027139  p :     2.891223
      px      :     0.899749
      py      :     0.964335
      dz2     :     0.029487  d :     0.157651
      dxz     :     0.058071
      dyz     :     0.011124
      dx2y2   :     0.024476
      dxy     :     0.034492
  2 N s       :     3.043547  s :     3.043547
      pz      :     1.205035  p :     3.766800
      px      :     1.192845
      py      :     1.368919
      dz2     :     0.017285  d :     0.077906
      dxz     :     0.027424
      dyz     :     0.012896
      dx2y2   :     0.010330
      dxy     :     0.009971
  3 H s       :     0.863889  s :     0.863889
      pz      :     0.053246  p :     0.077840
      px      :     0.008375
      py      :     0.016219
  4 C s       :     2.847613  s :     2.847613
      pz      :     0.937939  p :     3.012136
      px      :     1.050825
      py      :     1.023371
      dz2     :     0.037331  d :     0.119801
      dxz     :     0.035582
      dyz     :     0.016617
      dx2y2   :     0.015161
      dxy     :     0.015110
  5 C s       :     2.847698  s :     2.847698
      pz      :     0.934165  p :     3.011093
      px      :     1.050863
      py      :     1.026066
      dz2     :     0.038308  d :     0.119952
      dxz     :     0.035194
      dyz     :     0.016645
      dx2y2   :     0.014235
      dxy     :     0.015570
  6 C s       :     2.831660  s :     2.831660
      pz      :     1.062738  p :     2.996736
      px      :     0.859884
      py      :     1.074114
      dz2     :     0.023528  d :     0.129636
      dxz     :     0.024479
      dyz     :     0.022948
      dx2y2   :     0.036225
      dxy     :     0.022457
  7 C s       :     2.831547  s :     2.831547
      pz      :     1.069218  p :     2.996752
      px      :     0.859202
      py      :     1.068333
      dz2     :     0.020590  d :     0.129638
      dxz     :     0.024963
      dyz     :     0.024594
      dx2y2   :     0.037521
      dxy     :     0.021970
  8 C s       :     2.827497  s :     2.827497
      pz      :     1.012115  p :     3.152938
      px      :     1.083354
      py      :     1.057469
      dz2     :     0.019760  d :     0.070364
      dxz     :     0.007849
      dyz     :     0.018158
      dx2y2   :     0.014328
      dxy     :     0.010270
  9 H s       :     0.883605  s :     0.883605
      pz      :     0.026057  p :     0.067110
      px      :     0.018094
      py      :     0.022959
 10 C s       :     2.830097  s :     2.830097
      pz      :     1.073820  p :     3.146746
      px      :     1.070457
      py      :     1.002468
      dz2     :     0.015319  d :     0.070588
      dxz     :     0.008116
      dyz     :     0.016953
      dx2y2   :     0.019263
      dxy     :     0.010936
 11 C s       :     2.830130  s :     2.830130
      pz      :     1.069511  p :     3.146661
      px      :     1.069316
      py      :     1.007834
      dz2     :     0.011002  d :     0.070550
      dxz     :     0.010098
      dyz     :     0.021190
      dx2y2   :     0.019208
      dxy     :     0.009053
 12 C s       :     2.827268  s :     2.827268
      pz      :     1.033018  p :     3.153452
      px      :     1.083774
      py      :     1.036659
      dz2     :     0.017624  d :     0.070335
      dxz     :     0.007774
      dyz     :     0.019379
      dx2y2   :     0.015114
      dxy     :     0.010445
 13 H s       :     0.883728  s :     0.883728
      pz      :     0.031955  p :     0.067095
      px      :     0.017606
      py      :     0.017535
 14 H s       :     0.868841  s :     0.868841
      pz      :     0.033558  p :     0.074921
      px      :     0.025202
      py      :     0.016161
 15 H s       :     0.868746  s :     0.868746
      pz      :     0.032337  p :     0.074878
      px      :     0.025227
      py      :     0.017314
 16 H s       :     0.894882  s :     0.894882
      pz      :     0.012593  p :     0.068066
      px      :     0.018676
      py      :     0.036797
 17 H s       :     0.885894  s :     0.885894
      pz      :     0.014089  p :     0.068056
      px      :     0.040329
      py      :     0.013638
 18 H s       :     0.896677  s :     0.896677
      pz      :     0.028425  p :     0.068533
      px      :     0.017563
      py      :     0.022545
 19 H s       :     0.890568  s :     0.890568
      pz      :     0.015010  p :     0.067918
      px      :     0.040292
      py      :     0.012616
 20 H s       :     0.897879  s :     0.897879
      pz      :     0.036811  p :     0.067829
      px      :     0.013291
      py      :     0.017727
 21 H s       :     0.898645  s :     0.898645
      pz      :     0.025359  p :     0.067999
      px      :     0.020056
      py      :     0.022584
 22 H s       :     0.890522  s :     0.890522
      pz      :     0.014888  p :     0.067924
      px      :     0.040333
      py      :     0.012702
 23 H s       :     0.898053  s :     0.898053
      pz      :     0.029183  p :     0.067855
      px      :     0.013272
      py      :     0.025401
 24 H s       :     0.898457  s :     0.898457
      pz      :     0.031425  p :     0.067984
      px      :     0.019711
      py      :     0.016847
 25 H s       :     0.885321  s :     0.885321
      pz      :     0.013626  p :     0.068070
      px      :     0.040249
      py      :     0.014195
 26 H s       :     0.896335  s :     0.896335
      pz      :     0.035092  p :     0.068550
      px      :     0.017210
      py      :     0.016248
 27 H s       :     0.894861  s :     0.894861
      pz      :     0.013756  p :     0.068109
      px      :     0.019157
      py      :     0.035197


                      *****************************
                      * MAYER POPULATION ANALYSIS *
                      *****************************

  NA   - Mulliken gross atomic population
  ZA   - Total nuclear charge
  QA   - Mulliken gross atomic charge
  VA   - Mayer's total valence
  BVA  - Mayer's bonded valence
  FA   - Mayer's free valence

  ATOM       NA         ZA         QA         VA         BVA        FA
  0 N      7.1728     7.0000    -0.1728     3.4344     3.4344    -0.0000
  1 C      5.7787     6.0000     0.2213     3.8632     3.8632     0.0000
  2 N      7.1737     7.0000    -0.1737     3.4367     3.4367     0.0000
  3 H      0.8845     1.0000     0.1155     1.0074     1.0074     0.0000
  4 C      5.9309     6.0000     0.0691     3.8502     3.8502    -0.0000
  5 C      5.9298     6.0000     0.0702     3.8508     3.8508    -0.0000
  6 C      6.0555     6.0000    -0.0555     4.0649     4.0649    -0.0000
  7 C      6.0540     6.0000    -0.0540     4.0657     4.0657    -0.0000
  8 C      6.0200     6.0000    -0.0200     3.9679     3.9679     0.0000
  9 H      0.9220     1.0000     0.0780     0.9756     0.9756     0.0000
 10 C      5.9812     6.0000     0.0188     3.9417     3.9417    -0.0000
 11 C      5.9818     6.0000     0.0182     3.9410     3.9410     0.0000
 12 C      6.0228     6.0000    -0.0228     3.9715     3.9715     0.0000
 13 H      0.9219     1.0000     0.0781     0.9752     0.9752    -0.0000
 14 H      0.9084     1.0000     0.0916     0.9979     0.9979    -0.0000
 15 H      0.9083     1.0000     0.0917     0.9978     0.9978    -0.0000
 16 H      0.9421     1.0000     0.0579     0.9909     0.9909     0.0000
 17 H      0.9376     1.0000     0.0624     0.9953     0.9953     0.0000
 18 H      0.9481     1.0000     0.0519     0.9966     0.9966     0.0000
 19 H      0.9437     1.0000     0.0563     0.9961     0.9961    -0.0000
 20 H      0.9512     1.0000     0.0488     0.9957     0.9957    -0.0000
 21 H      0.9555     1.0000     0.0445     1.0010     1.0010     0.0000
 22 H      0.9435     1.0000     0.0565     0.9960     0.9960    -0.0000
 23 H      0.9511     1.0000     0.0489     0.9962     0.9962    -0.0000
 24 H      0.9554     1.0000     0.0446     1.0008     1.0008     0.0000
 25 H      0.9367     1.0000     0.0633     0.9952     0.9952    -0.0000
 26 H      0.9470     1.0000     0.0530     0.9958     0.9958    -0.0000
[...]
     31      -0.022607   0.000021   0.006615   0.000033  -0.000012  -0.000025
     32       0.047878   0.000010  -0.009121   0.000040  -0.000089   0.000032
     33      -0.000456  -0.019087   0.000484   0.000008  -0.000037   0.000083
     34       0.000218   0.008492  -0.000212   0.000021  -0.000035   0.000043
     35       0.000205   0.004825  -0.000161  -0.000053  -0.000030  -0.000027
     36       0.000514  -0.086710   0.001449   0.000047  -0.000354   0.000428
     37       0.000226  -0.026229   0.000332  -0.000013   0.000520  -0.000356
     38      -0.000118   0.012835  -0.000144   0.000023  -0.000728   0.000490
     39       0.000284   0.016012  -0.000685   0.002650  -0.000346   0.001788
     40      -0.000249  -0.012860   0.000536  -0.001802  -0.000620  -0.000400
     41       0.000435   0.024357  -0.000971   0.002163   0.000852  -0.000366
     42       0.000179  -0.000215  -0.000778   0.480344   0.245301   0.368538
     43       0.000042   0.000056  -0.000155   0.058367   0.029105   0.043509
     44       0.000146  -0.000044  -0.000905   0.552329   0.277961   0.416991
     45       0.000232  -0.000782  -0.000176   0.439454  -0.271826  -0.399340
     46      -0.000217   0.000167   0.000063  -0.125498   0.076789   0.112749
     47      -0.000207   0.000908  -0.000019  -0.493899   0.301050   0.441366
     48       0.082143   0.004745   0.239519   0.000075   0.001121  -0.000574
     49       0.177684   0.010246   0.519669   0.000262   0.001309  -0.000539
     50      -0.016839  -0.000957  -0.047997  -0.000087  -0.000321   0.000238
     51       0.159773   0.012995   0.746876   0.000734  -0.001834   0.001877
     52      -0.015316  -0.001214  -0.069870  -0.000159  -0.000037   0.000082
     53       0.035707   0.002962   0.171894   0.000496  -0.000273  -0.000004
     54      -0.020036   0.000002   0.024485  -0.000084  -0.006010   0.004151
     55       0.025561  -0.000282  -0.054552   0.000095   0.006114  -0.004345
     56       0.028736  -0.000232  -0.055217  -0.000207   0.004545  -0.002935
     57      -0.765566  -0.000013   0.205992   0.000504  -0.000238   0.000405
     58       0.001207  -0.000025   0.000381   0.000186   0.000052  -0.000156
     59      -0.195316   0.000006   0.052553  -0.000026  -0.000010   0.000132
     60      -0.036012   0.000009   0.007656   0.000142  -0.000061  -0.000099
     61       0.161500   0.000009  -0.032874   0.000270  -0.000371   0.000077
     62      -0.489238  -0.000002   0.100234   0.000024   0.000553  -0.000609
     63      -0.079333   0.000077   0.033024   0.000248  -0.000366   0.000198
     64       0.111728  -0.000112  -0.045662  -0.000562   0.000691  -0.000280
     65       0.112992  -0.000099  -0.044665  -0.000424   0.000519  -0.000219
     66       0.004747   0.189578  -0.005070   0.000411  -0.000039  -0.000317
     67      -0.000390  -0.016298   0.000406   0.000198  -0.000049   0.000173
     68      -0.001077  -0.042546   0.001131   0.000016   0.000060   0.000071
     69       0.000214   0.007137  -0.000195   0.000209   0.000098   0.000114
     70      -0.001700  -0.051391   0.001433   0.000337   0.000428  -0.000079
     71      -0.002430  -0.073420   0.002028  -0.000164   0.000244  -0.000403
     72       0.000502   0.033069  -0.000745   0.000210  -0.000085   0.000137
     73      -0.000505  -0.032884   0.000740  -0.000389  -0.000114  -0.000052
     74       0.000934   0.058965  -0.001347   0.000554  -0.000011   0.000230
     75      -0.004371   0.766578  -0.013047   0.000740   0.003185  -0.002848
     76       0.000716  -0.126705   0.002162  -0.000316  -0.000278   0.000104
     77       0.000791  -0.143061   0.002454  -0.000450  -0.000439   0.000166
     78       0.000028   0.033646  -0.000938  -0.000023   0.006406  -0.004419
     79       0.000037  -0.046603   0.001177   0.000110  -0.005097   0.003674
     80      -0.000044   0.088717  -0.002289   0.000233   0.009090  -0.006126
     81      -0.001676   0.233955  -0.003498   0.000034  -0.001164   0.000582
     82      -0.003487   0.488614  -0.007354   0.000203  -0.001455   0.000605
     83       0.000688  -0.096181   0.001456   0.000028   0.000083   0.000069


-----------
IR SPECTRUM
-----------

 Mode   freq       eps      Int      T**2         TX        TY        TZ
       cm**-1   L/(mol*cm) km/mol    a.u.
----------------------------------------------------------------------------
  6:     28.55   0.000043    0.22  0.000466  ( 0.003627 -0.020609 -0.005272)
  7:     35.65   0.000034    0.17  0.000295  ( 0.000735 -0.009818  0.014062)
  8:     97.98   0.000048    0.24  0.000154  (-0.006889 -0.010231  0.001279)
  9:    139.95   0.000005    0.03  0.000012  ( 0.000625 -0.000882 -0.003251)
 10:    163.68   0.000000    0.00  0.000000  ( 0.000047 -0.000269 -0.000098)
 11:    235.48   0.000015    0.07  0.000019  ( 0.004378  0.000045 -0.000546)
 12:    246.43   0.000010    0.05  0.000012  (-0.000422 -0.000988 -0.003350)
 13:    286.71   0.000018    0.09  0.000019  ( 0.000181 -0.002995  0.003224)
 14:    287.30   0.000023    0.12  0.000025  ( 0.001596 -0.004313 -0.001961)
 15:    303.13   0.000068    0.35  0.000070  (-0.007848 -0.002896 -0.000718)
 16:    321.79   0.000013    0.06  0.000012  ( 0.000426 -0.000388  0.003442)
 17:    342.58   0.000045    0.23  0.000041  (-0.005772  0.002788  0.000530)
 18:    414.70   0.000062    0.31  0.000047  ( 0.003101 -0.006040  0.000778)
 19:    442.65   0.000077    0.39  0.000054  (-0.000183  0.001294  0.007265)
 20:    475.39   0.000003    0.02  0.000002  (-0.000876  0.000307  0.001181)
 21:    511.80   0.000281    1.42  0.000171  (-0.011404  0.006376 -0.000775)
 22:    604.42   0.000421    2.13  0.000217  ( 0.000292 -0.001799 -0.014626)
 23:    675.43   0.013538   68.41  0.006255  (-0.000646  0.077943 -0.013389)
 24:    681.67   0.000107    0.54  0.000049  (-0.000749  0.003083 -0.006245)
 25:    696.79   0.000614    3.10  0.000275  (-0.011884 -0.011498  0.001297)
 26:    771.50   0.009431   47.66  0.003815  ( 0.008569  0.060272 -0.010426)
 27:    890.22   0.005302   26.79  0.001858  ( 0.008902  0.041504 -0.007531)
 28:    912.49   0.000187    0.95  0.000064  ( 0.000546 -0.000543 -0.007968)
 29:    917.29   0.000030    0.15  0.000010  (-0.000723 -0.002488 -0.001843)
 30:    918.00   0.000493    2.49  0.000168  ( 0.011148 -0.006582  0.000231)
 31:    941.75   0.000783    3.96  0.000259  (-0.001193 -0.015361 -0.004686)
 32:    943.76   0.000795    4.02  0.000263  (-0.000447 -0.013432  0.009068)
 33:    964.25   0.000206    1.04  0.000067  (-0.000808  0.006224  0.005210)
 34:    968.36   0.000214    1.08  0.000069  ( 0.000625 -0.006274  0.005409)
 35:   1026.09   0.003440   17.38  0.001046  ( 0.032199 -0.002984  0.000750)
 36:   1037.13   0.000105    0.53  0.000032  ( 0.001322 -0.001251 -0.005320)
 37:   1105.02   0.003761   19.00  0.001062  (-0.002075 -0.005619 -0.032034)
 38:   1126.32   0.000524    2.65  0.000145  (-0.011398 -0.003196  0.002276)
 39:   1136.97   0.000355    1.79  0.000097  (-0.000363 -0.001703 -0.009718)
 40:   1168.03   0.015837   80.03  0.004231  (-0.064861  0.004881 -0.000574)
 41:   1172.29   0.000342    1.73  0.000091  (-0.005043  0.001193  0.008016)
 42:   1174.85   0.006639   33.55  0.001763  ( 0.026699 -0.032077  0.004645)
 43:   1191.98   0.001021    5.16  0.000267  (-0.003809  0.001286  0.015844)
 44:   1217.44   0.032993  166.73  0.008457  ( 0.091955 -0.000476  0.000962)
 45:   1269.94   0.007882   39.83  0.001937  (-0.043834 -0.003936  0.000001)
 46:   1338.33   0.000078    0.39  0.000018  ( 0.001186  0.000645  0.004036)
 47:   1350.52   0.000281    1.42  0.000065  ( 0.007671 -0.002206 -0.001147)
 48:   1353.54   0.000361    1.82  0.000083  (-0.008579 -0.001351 -0.002781)
 49:   1367.71   0.010241   51.76  0.002337  (-0.047762 -0.007294  0.001501)
 50:   1392.34   0.002173   10.98  0.000487  (-0.000232  0.002553  0.021922)
 51:   1403.53   0.007514   37.97  0.001671  ( 0.009881  0.039645 -0.001158)
 52:   1404.84   0.000068    0.34  0.000015  (-0.003198  0.000994 -0.001947)
 53:   1407.96   0.004427   22.37  0.000981  (-0.017498 -0.000448  0.025976)
 54:   1410.83   0.006838   34.56  0.001513  ( 0.009604  0.005613  0.037266)
 55:   1445.90   0.000037    0.19  0.000008  ( 0.002162 -0.001424  0.001096)
 56:   1446.51   0.000004    0.02  0.000001  ( 0.000670 -0.000545  0.000151)
 57:   1450.59   0.000225    1.14  0.000049  (-0.000753  0.006920 -0.000225)
 58:   1455.54   0.002973   15.03  0.000637  ( 0.000086 -0.002829 -0.025089)
 59:   1461.50   0.005933   29.98  0.001267  (-0.024677  0.022925 -0.011500)
 60:   1464.11   0.003926   19.84  0.000837  (-0.011176  0.009687  0.024861)
 61:   1471.28   0.001003    5.07  0.000213  ( 0.011074  0.008487  0.004255)
 62:   1476.36   0.000054    0.27  0.000011  (-0.000421 -0.001176  0.003133)
 63:   1485.15   0.000599    3.03  0.000126  ( 0.010446  0.004041  0.000610)
 64:   1509.23   0.000316    1.60  0.000065  ( 0.000449  0.001658  0.007905)
 65:   1649.27   0.027360  138.26  0.005177  ( 0.071793 -0.000012 -0.004753)
 66:   1650.82   0.004029   20.36  0.000762  (-0.020971 -0.003319 -0.017633)
 67:   3069.67   0.002509   12.68  0.000255  ( 0.004870  0.014833 -0.003357)
 68:   3070.33   0.002405   12.15  0.000244  (-0.005395 -0.014672  0.000155)
 69:   3074.00   0.001598    8.07  0.000162  ( 0.001092  0.004638  0.011811)
 70:   3075.78   0.001794    9.07  0.000182  ( 0.001258  0.002036 -0.013278)
 71:   3132.62   0.000943    4.76  0.000094  ( 0.005898 -0.006138 -0.004631)
 72:   3133.04   0.000985    4.98  0.000098  (-0.006005  0.004471 -0.006484)
 73:   3175.01   0.001575    7.96  0.000155  (-0.005202 -0.000603  0.011288)
 74:   3175.26   0.000939    4.75  0.000092  (-0.000053 -0.009603 -0.000292)
 75:   3177.80   0.005128   25.91  0.000504  (-0.009275  0.007495 -0.019009)
 76:   3178.86   0.004346   21.96  0.000427  (-0.008433  0.014465  0.012094)
 77:   3186.56   0.001998   10.10  0.000196  ( 0.009766 -0.008843 -0.004697)
 78:   3187.57   0.001902    9.61  0.000186  ( 0.009211 -0.007183  0.007055)
 79:   3190.04   0.002368   11.97  0.000232  (-0.014783 -0.003185  0.001724)
 80:   3191.10   0.002252   11.38  0.000220  (-0.014203 -0.004058 -0.001426)
 81:   3298.91   0.005402   27.30  0.000511  ( 0.022523 -0.001581  0.001131)
 82:   3314.04   0.014329   72.41  0.001349  (-0.000775  0.006565  0.036133)
 83:   3318.05   0.000016    0.08  0.000001  (-0.000976  0.000126 -0.000705)

* The epsilon (eps) is given for a Dirac delta lineshape.
** The dipole moment derivative (T) already includes vibrational overlap.

The first frequency considered to be a vibration is 6
The total number of vibrations considered is 78


--------------------------
THERMOCHEMISTRY AT 298.15K
--------------------------

Temperature         ... 298.15 K
Pressure            ... 1.00 atm
Total Mass          ... 153.25 AMU

Throughout the following assumptions are being made:
  (1) The electronic state is orbitally nondegenerate
  (2) There are no thermally accessible electronically excited states
  (3) Hindered rotations indicated by low frequency modes are not
      treated as such but are treated as vibrations and this may
      cause some error
  (4) All equations used are the standard statistical mechanics
      equations for an ideal gas
  (5) All vibrations are strictly harmonic

freq.      28.55  E(vib)   ...       0.55 
freq.      35.65  E(vib)   ...       0.54 
freq.      97.98  E(vib)   ...       0.46 
freq.     139.95  E(vib)   ...       0.41 
freq.     163.68  E(vib)   ...       0.39 
freq.     235.48  E(vib)   ...       0.32 
freq.     246.43  E(vib)   ...       0.31 
freq.     286.71  E(vib)   ...       0.27 
freq.     287.30  E(vib)   ...       0.27 
freq.     303.13  E(vib)   ...       0.26 
freq.     321.79  E(vib)   ...       0.25 
freq.     342.58  E(vib)   ...       0.23 
freq.     414.70  E(vib)   ...       0.19 
freq.     442.65  E(vib)   ...       0.17 
freq.     475.39  E(vib)   ...       0.15 
freq.     511.80  E(vib)   ...       0.14 
freq.     604.42  E(vib)   ...       0.10 
freq.     675.43  E(vib)   ...       0.08 
freq.     681.67  E(vib)   ...       0.08 
freq.     696.79  E(vib)   ...       0.07 
freq.     771.50  E(vib)   ...       0.05 
freq.     890.22  E(vib)   ...       0.04 
freq.     912.49  E(vib)   ...       0.03 
freq.     917.29  E(vib)   ...       0.03 
freq.     918.00  E(vib)   ...       0.03 
freq.     941.75  E(vib)   ...       0.03 
freq.     943.76  E(vib)   ...       0.03 
freq.     964.25  E(vib)   ...       0.03 
freq.     968.36  E(vib)   ...       0.03 
freq.    1026.09  E(vib)   ...       0.02 
freq.    1037.13  E(vib)   ...       0.02 
freq.    1105.02  E(vib)   ...       0.02 
freq.    1126.32  E(vib)   ...       0.01 
freq.    1136.97  E(vib)   ...       0.01 
freq.    1168.03  E(vib)   ...       0.01 
freq.    1172.29  E(vib)   ...       0.01 
freq.    1174.85  E(vib)   ...       0.01 
freq.    1191.98  E(vib)   ...       0.01 
freq.    1217.44  E(vib)   ...       0.01 
freq.    1269.94  E(vib)   ...       0.01 
freq.    1338.33  E(vib)   ...       0.01 
freq.    1350.52  E(vib)   ...       0.01 
freq.    1353.54  E(vib)   ...       0.01 
freq.    1367.71  E(vib)   ...       0.01 
freq.    1392.34  E(vib)   ...       0.00 
freq.    1403.53  E(vib)   ...       0.00 
freq.    1404.84  E(vib)   ...       0.00 
freq.    1407.96  E(vib)   ...       0.00 
freq.    1410.83  E(vib)   ...       0.00 
freq.    1445.90  E(vib)   ...       0.00 
freq.    1446.51  E(vib)   ...       0.00 
freq.    1450.59  E(vib)   ...       0.00 
freq.    1455.54  E(vib)   ...       0.00 
freq.    1461.50  E(vib)   ...       0.00 
freq.    1464.11  E(vib)   ...       0.00 
freq.    1471.28  E(vib)   ...       0.00 
freq.    1476.36  E(vib)   ...       0.00 
freq.    1485.15  E(vib)   ...       0.00 
freq.    1509.23  E(vib)   ...       0.00 
freq.    1649.27  E(vib)   ...       0.00 
freq.    1650.82  E(vib)   ...       0.00 
freq.    3069.67  E(vib)   ...       0.00 
freq.    3070.33  E(vib)   ...       0.00 
freq.    3074.00  E(vib)   ...       0.00 
freq.    3075.78  E(vib)   ...       0.00 
freq.    3132.62  E(vib)   ...       0.00 
freq.    3133.04  E(vib)   ...       0.00 
freq.    3175.01  E(vib)   ...       0.00 
freq.    3175.26  E(vib)   ...       0.00 
freq.    3177.80  E(vib)   ...       0.00 
freq.    3178.86  E(vib)   ...       0.00 
freq.    3186.56  E(vib)   ...       0.00 
freq.    3187.57  E(vib)   ...       0.00 
freq.    3190.04  E(vib)   ...       0.00 
freq.    3191.10  E(vib)   ...       0.00 
freq.    3298.91  E(vib)   ...       0.00 
freq.    3314.04  E(vib)   ...       0.00 
freq.    3318.05  E(vib)   ...       0.00 

------------
INNER ENERGY
------------

The inner energy is: U= E(el) + E(ZPE) + E(vib) + E(rot) + E(trans)
    E(el)   - is the total energy from the electronic structure calculation
              = E(kin-el) + E(nuc-el) + E(el-el) + E(nuc-nuc)
    E(ZPE)  - the the zero temperature vibrational energy from the frequency calculation
    E(vib)  - the the finite temperature correction to E(ZPE) due to population
              of excited vibrational states
    E(rot)  - is the rotational thermal energy
    E(trans)- is the translational thermal energy

Summary of contributions to the inner energy U:
Electronic energy                ...   -462.13543609 Eh
Zero point energy                ...      0.25558809 Eh     160.38 kcal/mol
Thermal vibrational correction   ...      0.00919731 Eh       5.77 kcal/mol
Thermal rotational correction    ...      0.00141627 Eh       0.89 kcal/mol
Thermal translational correction ...      0.00141627 Eh       0.89 kcal/mol
-----------------------------------------------------------------------
Total thermal energy                   -461.86781814 Eh


Summary of corrections to the electronic energy:
(perhaps to be used in another calculation)
Total thermal correction                  0.01202985 Eh       7.55 kcal/mol
Non-thermal (ZPE) correction              0.25558809 Eh     160.38 kcal/mol
-----------------------------------------------------------------------
Total correction                          0.26761794 Eh     167.93 kcal/mol


--------
ENTHALPY
--------

The enthalpy is H = U + kB*T
                kB is Boltzmann's constant
Total free energy                 ...   -461.86781814 Eh 
Thermal Enthalpy correction       ...      0.00094421 Eh       0.59 kcal/mol
-----------------------------------------------------------------------
Total Enthalpy                    ...   -461.86687394 Eh


Note: Only C1 symmetry has been detected, increase convergence thresholds 
      if your molecule has a higher symmetry. Symmetry factor of 1.0 is   
      used for the rotational entropy correction. 
 

Note: Rotational entropy computed according to Herzberg 
Infrared and Raman Spectra, Chapter V,1, Van Nostrand Reinhold, 1945 
Point Group:  C1, Symmetry Number:   1  
Rotational constants in cm-1:     0.069356     0.021053     0.019200 

Vibrational entropy computed according to the QRRHO of S. Grimme
Chem.Eur.J. 2012 18 9955


-------
ENTROPY
-------

The entropy contributions are T*S = T*(S(el)+S(vib)+S(rot)+S(trans))
     S(el)   - electronic entropy
     S(vib)  - vibrational entropy
     S(rot)  - rotational entropy
     S(trans)- translational entropy
The entropies will be listed as multiplied by the temperature to get
units of energy

Electronic entropy                ...      0.00000000 Eh      0.00 kcal/mol
Vibrational entropy               ...      0.01595056 Eh     10.01 kcal/mol
Rotational entropy                ...      0.01445929 Eh      9.07 kcal/mol
Translational entropy             ...      0.01947584 Eh     12.22 kcal/mol
-----------------------------------------------------------------------
Final entropy term                ...      0.04988569 Eh     31.30 kcal/mol

In case the symmetry of your molecule has not been determined correctly
or in case you have a reason to use a different symmetry number we print 
out the resulting rotational entropy values for sn=1,12 :
 --------------------------------------------------------
|  sn= 1 | S(rot)=       0.01445929 Eh      9.07 kcal/mol|
|  sn= 2 | S(rot)=       0.01380483 Eh      8.66 kcal/mol|
|  sn= 3 | S(rot)=       0.01342200 Eh      8.42 kcal/mol|
|  sn= 4 | S(rot)=       0.01315038 Eh      8.25 kcal/mol|
|  sn= 5 | S(rot)=       0.01293969 Eh      8.12 kcal/mol|
|  sn= 6 | S(rot)=       0.01276754 Eh      8.01 kcal/mol|
|  sn= 7 | S(rot)=       0.01262200 Eh      7.92 kcal/mol|
|  sn= 8 | S(rot)=       0.01249592 Eh      7.84 kcal/mol|
|  sn= 9 | S(rot)=       0.01238471 Eh      7.77 kcal/mol|
|  sn=10 | S(rot)=       0.01228523 Eh      7.71 kcal/mol|
|  sn=11 | S(rot)=       0.01219524 Eh      7.65 kcal/mol|
|  sn=12 | S(rot)=       0.01211309 Eh      7.60 kcal/mol|
 --------------------------------------------------------


-------------------
GIBBS FREE ENERGY
-------------------

The Gibbs free energy is G = H - T*S

Total enthalpy                    ...   -461.86687394 Eh 
Total entropy correction          ...     -0.04988569 Eh    -31.30 kcal/mol
-----------------------------------------------------------------------
Final Gibbs free energy         ...   -461.91675962 Eh

For completeness - the Gibbs free energy minus the electronic energy
G-E(el)                           ...      0.21867646 Eh    137.22 kcal/mol


Timings for individual modules:

Sum of individual times         ...     5441.511 sec (=  90.692 min)
GTO integral calculation        ...        4.785 sec (=   0.080 min)   0.1 %
SCF iterations                  ...     2932.077 sec (=  48.868 min)  53.9 %
SCF Gradient evaluation         ...      860.722 sec (=  14.345 min)  15.8 %
Geometry relaxation             ...        0.864 sec (=   0.014 min)   0.0 %
Analytical frequency calculation...     1643.064 sec (=  27.384 min)  30.2 %
                             ****ORCA TERMINATED NORMALLY****
TOTAL RUN TIME: 0 days 1 hours 30 minutes 43 seconds 510 msec
