
                                 *****************
                                 * O   R   C   A *
                                 *****************

                                            #,                                       
                                            ###                                      
                                            ####                                     
                                            #####                                    
                                            ######                                   
                                           ########,                                 
                                     ,,################,,,,,                         
                               ,,#################################,,                 
                          ,,##########################################,,             
                       ,#########################################, ''#####,          
                    ,#############################################,,   '####,        
                  ,##################################################,,,,####,       
                ,###########''''           ''''###############################       
              ,#####''   ,,,,##########,,,,          '''####'''          '####       
            ,##' ,,,,###########################,,,                        '##       
           ' ,,###''''                  '''############,,,                           
         ,,##''                                '''############,,,,        ,,,,,,###''
      ,#''                                            '''#######################'''  
     '                                                          ''''####''''         
             ,#######,   #######,   ,#######,      ##                                
            ,#'     '#,  ##    ##  ,#'     '#,    #''#        ######   ,####,        
            ##       ##  ##   ,#'  ##            #'  '#       #        #'  '#        
            ##       ##  #######   ##           ,######,      #####,   #    #        
            '#,     ,#'  ##    ##  '#,     ,#' ,#      #,         ##   #,  ,#        
             '#######'   ##     ##  '#######'  #'      '#     #####' # '####'        



                  #######################################################
                  #                        -***-                        #
                  #          Department of theory and spectroscopy      #
                  #    Directorship and core code : Frank Neese         #
                  #        Max Planck Institute fuer Kohlenforschung    #
                  #                Kaiser Wilhelm Platz 1               #
                  #                 D-45470 Muelheim/Ruhr               #
                  #                      Germany                        #
                  #                                                     #
                  #                  All rights reserved                #
                  #                        -***-                        #
                  #######################################################


                         Program Version 5.0.4 -  RELEASE  -


 With contributions from (in alphabetic order):
   Daniel Aravena         : Magnetic Suceptibility
   Michael Atanasov       : Ab Initio Ligand Field Theory (pilot matlab implementation)
   Alexander A. Auer      : GIAO ZORA, VPT2 properties, NMR spectrum
   Ute Becker             : Parallelization
   Giovanni Bistoni       : ED, misc. LED, open-shell LED, HFLD
   Martin Brehm           : Molecular dynamics
   Dmytro Bykov           : SCF Hessian
   Vijay G. Chilkuri      : MRCI spin determinant printing, contributions to CSF-ICE
   Dipayan Datta          : RHF DLPNO-CCSD density
   Achintya Kumar Dutta   : EOM-CC, STEOM-CC
   Dmitry Ganyushin       : Spin-Orbit,Spin-Spin,Magnetic field MRCI
   Miquel Garcia          : C-PCM and meta-GGA Hessian, CC/C-PCM, Gaussian charge scheme
   Yang Guo               : DLPNO-NEVPT2, F12-NEVPT2, CIM, IAO-localization
   Andreas Hansen         : Spin unrestricted coupled pair/coupled cluster methods
   Benjamin Helmich-Paris : MC-RPA, TRAH-SCF, COSX integrals
   Lee Huntington         : MR-EOM, pCC
   Robert Izsak           : Overlap fitted RIJCOSX, COSX-SCS-MP3, EOM
   Marcus Kettner         : VPT2
   Christian Kollmar      : KDIIS, OOCD, Brueckner-CCSD(T), CCSD density, CASPT2, CASPT2-K
   Simone Kossmann        : Meta GGA functionals, TD-DFT gradient, OOMP2, MP2 Hessian
   Martin Krupicka        : Initial AUTO-CI
   Lucas Lang             : DCDCAS
   Marvin Lechner         : AUTO-CI (C++ implementation), FIC-MRCC
   Dagmar Lenk            : GEPOL surface, SMD
   Dimitrios Liakos       : Extrapolation schemes; Compound Job, initial MDCI parallelization
   Dimitrios Manganas     : Further ROCIS development; embedding schemes
   Dimitrios Pantazis     : SARC Basis sets
   Anastasios Papadopoulos: AUTO-CI, single reference methods and gradients
   Taras Petrenko         : DFT Hessian,TD-DFT gradient, ASA, ECA, R-Raman, ABS, FL, XAS/XES, NRVS
   Peter Pinski           : DLPNO-MP2, DLPNO-MP2 Gradient
   Christoph Reimann      : Effective Core Potentials
   Marius Retegan         : Local ZFS, SOC
   Christoph Riplinger    : Optimizer, TS searches, QM/MM, DLPNO-CCSD(T), (RO)-DLPNO pert. Triples
   Tobias Risthaus        : Range-separated hybrids, TD-DFT gradient, RPA, STAB
   Michael Roemelt        : Original ROCIS implementation
   Masaaki Saitow         : Open-shell DLPNO-CCSD energy and density
   Barbara Sandhoefer     : DKH picture change effects
   Avijit Sen             : IP-ROCIS
   Kantharuban Sivalingam : CASSCF convergence, NEVPT2, FIC-MRCI
   Bernardo de Souza      : ESD, SOC TD-DFT
   Georgi Stoychev        : AutoAux, RI-MP2 NMR, DLPNO-MP2 response
   Willem Van den Heuvel  : Paramagnetic NMR
   Boris Wezisla          : Elementary symmetry handling
   Frank Wennmohs         : Technical directorship


 We gratefully acknowledge several colleagues who have allowed us to
 interface, adapt or use parts of their codes:
   Stefan Grimme, W. Hujo, H. Kruse, P. Pracht,  : VdW corrections, initial TS optimization,
                  C. Bannwarth, S. Ehlert          DFT functionals, gCP, sTDA/sTD-DF
   Ed Valeev, F. Pavosevic, A. Kumar             : LibInt (2-el integral package), F12 methods
   Garnet Chan, S. Sharma, J. Yang, R. Olivares  : DMRG
   Ulf Ekstrom                                   : XCFun DFT Library
   Mihaly Kallay                                 : mrcc  (arbitrary order and MRCC methods)
   Jiri Pittner, Ondrej Demel                    : Mk-CCSD
   Frank Weinhold                                : gennbo (NPA and NBO analysis)
   Christopher J. Cramer and Donald G. Truhlar   : smd solvation model
   Lars Goerigk                                  : TD-DFT with DH, B97 family of functionals
   V. Asgeirsson, H. Jonsson                     : NEB implementation
   FAccTs GmbH                                   : IRC, NEB, NEB-TS, DLPNO-Multilevel, CI-OPT
                                                   MM, QMMM, 2- and 3-layer-ONIOM, Crystal-QMMM,
                                                   LR-CPCM, SF, NACMEs, symmetry and pop. for TD-DFT,
                                                   nearIR, NL-DFT gradient (VV10), updates on ESD,
                                                   ML-optimized integration grids
   S Lehtola, MJT Oliveira, MAL Marques          : LibXC Library
   Liviu Ungur et al                             : ANISO software


 Your calculation uses the libint2 library for the computation of 2-el integrals
 For citations please refer to: http://libint.valeyev.net

 Your ORCA version has been built with support for libXC version: 5.1.0
 For citations please refer to: https://tddft.org/programs/libxc/

 This ORCA versions uses:
   CBLAS   interface :  Fast vector & matrix operations
   LAPACKE interface :  Fast linear algebra routines
   SCALAPACK package :  Parallel linear algebra routines
   Shared memory     :  Shared parallel matrices
   BLAS/LAPACK       :  OpenBLAS 0.3.15  USE64BITINT DYNAMIC_ARCH NO_AFFINITY SkylakeX SINGLE_THREADED
        Core in use  :  SkylakeX
   Copyright (c) 2011-2014, The OpenBLAS Project




***************************************
The coordinates will be read from file: 4_prot_aq_4.xyz
***************************************


Your calculation utilizes the atom-pairwise dispersion correction
based on tight binding partial charges (D4)
Cite in your paper:
E.Caldeweyher, C.Bannwarth, S.Grimme, J.Chem.Phys., (2017), 147, 034112.
E.Caldeweyher, S.Ehlert, A.Hansen, H.Neugebauer, S.Grimme, J.Chem.Phys., (2018), in progress.
   

XCFun DFT library Copyright 2009-2010 Ulf Ekstrom and contributors.
See http://admol.org/xcfun for more information.
This is free software; see the source code for copying conditions.
There is ABSOLUTELY NO WARRANTY; not even for MERCHANTABILITY or FITNESS FOR A PARTICULAR PURPOSE.
For details see the documentation.
Scientific users of this library should cite U. Ekstrom, L. Visscher, R. Bast, A. J. Thorvaldsen and K. Ruud;
J.Chem.Theor.Comp. 2010, DOI: 10.1021/ct100117s
XCFun Version 0.99 

================================================================================

----- Orbital basis set information -----
Your calculation utilizes the basis: def2-SVP
   F. Weigend and R. Ahlrichs, Phys. Chem. Chem. Phys. 7, 3297 (2005).

----- AuxJ basis set information -----
Your calculation utilizes the auxiliary basis: def2/J
   F. Weigend, Phys. Chem. Chem. Phys. 8, 1057 (2006).

================================================================================
                                        WARNINGS
                       Please study these warnings very carefully!
================================================================================


WARNING: Geometry Optimization
  ===> : Switching off AutoStart
         For restart on a previous wavefunction, please use MOREAD

INFO   : the flag for use of the SHARK integral package has been found!

================================================================================
                                       INPUT FILE
================================================================================
NAME = 4_prot_aq_4.inp
|  1> # ORCA 5.0.4 - /users/bwb16179/postgrad/2024_03/DFT_Crest_Conformers/Opt/prot/4_prot_aq_4.inp # write input file
|  2> # Basic Mode
|  3> #
|  4> ! Opt Freq wB97X Def2-SVP D4 SlowConv TightSCF Defgrid2 Def2/J RIJCOSX CPCM(Water)
|  5> 
|  6> 
|  7> 
|  8> %maxcore 4500
|  9> 
| 10> %geom
| 11> Maxiter 150
| 12> END
| 13> 
| 14> * xyzfile 1 1 4_prot_aq_4.xyz
| 15> 
| 16>                          ****END OF INPUT****
================================================================================

                       *****************************
                       * Geometry Optimization Run *
                       *****************************

Geometry optimization settings:
Update method            Update   .... BFGS
Choice of coordinates    CoordSys .... Z-matrix Internals
Initial Hessian          InHess   .... Almoef's Model

Convergence Tolerances:
Energy Change            TolE     ....  5.0000e-06 Eh
Max. Gradient            TolMAXG  ....  3.0000e-04 Eh/bohr
RMS Gradient             TolRMSG  ....  1.0000e-04 Eh/bohr
Max. Displacement        TolMAXD  ....  4.0000e-03 bohr
RMS Displacement         TolRMSD  ....  2.0000e-03 bohr
Strict Convergence                ....  False
------------------------------------------------------------------------------
                        ORCA OPTIMIZATION COORDINATE SETUP
------------------------------------------------------------------------------

The optimization will be done in new redundant internal coordinates
Making redundant internal coordinates   ...  (new redundants) done
Evaluating the initial hessian          ...  (Almloef) done
Evaluating the coordinates              ...  done
Calculating the B-matrix                .... done
Calculating the G-matrix                .... done
Diagonalizing the G-matrix              .... done
Small eigenvalue found = 1.241e-02
Small eigenvalue found = 2.137e-02
The first mode is                       ....   69
The number of degrees of freedom        ....   78

    -----------------------------------------------------------------
                    Redundant Internal Coordinates


    -----------------------------------------------------------------
         Definition                    Initial Value    Approx d2E/dq
    -----------------------------------------------------------------
      1. B(C   1,N   0)                  1.3300         0.697665   
      2. B(N   2,C   1)                  1.3300         0.697704   
      3. B(H   3,C   1)                  1.0711         0.386008   
      4. B(C   4,N   2)                  1.3598         0.625289   
      5. B(C   5,C   4)                  1.3622         0.691882   
      6. B(C   5,N   0)                  1.3598         0.625301   
      7. B(C   6,N   0)                  1.4600         0.432750   
      8. B(C   7,N   2)                  1.4600         0.432766   
      9. B(C   8,C   6)                  1.5255         0.379764   
     10. B(H   9,C   6)                  1.0941         0.354747   
     11. B(C  10,C   6)                  1.5256         0.379704   
     12. B(C  11,C   7)                  1.5255         0.379762   
     13. B(C  12,C   7)                  1.5255         0.379738   
     14. B(H  13,C   7)                  1.0941         0.354762   
     15. B(H  14,C   4)                  1.0707         0.386527   
     16. B(H  15,C   5)                  1.0707         0.386531   
     17. B(H  16,C   8)                  1.0874         0.363580   
     18. B(H  17,C   8)                  1.0858         0.365750   
     19. B(H  18,C   8)                  1.0868         0.364398   
     20. B(H  19,C  10)                  1.0868         0.364321   
     21. B(H  20,C  10)                  1.0858         0.365754   
     22. B(H  21,C  10)                  1.0874         0.363591   
     23. B(H  22,C  11)                  1.0857         0.365778   
     24. B(H  23,C  11)                  1.0874         0.363560   
     25. B(H  24,C  11)                  1.0868         0.364383   
     26. B(H  25,C  12)                  1.0874         0.363555   
     27. B(H  26,C  12)                  1.0857         0.365816   
     28. B(H  27,C  12)                  1.0869         0.364276   
     29. A(C   1,N   0,C   6)          126.2766         0.410353   
     30. A(C   5,N   0,C   6)          125.8749         0.402486   
     31. A(C   1,N   0,C   5)          107.8484         0.438272   
     32. A(N   0,C   1,H   3)          125.1963         0.362084   
     33. A(N   2,C   1,H   3)          125.2100         0.362087   
     34. A(N   0,C   1,N   2)          109.5937         0.447041   
     35. A(C   1,N   2,C   7)          126.2881         0.410360   
     36. A(C   1,N   2,C   4)          107.8477         0.438274   
     37. A(C   4,N   2,C   7)          125.8641         0.402488   
     38. A(N   2,C   4,H  14)          122.7043         0.355478   
     39. A(C   5,C   4,H  14)          129.9399         0.363915   
     40. A(N   2,C   4,C   5)          107.3558         0.440505   
     41. A(N   0,C   5,C   4)          107.3543         0.440507   
     42. A(N   0,C   5,H  15)          122.7078         0.355480   
     43. A(C   4,C   5,H  15)          129.9379         0.363916   
     44. A(N   0,C   6,C  10)          109.8715         0.371340   
     45. A(C   8,C   6,H   9)          109.3282         0.324396   
     46. A(N   0,C   6,H   9)          106.0972         0.329464   
     47. A(N   0,C   6,C   8)          109.9041         0.371350   
     48. A(H   9,C   6,C  10)          109.3260         0.324388   
     49. A(C   8,C   6,C  10)          112.1295         0.365390   
     50. A(C  12,C   7,H  13)          109.3286         0.324395   
     51. A(C  11,C   7,H  13)          109.3281         0.324398   
     52. A(N   2,C   7,H  13)          106.0936         0.329468   
     53. A(C  11,C   7,C  12)          112.1376         0.365395   
     54. A(N   2,C   7,C  12)          109.8774         0.371348   
     55. A(N   2,C   7,C  11)          109.8907         0.371352   
     56. A(C   6,C   8,H  18)          111.3113         0.325831   
     57. A(H  16,C   8,H  17)          108.1581         0.291993   
     58. A(C   6,C   8,H  17)          109.3106         0.326029   
     59. A(C   6,C   8,H  16)          110.9261         0.325710   
     60. A(H  17,C   8,H  18)          108.0835         0.292097   
     61. A(H  16,C   8,H  18)          108.9555         0.291823   
     62. A(H  19,C  10,H  21)          108.9396         0.291815   
     63. A(C   6,C  10,H  21)          110.9323         0.325703   
     64. A(H  19,C  10,H  20)          108.1114         0.292087   
     65. A(C   6,C  10,H  20)          109.3138         0.326022   
     66. A(H  20,C  10,H  21)          108.1680         0.291995   
     67. A(C   6,C  10,H  19)          111.2817         0.325811   
     68. A(H  23,C  11,H  24)          108.9506         0.291819   
     69. A(H  22,C  11,H  24)          108.0929         0.292098   
     70. A(C   7,C  11,H  24)          111.2981         0.325828   
     71. A(H  22,C  11,H  23)          108.1592         0.291994   
     72. A(C   7,C  11,H  23)          110.9338         0.325707   
     73. A(C   7,C  11,H  22)          109.3109         0.326033   
     74. A(H  26,C  12,H  27)          108.1013         0.292089   
     75. A(H  25,C  12,H  27)          108.9472         0.291805   
     76. A(C   7,C  12,H  27)          111.2861         0.325809   
     77. A(H  25,C  12,H  26)          108.1663         0.291999   
     78. A(C   7,C  12,H  26)          109.3128         0.326035   
     79. A(C   7,C  12,H  25)          110.9326         0.325703   
     80. D(H   3,C   1,N   0,C   5)    179.9974         0.040252   
     81. D(H   3,C   1,N   0,C   6)      0.0002         0.040252   
     82. D(N   2,C   1,N   0,C   6)    179.9810         0.040252   
     83. D(N   2,C   1,N   0,C   5)     -0.0217         0.040252   
     84. D(C   7,N   2,C   1,H   3)      0.0008         0.040257   
     85. D(C   7,N   2,C   1,N   0)   -179.9800         0.040257   
     86. D(C   4,N   2,C   1,H   3)   -179.9981         0.040257   
     87. D(C   4,N   2,C   1,N   0)      0.0211         0.040257   
     88. D(H  14,C   4,N   2,C   1)   -179.9948         0.031703   
     89. D(C   5,C   4,N   2,C   7)    179.9890         0.031703   
     90. D(H  14,C   4,N   2,C   7)      0.0063         0.031703   
     91. D(C   5,C   4,N   2,C   1)     -0.0121         0.031703   
     92. D(H  15,C   5,N   0,C   1)   -179.9870         0.031704   
     93. D(C   4,C   5,N   0,C   6)   -179.9889         0.031704   
     94. D(C   4,C   5,N   0,C   1)      0.0138         0.031704   
     95. D(H  15,C   5,C   4,H  14)     -0.0192         0.033649   
     96. D(H  15,C   5,C   4,N   2)    179.9998         0.033649   
     97. D(N   0,C   5,C   4,H  14)    179.9800         0.033649   
     98. D(N   0,C   5,C   4,N   2)     -0.0010         0.033649   
     99. D(H  15,C   5,N   0,C   6)      0.0103         0.031704   
    100. D(C  10,C   6,N   0,C   5)   -117.3295         0.015967   
    101. D(C  10,C   6,N   0,C   1)     62.6673         0.015967   
    102. D(H   9,C   6,N   0,C   5)      0.7411         0.015967   
    103. D(H   9,C   6,N   0,C   1)   -179.2621         0.015967   
    104. D(C   8,C   6,N   0,C   5)    118.8311         0.015967   
    105. D(C   8,C   6,N   0,C   1)    -61.1720         0.015967   
    106. D(C  12,C   7,N   2,C   4)    117.8683         0.015968   
    107. D(C  11,C   7,N   2,C   4)   -118.2873         0.015968   
    108. D(C  11,C   7,N   2,C   1)     61.7140         0.015968   
    109. D(H  13,C   7,N   2,C   1)    179.7950         0.015968   
    110. D(C  12,C   7,N   2,C   1)    -62.1304         0.015968   
    111. D(H  13,C   7,N   2,C   4)     -0.2063         0.015968   
    112. D(H  18,C   8,C   6,C  10)    -55.4438         0.011495   
    113. D(H  18,C   8,C   6,H   9)   -176.8589         0.011495   
    114. D(H  18,C   8,C   6,N   0)     67.0696         0.011495   
    115. D(H  17,C   8,C   6,C  10)     63.8799         0.011495   
    116. D(H  17,C   8,C   6,H   9)    -57.5351         0.011495   
    117. D(H  17,C   8,C   6,N   0)   -173.6066         0.011495   
    118. D(H  16,C   8,C   6,C  10)   -176.9420         0.011495   
    119. D(H  16,C   8,C   6,H   9)     61.6429         0.011495   
    120. D(H  16,C   8,C   6,N   0)    -54.4286         0.011495   
    121. D(H  21,C  10,C   6,H   9)    -61.0404         0.011492   
    122. D(H  21,C  10,C   6,C   8)    177.5433         0.011492   
    123. D(H  21,C  10,C   6,N   0)     55.0114         0.011492   
    124. D(H  20,C  10,C   6,H   9)     58.1557         0.011492   
    125. D(H  20,C  10,C   6,C   8)    -63.2606         0.011492   
    126. D(H  20,C  10,C   6,N   0)    174.2075         0.011492   
    127. D(H  19,C  10,C   6,H   9)    177.4978         0.011492   
    128. D(H  19,C  10,C   6,C   8)     56.0815         0.011492   
    129. D(H  19,C  10,C   6,N   0)    -66.4504         0.011492   
    130. D(H  24,C  11,C   7,C  12)     55.5274         0.011495   
    131. D(H  24,C  11,C   7,N   2)    -66.9896         0.011495   
    132. D(H  23,C  11,C   7,H  13)    -61.5609         0.011495   
    133. D(H  23,C  11,C   7,C  12)    177.0155         0.011495   
    134. D(H  23,C  11,C   7,N   2)     54.4986         0.011495   
    135. D(H  22,C  11,C   7,H  13)     57.6235         0.011495   
    136. D(H  22,C  11,C   7,C  12)    -63.8001         0.011495   
    137. D(H  24,C  11,C   7,H  13)    176.9509         0.011495   
    138. D(H  22,C  11,C   7,N   2)    173.6830         0.011495   
    139. D(H  26,C  12,C   7,N   2)   -173.8931         0.011494   
    140. D(H  25,C  12,C   7,H  13)     61.3527         0.011494   
    141. D(H  25,C  12,C   7,C  11)   -177.2240         0.011494   
    142. D(H  25,C  12,C   7,N   2)    -54.6995         0.011494   
    143. D(H  27,C  12,C   7,H  13)   -177.1725         0.011494   
    144. D(H  27,C  12,C   7,C  11)    -55.7492         0.011494   
    145. D(H  27,C  12,C   7,N   2)     66.7753         0.011494   
    146. D(H  26,C  12,C   7,H  13)    -57.8409         0.011494   
    147. D(H  26,C  12,C   7,C  11)     63.5824         0.011494   
    -----------------------------------------------------------------

Number of atoms                         .... 28
Number of degrees of freedom            .... 147

         *************************************************************
         *                GEOMETRY OPTIMIZATION CYCLE   1            *
         *************************************************************
---------------------------------
CARTESIAN COORDINATES (ANGSTROEM)
---------------------------------
  N     -1.086734   -0.007538    0.421482
  C     -0.000049    0.010369   -0.345082
  N      1.086728   -0.008954    0.421290
  H     -0.000251    0.036668   -1.415847
  C      0.681195   -0.040678    1.718808
  C     -0.681042   -0.039806    1.718932
  C     -2.471129    0.005015   -0.042000
  C      2.471143    0.001806   -0.042144
  C     -2.742896    1.281651   -0.831667
  H     -3.092567   -0.003032    0.858419
  C     -2.754713   -1.249535   -0.862395
  C      2.748043    1.284412   -0.820274
  C      2.749488   -1.246527   -0.873696
  H      3.092499   -0.016834    0.858162
  H      1.368643   -0.061078    2.539445
  H     -1.368336   -0.059600    2.539709
  H     -2.483866    2.161850   -0.248098
  H     -3.799809    1.335584   -1.074368
  H     -2.181848    1.297424   -1.762283
  H     -2.184986   -1.252772   -1.787919
  H     -3.810042   -1.282112   -1.115561
  H     -2.513935   -2.146356   -0.296602
  H      3.804879    1.335546   -1.063825
  H      2.493897    2.160476   -0.228368
  H      2.185765    1.311318   -1.749904
  H      2.499784   -2.147192   -0.317917
  H      3.805654   -1.284151   -1.122432
  H      2.184118   -1.236473   -1.801879

----------------------------
CARTESIAN COORDINATES (A.U.)
----------------------------
  NO LB      ZA    FRAG     MASS         X           Y           Z
   0 N     7.0000    0    14.007   -2.053630   -0.014245    0.796486
   1 C     6.0000    0    12.011   -0.000093    0.019595   -0.652110
   2 N     7.0000    0    14.007    2.053618   -0.016921    0.796123
   3 H     1.0000    0     1.008   -0.000474    0.069292   -2.675563
   4 C     6.0000    0    12.011    1.287272   -0.076871    3.248077
   5 C     6.0000    0    12.011   -1.286983   -0.075222    3.248310
   6 C     6.0000    0    12.011   -4.669757    0.009476   -0.079369
   7 C     6.0000    0    12.011    4.669784    0.003414   -0.079640
   8 C     6.0000    0    12.011   -5.183321    2.421970   -1.571623
   9 H     1.0000    0     1.008   -5.844104   -0.005729    1.622177
  10 C     6.0000    0    12.011   -5.205654   -2.361280   -1.629690
  11 C     6.0000    0    12.011    5.193049    2.427186   -1.550094
  12 C     6.0000    0    12.011    5.195779   -2.355594   -1.651046
  13 H     1.0000    0     1.008    5.843976   -0.031812    1.621690
  14 H     1.0000    0     1.008    2.586361   -0.115420    4.798856
  15 H     1.0000    0     1.008   -2.585780   -0.112627    4.799354
  16 H     1.0000    0     1.008   -4.693826    4.085305   -0.468838
  17 H     1.0000    0     1.008   -7.180599    2.523888   -2.030262
  18 H     1.0000    0     1.008   -4.123095    2.451776   -3.330232
  19 H     1.0000    0     1.008   -4.129026   -2.367396   -3.378677
  20 H     1.0000    0     1.008   -7.199935   -2.422841   -2.108106
  21 H     1.0000    0     1.008   -4.750649   -4.056025   -0.560497
  22 H     1.0000    0     1.008    7.190180    2.523816   -2.010339
  23 H     1.0000    0     1.008    4.712782    4.082708   -0.431553
  24 H     1.0000    0     1.008    4.130497    2.478033   -3.306840
  25 H     1.0000    0     1.008    4.723908   -4.057605   -0.600776
  26 H     1.0000    0     1.008    7.191644   -2.426694   -2.121089
  27 H     1.0000    0     1.008    4.127386   -2.336596   -3.405058

--------------------------------
INTERNAL COORDINATES (ANGSTROEM)
--------------------------------
 N      0   0   0     0.000000000000     0.00000000     0.00000000
 C      1   0   0     1.329971664206     0.00000000     0.00000000
 N      2   1   0     1.329956323250   109.59370329     0.00000000
 H      2   1   3     1.071088043667   125.19627110   180.01918935
 C      3   2   1     1.359785585509   107.84774359     0.00000000
 C      1   2   3     1.359780365013   107.84844825     0.00000000
 C      1   2   3     1.459973314628   126.27662124   179.98096582
 C      3   2   1     1.459963385093   126.28813493   180.01997298
 C      7   1   2     1.525526925883   109.90413846   298.82796445
 H      7   1   2     1.094076993902   106.09720533   180.73788383
 C      7   1   2     1.525569749578   109.87151956    62.66729224
 C      8   3   2     1.525528240551   109.89068811    61.71399845
 C      8   3   2     1.525545743518   109.87739415   297.86958505
 H      8   3   2     1.094065694046   106.09356988   179.79495805
 H      5   3   2     1.070722388408   122.70428635   180.00521013
 H      6   1   2     1.070719236124   122.70780574   180.01302319
 H      9   7   1     1.087381974711   110.92610280   305.57139229
 H      9   7   1     1.085762111072   109.31058432   186.39335349
 H      9   7   1     1.086770007752   111.31132301    67.06958039
 H     11   7   1     1.086827570458   111.28174691   293.54960857
 H     11   7   1     1.085758884151   109.31380388   174.20750628
 H     11   7   1     1.087374070684   110.93225860    55.01138710
 H     12   8   3     1.085741242438   109.31088668   173.68296682
 H     12   8   3     1.087396739059   110.93382642    54.49860925
 H     12   8   3     1.086781165552   111.29813318   293.01042692
 H     13   8   3     1.087400480658   110.93262428   305.30047806
 H     13   8   3     1.085712712445   109.31283630   186.10688021
 H     13   8   3     1.086861655497   111.28605249    66.77525503

---------------------------
INTERNAL COORDINATES (A.U.)
---------------------------
 N      0   0   0     0.000000000000     0.00000000     0.00000000
 C      1   0   0     2.513282211225     0.00000000     0.00000000
 N      2   1   0     2.513253221020   109.59370329     0.00000000
 H      2   1   3     2.024063067849   125.19627110   180.01918935
 C      3   2   1     2.569622357466   107.84774359     0.00000000
 C      1   2   3     2.569612492157   107.84844825     0.00000000
 C      1   2   3     2.758949727481   126.27662124   179.98096582
 C      3   2   1     2.758930963379   126.28813493   180.01997298
 C      7   1   2     2.882828099842   109.90413846   298.82796445
 H      7   1   2     2.067505887898   106.09720533   180.73788383
 C      7   1   2     2.882909024897   109.87151956    62.66729224
 C      8   3   2     2.882830584204   109.89068811    61.71399845
 C      8   3   2     2.882863660017   109.87739415   297.86958505
 H      8   3   2     2.067484534265   106.09356988   179.79495805
 H      5   3   2     2.023372079549   122.70428635   180.00521013
 H      6   1   2     2.023366122596   122.70780574   180.01302319
 H      9   7   1     2.054854135166   110.92610280   305.57139229
 H      9   7   1     2.051793036514   109.31058432   186.39335349
 H      9   7   1     2.053697685212   111.31132301    67.06958039
 H     11   7   1     2.053806462960   111.28174691   293.54960857
 H     11   7   1     2.051786938518   109.31380388   174.20750628
 H     11   7   1     2.054839198720   110.93225860    55.01138710
 H     12   8   3     2.051753600511   109.31088668   173.68296682
 H     12   8   3     2.054882035741   110.93382642    54.49860925
 H     12   8   3     2.053718770398   111.29813318   293.01042692
 H     13   8   3     2.054889106339   110.93262428   305.30047806
 H     13   8   3     2.051699686638   109.31283630   186.10688021
 H     13   8   3     2.053870874349   111.28605249    66.77525503

---------------------
BASIS SET INFORMATION
---------------------
There are 3 groups of distinct atoms

 Group   1 Type N   : 7s4p1d contracted to 3s2p1d pattern {511/31/1}
 Group   2 Type C   : 7s4p1d contracted to 3s2p1d pattern {511/31/1}
 Group   3 Type H   : 4s1p contracted to 2s1p pattern {31/1}

Atom   0N    basis set group =>   1
Atom   1C    basis set group =>   2
Atom   2N    basis set group =>   1
Atom   3H    basis set group =>   3
Atom   4C    basis set group =>   2
Atom   5C    basis set group =>   2
Atom   6C    basis set group =>   2
Atom   7C    basis set group =>   2
Atom   8C    basis set group =>   2
Atom   9H    basis set group =>   3
Atom  10C    basis set group =>   2
Atom  11C    basis set group =>   2
Atom  12C    basis set group =>   2
Atom  13H    basis set group =>   3
Atom  14H    basis set group =>   3
Atom  15H    basis set group =>   3
Atom  16H    basis set group =>   3
Atom  17H    basis set group =>   3
Atom  18H    basis set group =>   3
Atom  19H    basis set group =>   3
Atom  20H    basis set group =>   3
Atom  21H    basis set group =>   3
Atom  22H    basis set group =>   3
Atom  23H    basis set group =>   3
Atom  24H    basis set group =>   3
Atom  25H    basis set group =>   3
Atom  26H    basis set group =>   3
Atom  27H    basis set group =>   3
---------------------------------
AUXILIARY/J BASIS SET INFORMATION
---------------------------------
There are 3 groups of distinct atoms

 Group   1 Type N   : 12s5p4d2f1g contracted to 6s4p3d1f1g pattern {711111/2111/211/2/1}
 Group   2 Type C   : 12s5p4d2f1g contracted to 6s4p3d1f1g pattern {711111/2111/211/2/1}
 Group   3 Type H   : 5s2p1d contracted to 3s1p1d pattern {311/2/1}

Atom   0N    basis set group =>   1
Atom   1C    basis set group =>   2
Atom   2N    basis set group =>   1
Atom   3H    basis set group =>   3
Atom   4C    basis set group =>   2
Atom   5C    basis set group =>   2
Atom   6C    basis set group =>   2
Atom   7C    basis set group =>   2
Atom   8C    basis set group =>   2
Atom   9H    basis set group =>   3
Atom  10C    basis set group =>   2
Atom  11C    basis set group =>   2
Atom  12C    basis set group =>   2
Atom  13H    basis set group =>   3
Atom  14H    basis set group =>   3
Atom  15H    basis set group =>   3
Atom  16H    basis set group =>   3
Atom  17H    basis set group =>   3
Atom  18H    basis set group =>   3
Atom  19H    basis set group =>   3
Atom  20H    basis set group =>   3
Atom  21H    basis set group =>   3
Atom  22H    basis set group =>   3
Atom  23H    basis set group =>   3
Atom  24H    basis set group =>   3
Atom  25H    basis set group =>   3
Atom  26H    basis set group =>   3
Atom  27H    basis set group =>   3
------------------------------------------------------------------------------
                           ORCA GTO INTEGRAL CALCULATION
                           -- RI-GTO INTEGRALS CHOSEN --
------------------------------------------------------------------------------
------------------------------------------------------------------------------
                   ___                                                        
                  /   \      - P O W E R E D   B Y -                         
                 /     \                                                     
                 |  |  |   _    _      __       _____    __    __             
                 |  |  |  | |  | |    /  \     |  _  \  |  |  /  |          
                  \  \/   | |  | |   /    \    | | | |  |  | /  /          
                 / \  \   | |__| |  /  /\  \   | |_| |  |  |/  /          
                |  |  |   |  __  | /  /__\  \  |    /   |      \           
                |  |  |   | |  | | |   __   |  |    \   |  |\   \          
                \     /   | |  | | |  |  |  |  | |\  \  |  | \   \       
                 \___/    |_|  |_| |__|  |__|  |_| \__\ |__|  \__/        
                                                                              
                      - O R C A' S   B I G   F R I E N D -                    
                                      &                                       
                       - I N T E G R A L  F E E D E R -                       
                                                                              
 v1 FN, 2020, v2 2021                                                         
------------------------------------------------------------------------------


Reading SHARK input file 4_prot_aq_4.SHARKINP.tmp ... ok
----------------------
SHARK INTEGRAL PACKAGE
----------------------

Number of atoms                             ...     28
Number of basis functions                   ...    239
Number of shells                            ...    117
Maximum angular momentum                    ...      2
Integral batch strategy                     ... SHARK/LIBINT Hybrid
RI-J (if used) integral strategy            ... SPLIT-RIJ (Revised 2003 algorithm where possible)
Printlevel                                  ...      1
Contraction scheme used                     ... SEGMENTED contraction
Coulomb Range Separation                    ... NOT USED
Exchange Range Separation                   ... Long Range
   Mu parameter                             ...  0.300000
   Scaling (regular/separated)              ...  0.157706  0.842294
Finite Nucleus Model                        ... NOT USED
Auxiliary Coulomb fitting basis             ... AVAILABLE
   # of basis functions in Aux-J            ...    726
   # of shells in Aux-J                     ...    250
   Maximum angular momentum in Aux-J        ...      4
Auxiliary J/K fitting basis                 ... NOT available
Auxiliary Correlation fitting basis         ... NOT available
Auxiliary 'external' fitting basis          ... NOT available
Integral threshold                          ...     2.500000e-11
Primitive cut-off                           ...     2.500000e-12
Primitive pair pre-selection threshold      ...     2.500000e-12

Calculating pre-screening integrals         ... done (  0.0 sec) Dimension = 117
Organizing shell pair data                  ... done (  0.0 sec)
Shell pair information
Total number of shell pairs                 ...      6903
Shell pairs after pre-screening             ...      6103
Total number of primitive shell pairs       ...     23847
Primitive shell pairs kept                  ...     14906
          la=0 lb=0:   2067 shell pairs
          la=1 lb=0:   2305 shell pairs
          la=1 lb=1:    667 shell pairs
          la=2 lb=0:    648 shell pairs
          la=2 lb=1:    359 shell pairs
          la=2 lb=2:     57 shell pairs

Calculating one electron integrals          ... done (  0.0 sec)
Calculating RI/J V-Matrix + Cholesky decomp.... done (  0.0 sec)
Calculating Nuclear repulsion               ... done (  0.0 sec) ENN=    655.915490888456 Eh

SHARK setup successfully completed in   0.3 seconds

Maximum memory used throughout the entire GTOINT-calculation: 36.7 MB
-------------------------------------------------------------------------------
                                 ORCA SCF
-------------------------------------------------------------------------------

------------
SCF SETTINGS
------------
Hamiltonian:
 Density Functional     Method          .... DFT(GTOs)
 Exchange Functional    Exchange        .... WB97X
 Correlation Functional Correlation     .... WB97X
 Gradients option       PostSCFGGA      .... off
 Hybrid DFT is turned on
   Fraction HF Exchange ScalHFX         ....  0.157706
   Scaling of DF-GGA-X  ScalDFX         ....  0.000000
   Scaling of DF-GGA-C  ScalDFC         ....  1.000000
   Scaling of DF-LDA-C  ScalLDAC        ....  1.000000
   Perturbative correction              ....  0.000000
   Density functional embedding theory  .... OFF
 Long-range corrected/Screened/Range-Separated Hybrid DFT is turned on
   Amount of maximum screened exact exchange              ....  0.842294
   Range separation parameter mu (erf(mu*r12)/r12)        ....  0.300000
 RI-approximation to the Coulomb term is turned on
   Number of AuxJ basis functions       .... 726
   RIJ-COSX (HFX calculated with COS-X)).... on


General Settings:
 Integral files         IntName         .... 4_prot_aq_4
 Hartree-Fock type      HFTyp           .... RHF
 Total Charge           Charge          ....    1
 Multiplicity           Mult            ....    1
 Number of Electrons    NEL             ....   84
 Basis Dimension        Dim             ....  239
 Nuclear Repulsion      ENuc            ....    655.9154908885 Eh

Convergence Acceleration:
 DIIS                   CNVDIIS         .... on
   Start iteration      DIISMaxIt       ....     0
   Startup error        DIISStart       ....  0.200000
   # of expansion vecs  DIISMaxEq       ....     5
   Bias factor          DIISBfac        ....   1.050
   Max. coefficient     DIISMaxC        ....  10.000
 Trust-Rad. Augm. Hess. CNVTRAH         .... auto
   Auto Start mean grad. ratio tolernc. ....  1.125000
   Auto Start start iteration           ....    20
   Auto Start num. interpolation iter.  ....    10
   Max. Number of Micro iterations      ....    16
   Max. Number of Macro iterations      .... Maxiter - #DIIS iter
   Number of Davidson start vectors     ....     2
   Converg. threshold I  (grad. norm)   ....   1.000e-05
   Converg. threshold II (energy diff.) ....   1.000e-08
   Grad. Scal. Fac. for Micro threshold ....   0.100
   Minimum threshold for Micro iter.    ....   0.010
   NR start threshold (gradient norm)   ....   0.001
   Initial trust radius                 ....   0.400
   Minimum AH scaling param. (alpha)    ....   1.000
   Maximum AH scaling param. (alpha)    .... 1000.000
   Orbital update algorithm             .... Taylor
   White noise on init. David. guess    .... on
   Maximum white noise                  ....   0.010
   Quad. conv. algorithm                .... NR
 SOSCF                  CNVSOSCF        .... on
   Start iteration      SOSCFMaxIt      ....   150
   Startup grad/error   SOSCFStart      ....  0.001000
 Level Shifting         CNVShift        .... on
   Level shift para.    LevelShift      ....    0.2500
   Turn off err/grad.   ShiftErr        ....    0.0000
 Zerner damping         CNVZerner       .... off
 Static damping         CNVDamp         .... on
   Fraction old density DampFac         ....    0.8500
   Max. Damping (<1)    DampMax         ....    0.9800
   Min. Damping (>=0)   DampMin         ....    0.0000
   Turn off err/grad.   DampErr         ....    0.0300
 Fernandez-Rico         CNVRico         .... off

SCF Procedure:
 Maximum # iterations   MaxIter         ....   125
 SCF integral mode      SCFMode         .... Direct
   Integral package                     .... SHARK and LIBINT hybrid scheme
 Reset frequency        DirectResetFreq ....    20
 Integral Threshold     Thresh          ....  2.500e-11 Eh
 Primitive CutOff       TCut            ....  2.500e-12 Eh

Convergence Tolerance:
 Convergence Check Mode ConvCheckMode   .... Total+1el-Energy
 Convergence forced     ConvForced      .... 0
 Energy Change          TolE            ....  1.000e-08 Eh
 1-El. energy change                    ....  1.000e-05 Eh
 Orbital Gradient       TolG            ....  1.000e-05
 Orbital Rotation angle TolX            ....  1.000e-05
 DIIS Error             TolErr          ....  5.000e-07


Diagonalization of the overlap matrix:
Smallest eigenvalue                        ... 1.495e-03
Time for diagonalization                   ...    0.010 sec
Threshold for overlap eigenvalues          ... 1.000e-08
Number of eigenvalues below threshold      ... 0
Time for construction of square roots      ...    0.005 sec
Total time needed                          ...    0.015 sec

Time for model grid setup =    0.480 sec

------------------------------
INITIAL GUESS: MODEL POTENTIAL
------------------------------
Loading Hartree-Fock densities                     ... done
Calculating cut-offs                               ... done
Initializing the effective Hamiltonian             ... done
Setting up the integral package (SHARK)            ... done
Starting the Coulomb interaction                   ... done (   0.5 sec)
Reading the grid                                   ... done
Mapping shells                                     ... done
Starting the XC term evaluation                    ... done (   0.6 sec)
  promolecular density results
     # of electrons  =     84.979849675
     EX              =    -64.257917940
     EC              =     -2.820462522
     EX+EC           =    -67.078380462
Transforming the Hamiltonian                       ... done (   0.0 sec)
Diagonalizing the Hamiltonian                      ... done (   0.0 sec)
Back transforming the eigenvectors                 ... done (   0.0 sec)
Now organizing SCF variables                       ... done
                      ------------------
                      INITIAL GUESS DONE (   1.6 sec)
                      ------------------
-------------------
DFT GRID GENERATION
-------------------

General Integration Accuracy     IntAcc      ... 4.388
Radial Grid Type                 RadialGrid  ... OptM3 with GC (2021)
Angular Grid (max. ang.)         AngularGrid ... 4 (Lebedev-302)
Angular grid pruning method      GridPruning ... 4 (adaptive)
Weight generation scheme         WeightScheme... Becke
Basis function cutoff            BFCut       ... 1.0000e-11
Integration weight cutoff        WCut        ... 1.0000e-14
Angular grids for H and He will be reduced by one unit
Partially contracted basis set               ... off
Rotationally invariant grid construction     ... off

Total number of grid points                  ...   120012
Total number of batches                      ...     1889
Average number of points per batch           ...       63
Average number of grid points per atom       ...     4286
Time for grid setup =    1.881 sec

--------------------
COSX GRID GENERATION
--------------------

GRIDX 1
-------
General Integration Accuracy     IntAcc      ... 3.816
Radial Grid Type                 RadialGrid  ... OptM3 with GC (2021)
Angular Grid (max. ang.)         AngularGrid ... 1 (Lebedev-50)
Angular grid pruning method      GridPruning ... 4 (adaptive)
Weight generation scheme         WeightScheme... Becke
Basis function cutoff            BFCut       ... 1.0000e-11
Integration weight cutoff        WCut        ... 1.0000e-14
Angular grids for H and He will be reduced by one unit
Partially contracted basis set               ... on
Rotationally invariant grid construction     ... off

Total number of grid points                  ...    15340
Total number of batches                      ...      253
Average number of points per batch           ...       60
Average number of grid points per atom       ...      548
UseSFitting                                  ... on

GRIDX 2
-------
General Integration Accuracy     IntAcc      ... 4.020
Radial Grid Type                 RadialGrid  ... OptM3 with GC (2021)
Angular Grid (max. ang.)         AngularGrid ... 2 (Lebedev-110)
Angular grid pruning method      GridPruning ... 4 (adaptive)
Weight generation scheme         WeightScheme... Becke
Basis function cutoff            BFCut       ... 1.0000e-11
Integration weight cutoff        WCut        ... 1.0000e-14
Angular grids for H and He will be reduced by one unit
Partially contracted basis set               ... on
Rotationally invariant grid construction     ... off

Total number of grid points                  ...    32081
Total number of batches                      ...      513
Average number of points per batch           ...       62
Average number of grid points per atom       ...     1146
UseSFitting                                  ... on

GRIDX 3
-------
General Integration Accuracy     IntAcc      ... 4.338
Radial Grid Type                 RadialGrid  ... OptM3 with GC (2021)
Angular Grid (max. ang.)         AngularGrid ... 3 (Lebedev-194)
Angular grid pruning method      GridPruning ... 4 (adaptive)
Weight generation scheme         WeightScheme... Becke
Basis function cutoff            BFCut       ... 1.0000e-11
Integration weight cutoff        WCut        ... 1.0000e-14
Angular grids for H and He will be reduced by one unit
Partially contracted basis set               ... on
Rotationally invariant grid construction     ... off

Total number of grid points                  ...    69862
Total number of batches                      ...     1106
Average number of points per batch           ...       63
Average number of grid points per atom       ...     2495
UseSFitting                                  ... on

Time for X-Grid setup             =    2.388 sec


--------------------
CPCM SOLVATION MODEL
--------------------
CPCM parameters:
  Epsilon                                         ...      80.4000
  Refrac                                          ...       1.3300
  Rsolv                                           ...       1.3000
  Surface type                                    ... GAUSSIAN VDW
  Epsilon function type                           ...         CPCM
Radii:
 Radius for N  used is    3.5149 Bohr (=   1.8600 Ang.)
 Radius for C  used is    3.8550 Bohr (=   2.0400 Ang.)
 Radius for H  used is    2.4944 Bohr (=   1.3200 Ang.)
Calculating surface                               ...        done! (  0.0s)
GEPOL surface points                              ...         1505
GEPOL Volume                                      ...    1428.6921
GEPOL Surface-area                                ...     800.2995
Calculating surface distance matrix               ...        done! (  0.0s)
Performing Cholesky decomposition & store         ...        done! (  0.1s)
Overall time for CPCM initialization              ...                 0.1s
--------------
SCF ITERATIONS
--------------
ITER       Energy         Delta-E        Max-DP      RMS-DP      [F,P]     Damp
               ***  Starting incremental Fock matrix formation  ***
  0   -461.9121848133   0.000000000000 0.03342411  0.00064501  0.1508234 0.8500
  1   -461.9568175899  -0.044632776589 0.03007503  0.00060454  0.1214609 0.8500
                               ***Turning on DIIS***
  2   -461.9907580966  -0.033940506760 0.02355366  0.00049277  0.0932108 0.8500
  3   -462.0159604611  -0.025202364492 0.01472759  0.00035096  0.0706202 0.8500
  4   -462.0353689140  -0.019408452885 0.00988294  0.00026891  0.0562017 0.8500
  5   -462.0506280927  -0.015259178666 0.00750752  0.00022043  0.0464538 0.8500
  6   -462.0630081615  -0.012380068870 0.00607991  0.00018578  0.0390578 0.8500
  7   -462.0732365626  -0.010228401112 0.00518262  0.00015965  0.0330673 0.8500
  8   -462.0817799341  -0.008543371466 0.02945219  0.00091458  0.0279568 0.0000
  9   -462.1275900602  -0.045810126075 0.00136226  0.00003183  0.0012071 0.0000
                      *** Initiating the SOSCF procedure ***
                           *** Shutting down DIIS ***
                      *** Re-Reading the Fockian *** 
                      *** Removing any level shift *** 
ITER      Energy       Delta-E        Grad      Rot      Max-DP    RMS-DP
 10   -462.12760642  -0.0000163640  0.000143  0.000143  0.000558  0.000013
               *** Restarting incremental Fock matrix formation ***
 11   -462.12762679  -0.0000203677  0.000067  0.000112  0.000358  0.000008
 12   -462.12762708  -0.0000002843  0.000044  0.000122  0.000198  0.000004
 13   -462.12762712  -0.0000000404  0.000023  0.000024  0.000046  0.000001
 14   -462.12762713  -0.0000000111  0.000004  0.000007  0.000007  0.000000
                  ***Gradient check signals convergence***
              ***Rediagonalizing the Fockian in SOSCF/NRSCF***

               *****************************************************
               *                     SUCCESS                       *
               *           SCF CONVERGED AFTER  15 CYCLES          *
               *****************************************************

Old exchange energy                            =    -21.420466459 Eh
New exchange energy                            =    -21.420559556 Eh
Exchange energy change after final integration =     -0.000093098 Eh
Total energy after final integration           =   -462.127720229 Eh
Final COS-X integration done in                =    60.960 sec

----------------
TOTAL SCF ENERGY
----------------

Total Energy       :         -462.12772023 Eh          -12575.13457 eV

Components:
Nuclear Repulsion  :          655.91549089 Eh           17848.36790 eV
Electronic Energy  :        -1118.04321112 Eh          -30423.50248 eV
One Electron Energy:        -1908.13678376 Eh          -51923.04160 eV
Two Electron Energy:          790.09357264 Eh           21499.53913 eV
Max COSX asymmetry :            0.00000316 Eh               0.00009 eV
CPCM Dielectric    :           -0.07869326 Eh              -2.14135 eV

Virial components:
Potential Energy   :         -918.97167802 Eh          -25006.49066 eV
Kinetic Energy     :          456.84395779 Eh           12431.35609 eV
Virial Ratio       :            2.01156579


DFT components:
N(Alpha)           :       42.000137472079 electrons
N(Beta)            :       42.000137472079 electrons
N(Total)           :       84.000274944159 electrons
E(XC)              :      -47.266109539731 Eh       
DFET-embed. en.    :        0.000000000000 Eh       
CPCM Solvation Model Properties:
Surface-charge          :           -1.02084394
Charge-correction       :            0.00285711 Eh               0.07775 eV
Free-energy (cav+disp)  :  This term is not implemented in the current solvation scheme

---------------
SCF CONVERGENCE
---------------

  Last Energy change         ...   -3.4184e-09  Tolerance :   1.0000e-08
  Last MAX-Density change    ...    3.5527e-15  Tolerance :   1.0000e-07
  Last RMS-Density change    ...    3.7783e-17  Tolerance :   5.0000e-09
  Last Orbital Gradient      ...    1.4956e-06  Tolerance :   1.0000e-05
  Last Orbital Rotation      ...    3.6272e-06  Tolerance :   1.0000e-05

             **** THE GBW FILE WAS UPDATED (4_prot_aq_4.gbw) ****
             **** DENSITY 4_prot_aq_4.scfp WAS UPDATED ****
             **** ENERGY FILE WAS UPDATED (4_prot_aq_4.en.tmp) ****
             **** THE GBW FILE WAS UPDATED (4_prot_aq_4.gbw) ****
             **** DENSITY 4_prot_aq_4.scfp WAS UPDATED ****
----------------
ORBITAL ENERGIES
----------------

  NO   OCC          E(Eh)            E(eV) 
   0   2.0000     -14.511315      -394.8730 
   1   2.0000     -14.511300      -394.8725 
   2   2.0000     -10.379942      -282.4526 
   3   2.0000     -10.335578      -281.2454 
   4   2.0000     -10.335556      -281.2448 
   5   2.0000     -10.330677      -281.1120 
   6   2.0000     -10.330115      -281.0967 
   7   2.0000     -10.270612      -279.4776 
   8   2.0000     -10.270608      -279.4774 
   9   2.0000     -10.270581      -279.4767 
  10   2.0000     -10.270569      -279.4764 
  11   2.0000      -1.223039       -33.2806 
  12   2.0000      -1.104611       -30.0580 
  13   2.0000      -0.970949       -26.4209 
  14   2.0000      -0.917363       -24.9627 
  15   2.0000      -0.916880       -24.9496 
  16   2.0000      -0.824978       -22.4488 
  17   2.0000      -0.824005       -22.4223 
  18   2.0000      -0.813793       -22.1444 
  19   2.0000      -0.782030       -21.2801 
  20   2.0000      -0.737536       -20.0694 
  21   2.0000      -0.730307       -19.8727 
  22   2.0000      -0.652656       -17.7597 
  23   2.0000      -0.632822       -17.2200 
  24   2.0000      -0.608220       -16.5505 
  25   2.0000      -0.608171       -16.5492 
  26   2.0000      -0.590378       -16.0650 
  27   2.0000      -0.580022       -15.7832 
  28   2.0000      -0.562153       -15.2969 
  29   2.0000      -0.561406       -15.2766 
  30   2.0000      -0.559261       -15.2183 
  31   2.0000      -0.520363       -14.1598 
  32   2.0000      -0.505187       -13.7468 
  33   2.0000      -0.500203       -13.6112 
  34   2.0000      -0.498226       -13.5574 
  35   2.0000      -0.495398       -13.4805 
  36   2.0000      -0.474029       -12.8990 
  37   2.0000      -0.462599       -12.5880 
  38   2.0000      -0.461883       -12.5685 
  39   2.0000      -0.459306       -12.4984 
  40   2.0000      -0.416302       -11.3281 
  41   2.0000      -0.371921       -10.1205 
  42   0.0000       0.057526         1.5654 
  43   0.0000       0.099768         2.7148 
  44   0.0000       0.137957         3.7540 
  45   0.0000       0.151560         4.1241 
  46   0.0000       0.156987         4.2718 
  47   0.0000       0.174065         4.7365 
  48   0.0000       0.187649         5.1062 
  49   0.0000       0.191761         5.2181 
  50   0.0000       0.206977         5.6321 
  51   0.0000       0.209406         5.6982 
  52   0.0000       0.211097         5.7442 
  53   0.0000       0.224713         6.1147 
  54   0.0000       0.226890         6.1740 
  55   0.0000       0.244528         6.6539 
  56   0.0000       0.244876         6.6634 
  57   0.0000       0.245069         6.6687 
  58   0.0000       0.260406         7.0860 
  59   0.0000       0.262952         7.1553 
  60   0.0000       0.263858         7.1799 
  61   0.0000       0.268690         7.3114 
  62   0.0000       0.274910         7.4807 
  63   0.0000       0.288494         7.8503 
  64   0.0000       0.298015         8.1094 
  65   0.0000       0.314367         8.5544 
  66   0.0000       0.323020         8.7898 
  67   0.0000       0.334899         9.1131 
  68   0.0000       0.346179         9.4200 
  69   0.0000       0.356953         9.7132 
  70   0.0000       0.393370        10.7041 
  71   0.0000       0.433793        11.8041 
  72   0.0000       0.450485        12.2583 
  73   0.0000       0.483850        13.1662 
  74   0.0000       0.484272        13.1777 
  75   0.0000       0.494178        13.4473 
  76   0.0000       0.500254        13.6126 
  77   0.0000       0.506133        13.7726 
  78   0.0000       0.510180        13.8827 
  79   0.0000       0.541731        14.7413 
  80   0.0000       0.554644        15.0926 
  81   0.0000       0.565939        15.4000 
  82   0.0000       0.591755        16.1025 
  83   0.0000       0.601583        16.3699 
  84   0.0000       0.613686        16.6993 
  85   0.0000       0.659680        17.9508 
  86   0.0000       0.660174        17.9642 
  87   0.0000       0.675060        18.3693 
  88   0.0000       0.681427        18.5426 
  89   0.0000       0.681729        18.5508 
  90   0.0000       0.690260        18.7829 
  91   0.0000       0.716759        19.5040 
  92   0.0000       0.732148        19.9228 
  93   0.0000       0.734027        19.9739 
  94   0.0000       0.746506        20.3135 
  95   0.0000       0.748342        20.3634 
  96   0.0000       0.754700        20.5364 
  97   0.0000       0.759018        20.6539 
  98   0.0000       0.760243        20.6873 
  99   0.0000       0.771718        20.9995 
 100   0.0000       0.783105        21.3094 
 101   0.0000       0.784658        21.3516 
 102   0.0000       0.789856        21.4931 
 103   0.0000       0.792491        21.5648 
 104   0.0000       0.796113        21.6633 
 105   0.0000       0.797568        21.7029 
 106   0.0000       0.798607        21.7312 
 107   0.0000       0.799560        21.7571 
 108   0.0000       0.812606        22.1121 
 109   0.0000       0.818140        22.2627 
 110   0.0000       0.831813        22.6348 
 111   0.0000       0.834449        22.7065 
 112   0.0000       0.839282        22.8380 
 113   0.0000       0.842702        22.9311 
 114   0.0000       0.846190        23.0260 
 115   0.0000       0.865158        23.5421 
 116   0.0000       0.875424        23.8215 
 117   0.0000       0.964378        26.2421 
 118   0.0000       0.967162        26.3178 
 119   0.0000       1.030130        28.0313 
 120   0.0000       1.040360        28.3096 
 121   0.0000       1.041776        28.3482 
 122   0.0000       1.087480        29.5918 
 123   0.0000       1.144418        31.1412 
 124   0.0000       1.151714        31.3397 
 125   0.0000       1.156109        31.4593 
 126   0.0000       1.166291        31.7364 
 127   0.0000       1.199398        32.6373 
 128   0.0000       1.211719        32.9726 
 129   0.0000       1.212062        32.9819 
 130   0.0000       1.263504        34.3817 
 131   0.0000       1.286702        35.0129 
 132   0.0000       1.306368        35.5481 
 133   0.0000       1.319207        35.8975 
 134   0.0000       1.332288        36.2534 
 135   0.0000       1.387750        37.7626 
 136   0.0000       1.394127        37.9361 
 137   0.0000       1.396822        38.0095 
 138   0.0000       1.463450        39.8225 
 139   0.0000       1.467864        39.9426 
 140   0.0000       1.476811        40.1861 
 141   0.0000       1.516098        41.2551 
 142   0.0000       1.527027        41.5525 
 143   0.0000       1.626098        44.2484 
 144   0.0000       1.647462        44.8297 
 145   0.0000       1.647836        44.8399 
 146   0.0000       1.649733        44.8915 
 147   0.0000       1.651478        44.9390 
 148   0.0000       1.662503        45.2390 
 149   0.0000       1.705781        46.4167 
 150   0.0000       1.736546        47.2538 
 151   0.0000       1.781664        48.4816 
 152   0.0000       1.789073        48.6832 
 153   0.0000       1.797848        48.9219 
 154   0.0000       1.821503        49.5656 
 155   0.0000       1.822942        49.6048 
 156   0.0000       1.831356        49.8337 
 157   0.0000       1.862234        50.6740 
 158   0.0000       1.865301        50.7574 
 159   0.0000       1.884555        51.2814 
 160   0.0000       1.901433        51.7406 
 161   0.0000       1.905081        51.8399 
 162   0.0000       1.905814        51.8598 
 163   0.0000       1.918238        52.1979 
 164   0.0000       1.922002        52.3003 
 165   0.0000       1.929717        52.5103 
 166   0.0000       1.940842        52.8130 
 167   0.0000       1.949997        53.0621 
 168   0.0000       1.959229        53.3133 
 169   0.0000       1.961712        53.3809 
 170   0.0000       1.962205        53.3943 
 171   0.0000       1.966361        53.5074 
 172   0.0000       1.982723        53.9526 
 173   0.0000       1.982910        53.9577 
 174   0.0000       2.003699        54.5234 
 175   0.0000       2.010542        54.7096 
 176   0.0000       2.025544        55.1178 
 177   0.0000       2.028230        55.1910 
 178   0.0000       2.038914        55.4817 
 179   0.0000       2.065232        56.1978 
 180   0.0000       2.071850        56.3779 
 181   0.0000       2.079971        56.5989 
 182   0.0000       2.088936        56.8428 
 183   0.0000       2.133320        58.0506 
 184   0.0000       2.154971        58.6397 
 185   0.0000       2.173544        59.1451 
 186   0.0000       2.182503        59.3889 
 187   0.0000       2.223129        60.4944 
 188   0.0000       2.252862        61.3035 
 189   0.0000       2.259685        61.4892 
 190   0.0000       2.297153        62.5087 
 191   0.0000       2.366256        64.3891 
 192   0.0000       2.373412        64.5838 
 193   0.0000       2.377146        64.6854 
 194   0.0000       2.378845        64.7317 
 195   0.0000       2.416090        65.7452 
 196   0.0000       2.458342        66.8949 
 197   0.0000       2.477376        67.4128 
 198   0.0000       2.494062        67.8669 
 199   0.0000       2.498480        67.9871 
 200   0.0000       2.510480        68.3136 
 201   0.0000       2.520828        68.5952 
 202   0.0000       2.536794        69.0297 
 203   0.0000       2.564427        69.7816 
 204   0.0000       2.596682        70.6593 
 205   0.0000       2.603769        70.8522 
 206   0.0000       2.607259        70.9471 
 207   0.0000       2.630394        71.5766 
 208   0.0000       2.665413        72.5296 
 209   0.0000       2.676217        72.8236 
 210   0.0000       2.695879        73.3586 
 211   0.0000       2.701613        73.5146 
 212   0.0000       2.795276        76.0633 
 213   0.0000       2.801416        76.2304 
 214   0.0000       2.812708        76.5377 
 215   0.0000       2.839383        77.2635 
 216   0.0000       2.855445        77.7006 
 217   0.0000       2.881577        78.4117 
 218   0.0000       2.914011        79.2943 
 219   0.0000       2.940191        80.0067 
 220   0.0000       2.949291        80.2543 
 221   0.0000       2.960890        80.5699 
 222   0.0000       2.987326        81.2893 
 223   0.0000       2.990041        81.3632 
 224   0.0000       3.014451        82.0274 
 225   0.0000       3.030621        82.4674 
 226   0.0000       3.034256        82.5663 
 227   0.0000       3.036001        82.6138 
 228   0.0000       3.062663        83.3393 
 229   0.0000       3.081464        83.8509 
 230   0.0000       3.117654        84.8357 
 231   0.0000       3.143836        85.5481 
 232   0.0000       3.146027        85.6078 
 233   0.0000       3.148985        85.6882 
 234   0.0000       3.173656        86.3596 
 235   0.0000       3.295903        89.6861 
 236   0.0000       3.482853        94.7732 
 237   0.0000       3.608763        98.1994 
 238   0.0000       3.632761        98.8525 

                    ********************************
                    * MULLIKEN POPULATION ANALYSIS *
                    ********************************

-----------------------
MULLIKEN ATOMIC CHARGES
-----------------------
   0 N :   -0.168396
   1 C :    0.209002
   2 N :   -0.168389
   3 H :    0.129734
   4 C :    0.065577
   5 C :    0.065628
   6 C :   -0.059283
   7 C :   -0.059326
   8 C :    0.002878
   9 H :    0.077092
  10 C :    0.004745
  11 C :    0.003618
  12 C :    0.004038
  13 H :    0.077085
  14 H :    0.093020
  15 H :    0.093012
  16 H :    0.053105
  17 H :    0.058170
  18 H :    0.046643
  19 H :    0.046371
  20 H :    0.057919
  21 H :    0.052741
  22 H :    0.058070
  23 H :    0.052990
  24 H :    0.046528
  25 H :    0.052882
  26 H :    0.058044
  27 H :    0.046499
Sum of atomic charges:    1.0000000

--------------------------------
MULLIKEN REDUCED ORBITAL CHARGES
--------------------------------
  0 N s       :     3.380966  s :     3.380966
      pz      :     1.140366  p :     3.753431
      px      :     1.162139
      py      :     1.450926
      dz2     :     0.006263  d :     0.034000
      dxz     :     0.010813
      dyz     :     0.006981
      dx2y2   :     0.004522
      dxy     :     0.005421
  1 C s       :     3.102316  s :     3.102316
      pz      :     0.910324  p :     2.621684
      px      :     0.769141
      py      :     0.942219
      dz2     :     0.012812  d :     0.066998
      dxz     :     0.022180
      dyz     :     0.006517
      dx2y2   :     0.009239
      dxy     :     0.016250
  2 N s       :     3.380957  s :     3.380957
      pz      :     1.140404  p :     3.753431
      px      :     1.162122
      py      :     1.450905
      dz2     :     0.006264  d :     0.034001
      dxz     :     0.010812
      dyz     :     0.006980
      dx2y2   :     0.004523
      dxy     :     0.005422
  3 H s       :     0.845146  s :     0.845146
      pz      :     0.019268  p :     0.025120
      px      :     0.001319
      py      :     0.004533
  4 C s       :     3.139269  s :     3.139269
      pz      :     0.797895  p :     2.746611
      px      :     0.913672
      py      :     1.035044
      dz2     :     0.015020  d :     0.048543
      dxz     :     0.013000
      dyz     :     0.008158
      dx2y2   :     0.004930
      dxy     :     0.007435
  5 C s       :     3.139273  s :     3.139273
      pz      :     0.797917  p :     2.746556
      px      :     0.913634
      py      :     1.035006
      dz2     :     0.015018  d :     0.048543
      dxz     :     0.013002
      dyz     :     0.008157
      dx2y2   :     0.004930
      dxy     :     0.007436
  6 C s       :     3.121469  s :     3.121469
      pz      :     1.060698  p :     2.881588
      px      :     0.777889
      py      :     1.043001
      dz2     :     0.008819  d :     0.056226
      dxz     :     0.011497
      dyz     :     0.009896
      dx2y2   :     0.017159
      dxy     :     0.008855
  7 C s       :     3.121472  s :     3.121472
      pz      :     1.060701  p :     2.881626
      px      :     0.777865
      py      :     1.043059
      dz2     :     0.008824  d :     0.056228
      dxz     :     0.011491
      dyz     :     0.009895
      dx2y2   :     0.017160
      dxy     :     0.008857
  8 C s       :     2.994438  s :     2.994438
      pz      :     1.002930  p :     2.976316
      px      :     1.031250
      py      :     0.942136
      dz2     :     0.004567  d :     0.026368
      dxz     :     0.004891
      dyz     :     0.007203
      dx2y2   :     0.007786
      dxy     :     0.001921
  9 H s       :     0.901560  s :     0.901560
      pz      :     0.011257  p :     0.021348
      px      :     0.006747
      py      :     0.003345
 10 C s       :     2.993660  s :     2.993660
      pz      :     1.000262  p :     2.975213
      px      :     1.029834
      py      :     0.945117
      dz2     :     0.004536  d :     0.026381
      dxz     :     0.005002
      dyz     :     0.007179
      dx2y2   :     0.007823
      dxy     :     0.001842
 11 C s       :     2.994126  s :     2.994126
      pz      :     1.003655  p :     2.975885
      px      :     1.030747
      py      :     0.941482
      dz2     :     0.004526  d :     0.026371
      dxz     :     0.004890
      dyz     :     0.007237
      dx2y2   :     0.007798
      dxy     :     0.001919
 12 C s       :     2.993955  s :     2.993955
      pz      :     0.999540  p :     2.975632
      px      :     1.030456
      py      :     0.945636
      dz2     :     0.004622  d :     0.026374
      dxz     :     0.004964
      dyz     :     0.007124
      dx2y2   :     0.007805
      dxy     :     0.001860
 13 H s       :     0.901565  s :     0.901565
      pz      :     0.011254  p :     0.021350
      px      :     0.006747
      py      :     0.003348
 14 H s       :     0.881833  s :     0.881833
      pz      :     0.011559  p :     0.025148
      px      :     0.008708
      py      :     0.004881
 15 H s       :     0.881840  s :     0.881840
      pz      :     0.011562  p :     0.025148
      px      :     0.008705
      py      :     0.004880
 16 H s       :     0.922631  s :     0.922631
      pz      :     0.007563  p :     0.024264
      px      :     0.005445
      py      :     0.011256
 17 H s       :     0.917076  s :     0.917076
      pz      :     0.005323  p :     0.024754
      px      :     0.015167
      py      :     0.004263
 18 H s       :     0.928789  s :     0.928789
      pz      :     0.012835  p :     0.024568
      px      :     0.007726
      py      :     0.004007
 19 H s       :     0.929070  s :     0.929070
      pz      :     0.012726  p :     0.024559
      px      :     0.007802
      py      :     0.004031
 20 H s       :     0.917325  s :     0.917325
      pz      :     0.005348  p :     0.024756
      px      :     0.015140
      py      :     0.004267
 21 H s       :     0.922992  s :     0.922992
      pz      :     0.007347  p :     0.024266
      px      :     0.005359
      py      :     0.011560
 22 H s       :     0.917173  s :     0.917173
      pz      :     0.005336  p :     0.024757
      px      :     0.015167
      py      :     0.004254
 23 H s       :     0.922746  s :     0.922746
      pz      :     0.007663  p :     0.024264
      px      :     0.005420
      py      :     0.011181
 24 H s       :     0.928908  s :     0.928908
      pz      :     0.012821  p :     0.024564
      px      :     0.007735
      py      :     0.004008
 25 H s       :     0.922852  s :     0.922852
      pz      :     0.007233  p :     0.024266
      px      :     0.005401
      py      :     0.011632
 26 H s       :     0.917199  s :     0.917199
      pz      :     0.005319  p :     0.024757
      px      :     0.015157
      py      :     0.004282
 27 H s       :     0.928941  s :     0.928941
      pz      :     0.012765  p :     0.024559
      px      :     0.007762
      py      :     0.004033


                     *******************************
                     * LOEWDIN POPULATION ANALYSIS *
                     *******************************

----------------------
LOEWDIN ATOMIC CHARGES
----------------------
   0 N :    0.114348
   1 C :    0.123281
   2 N :    0.114350
   3 H :    0.059258
   4 C :    0.019473
   5 C :    0.019491
   6 C :    0.041862
   7 C :    0.041852
   8 C :   -0.048952
   9 H :    0.049455
  10 C :   -0.048809
  11 C :   -0.048892
  12 C :   -0.048879
  13 H :    0.049449
  14 H :    0.056233
  15 H :    0.056236
  16 H :    0.036030
  17 H :    0.043033
  18 H :    0.033640
  19 H :    0.033584
  20 H :    0.042892
  21 H :    0.035927
  22 H :    0.042983
  23 H :    0.036011
  24 H :    0.033612
  25 H :    0.035965
  26 H :    0.042946
  27 H :    0.033619

-------------------------------
LOEWDIN REDUCED ORBITAL CHARGES
-------------------------------
  0 N s       :     3.043521  s :     3.043521
      pz      :     1.200513  p :     3.764015
      px      :     1.192898
      py      :     1.370603
      dz2     :     0.017254  d :     0.078116
      dxz     :     0.028202
      dyz     :     0.013255
      dx2y2   :     0.010032
      dxy     :     0.009373
  1 C s       :     2.827943  s :     2.827943
      pz      :     1.029216  p :     2.891798
      px      :     0.898683
      py      :     0.963898
      dz2     :     0.030360  d :     0.156978
      dxz     :     0.059074
      dyz     :     0.010354
      dx2y2   :     0.023788
      dxy     :     0.033402
  2 N s       :     3.043519  s :     3.043519
      pz      :     1.200522  p :     3.764012
      px      :     1.192901
      py      :     1.370589
      dz2     :     0.017257  d :     0.078118
      dxz     :     0.028198
      dyz     :     0.013254
      dx2y2   :     0.010034
      dxy     :     0.009375
  3 H s       :     0.863274  s :     0.863274
      pz      :     0.054168  p :     0.077468
      px      :     0.008198
      py      :     0.015102
  4 C s       :     2.847876  s :     2.847876
      pz      :     0.932914  p :     3.012596
      px      :     1.050896
      py      :     1.028786
      dz2     :     0.039371  d :     0.120056
      dxz     :     0.036144
      dyz     :     0.015907
      dx2y2   :     0.013975
      dxy     :     0.014658
  5 C s       :     2.847873  s :     2.847873
      pz      :     0.932944  p :     3.012580
      px      :     1.050879
      py      :     1.028757
      dz2     :     0.039367  d :     0.120056
      dxz     :     0.036148
      dyz     :     0.015906
      dx2y2   :     0.013975
      dxy     :     0.014661
  6 C s       :     2.832084  s :     2.832084
      pz      :     1.066748  p :     2.996494
      px      :     0.862395
      py      :     1.067351
      dz2     :     0.018068  d :     0.129560
      dxz     :     0.028664
      dyz     :     0.024612
      dx2y2   :     0.040398
      dxy     :     0.017819
  7 C s       :     2.832082  s :     2.832082
      pz      :     1.066756  p :     2.996502
      px      :     0.862380
      py      :     1.067366
      dz2     :     0.018081  d :     0.129564
      dxz     :     0.028654
      dyz     :     0.024606
      dx2y2   :     0.040402
      dxy     :     0.017821
  8 C s       :     2.829021  s :     2.829021
      pz      :     1.054347  p :     3.149358
      px      :     1.078572
      py      :     1.016439
      dz2     :     0.011460  d :     0.070573
      dxz     :     0.012826
      dyz     :     0.019791
      dx2y2   :     0.021627
      dxy     :     0.004869
  9 H s       :     0.883426  s :     0.883426
      pz      :     0.033111  p :     0.067119
      px      :     0.020137
      py      :     0.013870
 10 C s       :     2.829081  s :     2.829081
      pz      :     1.052616  p :     3.149139
      px      :     1.078106
      py      :     1.018417
      dz2     :     0.011296  d :     0.070590
      dxz     :     0.013144
      dyz     :     0.019813
      dx2y2   :     0.021686
      dxy     :     0.004651
 11 C s       :     2.829037  s :     2.829037
      pz      :     1.054908  p :     3.149277
      px      :     1.078414
      py      :     1.015955
      dz2     :     0.011365  d :     0.070578
      dxz     :     0.012830
      dyz     :     0.019842
      dx2y2   :     0.021674
      dxy     :     0.004866
 12 C s       :     2.829068  s :     2.829068
      pz      :     1.052035  p :     3.149230
      px      :     1.078332
      py      :     1.018862
      dz2     :     0.011518  d :     0.070581
      dxz     :     0.013034
      dyz     :     0.019705
      dx2y2   :     0.021620
      dxy     :     0.004703
 13 H s       :     0.883429  s :     0.883429
      pz      :     0.033107  p :     0.067121
      px      :     0.020135
      py      :     0.013879
 14 H s       :     0.868894  s :     0.868894
      pz      :     0.033403  p :     0.074873
      px      :     0.025246
      py      :     0.016224
 15 H s       :     0.868891  s :     0.868891
      pz      :     0.033412  p :     0.074873
      px      :     0.025239
      py      :     0.016223
 16 H s       :     0.896141  s :     0.896141
      pz      :     0.020679  p :     0.067829
      px      :     0.014624
      py      :     0.032526
 17 H s       :     0.889018  s :     0.889018
      pz      :     0.014606  p :     0.067948
      px      :     0.040489
      py      :     0.012854
 18 H s       :     0.898073  s :     0.898073
      pz      :     0.035117  p :     0.068287
      px      :     0.020574
      py      :     0.012597
 19 H s       :     0.898157  s :     0.898157
      pz      :     0.034892  p :     0.068259
      px      :     0.020776
      py      :     0.012591
 20 H s       :     0.889167  s :     0.889167
      pz      :     0.014726  p :     0.067941
      px      :     0.040413
      py      :     0.012802
 21 H s       :     0.896253  s :     0.896253
      pz      :     0.020164  p :     0.067820
      px      :     0.014406
      py      :     0.033250
 22 H s       :     0.889068  s :     0.889068
      pz      :     0.014618  p :     0.067950
      px      :     0.040489
      py      :     0.012843
 23 H s       :     0.896167  s :     0.896167
      pz      :     0.020921  p :     0.067822
      px      :     0.014561
      py      :     0.032340
 24 H s       :     0.898110  s :     0.898110
      pz      :     0.035061  p :     0.068277
      px      :     0.020599
      py      :     0.012618
 25 H s       :     0.896215  s :     0.896215
      pz      :     0.019886  p :     0.067820
      px      :     0.014509
      py      :     0.033425
 26 H s       :     0.889100  s :     0.889100
      pz      :     0.014670  p :     0.067954
      px      :     0.040460
      py      :     0.012824
 27 H s       :     0.898122  s :     0.898122
      pz      :     0.035020  p :     0.068259
      px      :     0.020668
      py      :     0.012572


                      *****************************
                      * MAYER POPULATION ANALYSIS *
                      *****************************

  NA   - Mulliken gross atomic population
  ZA   - Total nuclear charge
  QA   - Mulliken gross atomic charge
  VA   - Mayer's total valence
  BVA  - Mayer's bonded valence
  FA   - Mayer's free valence

  ATOM       NA         ZA         QA         VA         BVA        FA
  0 N      7.1684     7.0000    -0.1684     3.4363     3.4363     0.0000
  1 C      5.7910     6.0000     0.2090     3.8557     3.8557    -0.0000
  2 N      7.1684     7.0000    -0.1684     3.4364     3.4364     0.0000
  3 H      0.8703     1.0000     0.1297     0.9975     0.9975    -0.0000
  4 C      5.9344     6.0000     0.0656     3.8582     3.8582     0.0000
  5 C      5.9344     6.0000     0.0656     3.8582     3.8582     0.0000
  6 C      6.0593     6.0000    -0.0593     4.0639     4.0639    -0.0000
  7 C      6.0593     6.0000    -0.0593     4.0639     4.0639     0.0000
  8 C      5.9971     6.0000     0.0029     3.9508     3.9508    -0.0000
  9 H      0.9229     1.0000     0.0771     0.9772     0.9772     0.0000
 10 C      5.9953     6.0000     0.0047     3.9499     3.9499     0.0000
 11 C      5.9964     6.0000     0.0036     3.9504     3.9504    -0.0000
 12 C      5.9960     6.0000     0.0040     3.9502     3.9502     0.0000
 13 H      0.9229     1.0000     0.0771     0.9772     0.9772     0.0000
 14 H      0.9070     1.0000     0.0930     0.9975     0.9975     0.0000
 15 H      0.9070     1.0000     0.0930     0.9975     0.9975    -0.0000
 16 H      0.9469     1.0000     0.0531     0.9923     0.9923    -0.0000
 17 H      0.9418     1.0000     0.0582     0.9961     0.9961    -0.0000
 18 H      0.9534     1.0000     0.0466     1.0004     1.0004    -0.0000
 19 H      0.9536     1.0000     0.0464     1.0006     1.0006    -0.0000
 20 H      0.9421     1.0000     0.0579     0.9962     0.9962     0.0000
 21 H      0.9473     1.0000     0.0527     0.9924     0.9924     0.0000
 22 H      0.9419     1.0000     0.0581     0.9961     0.9961    -0.0000
 23 H      0.9470     1.0000     0.0530     0.9923     0.9923     0.0000
 24 H      0.9535     1.0000     0.0465     1.0005     1.0005     0.0000
 25 H      0.9471     1.0000     0.0529     0.9923     0.9923    -0.0000
 26 H      0.9420     1.0000     0.0580     0.9961     0.9961    -0.0000
[...]
     31       0.019290   0.017749   0.016025   0.000203  -0.000019   0.000033
     32      -0.018331  -0.015268  -0.013764  -0.000645   0.000009  -0.000051
     33      -0.036833  -0.041553   0.045964  -0.000711  -0.000003  -0.000134
     34       0.020953   0.019739  -0.021747  -0.000250  -0.000009  -0.000030
     35       0.021926   0.018708  -0.020583  -0.000984  -0.000006  -0.000071
     36       0.047330  -0.032923   0.036564  -0.000498   0.000003  -0.000113
     37       0.026949  -0.015991   0.017687   0.000203   0.000019   0.000033
     38      -0.025637   0.013775  -0.015213  -0.000644  -0.000009  -0.000051
     39      -0.001805   0.009538  -0.011234  -0.000494  -0.003139  -0.001979
     40      -0.000939  -0.000153   0.000175  -0.000038   0.000012   0.000005
     41      -0.002563   0.012828  -0.015106   0.002389  -0.002142  -0.000359
     42       0.000072  -0.000952   0.000032   0.036700  -0.462356  -0.464731
     43      -0.000026   0.000032   0.000008  -0.001630   0.020525   0.020296
     44       0.000060  -0.000911  -0.000153   0.041876  -0.530887  -0.525160
     45      -0.000022  -0.000950   0.000064  -0.036707  -0.462380   0.464791
     46      -0.000035  -0.000030   0.000011  -0.001602  -0.020179   0.019951
     47       0.000010   0.000891  -0.000244   0.041877   0.530842  -0.525157
     48      -0.049620   0.071909   0.064686   0.000921  -0.000009   0.000062
     49      -0.191876   0.277335   0.249529   0.003172  -0.000147   0.000294
     50      -0.133012   0.192750   0.173426   0.002082  -0.000146   0.000210
     51      -0.262231   0.447053   0.403729  -0.003372  -0.000840  -0.000430
     52       0.009462  -0.016569  -0.014995   0.000008   0.000298  -0.000150
     53      -0.064365   0.110584   0.099899  -0.000632  -0.000328   0.000008
     54      -0.002808   0.029847   0.027348  -0.007314  -0.000130  -0.000601
     55       0.001307  -0.000280  -0.000226  -0.000468  -0.000201   0.000098
     56       0.010557  -0.057179  -0.052256   0.010936   0.000478   0.000765
     57       0.010642   0.028402   0.026058  -0.004618  -0.000136  -0.000422
     58       0.001493   0.000507   0.000445   0.000507   0.000188  -0.000089
     59      -0.024196  -0.052195  -0.047798   0.007031   0.000481   0.000511
     60       0.336854   0.357020   0.323719  -0.002561  -0.000854  -0.000339
     61       0.004293   0.004877   0.004456   0.000054  -0.000276   0.000147
     62       0.084486   0.090124   0.081752  -0.000433  -0.000331   0.000031
     63       0.055390   0.050743   0.045817   0.000591  -0.000027   0.000063
     64      -0.238082  -0.217196  -0.196166  -0.002429   0.000206  -0.000341
     65       0.157339   0.143896   0.129966   0.001532  -0.000202   0.000250
     66       0.365325   0.404310  -0.447290   0.003374  -0.000840   0.000431
     67       0.012950   0.014719  -0.016319   0.000006  -0.000297  -0.000150
     68      -0.089666  -0.099995   0.110660  -0.000631   0.000328   0.000008
     69       0.068993   0.064914  -0.071534  -0.000920  -0.000008  -0.000062
     70      -0.267472  -0.250978   0.276627   0.003172   0.000147   0.000294
     71      -0.185314  -0.174325   0.192143   0.002081   0.000146   0.000210
     72       0.003828   0.026944  -0.030244   0.007313  -0.000130   0.000601
     73       0.001822   0.000251  -0.000247  -0.000467   0.000201   0.000099
     74       0.014574   0.051639  -0.057815   0.010941  -0.000479   0.000765
     75      -0.077644   0.045880  -0.050751  -0.000592  -0.000027  -0.000064
     76      -0.332877   0.195864  -0.216717  -0.002428  -0.000206  -0.000341
     77       0.220140  -0.129848   0.143675   0.001533   0.000202   0.000250
     78      -0.471089   0.321992  -0.357675   0.002559  -0.000854   0.000339
     79       0.006283  -0.004585   0.005131   0.000052   0.000276   0.000147
     80       0.118149  -0.081272   0.090315  -0.000433   0.000331   0.000031
     81      -0.014876   0.025613  -0.028789   0.004618  -0.000136   0.000422
     82       0.002082  -0.000459   0.000494   0.000507  -0.000188  -0.000089
     83      -0.033828   0.047072  -0.052809   0.007026  -0.000481   0.000510


-----------
IR SPECTRUM
-----------

 Mode   freq       eps      Int      T**2         TX        TY        TZ
       cm**-1   L/(mol*cm) km/mol    a.u.
----------------------------------------------------------------------------
  6:     45.28   0.000036    0.18  0.000245  ( 0.000004  0.015596  0.001234)
  7:     55.82   0.000000    0.00  0.000000  (-0.000272  0.000041  0.000003)
  8:     92.52   0.000047    0.24  0.000159  (-0.000001 -0.012590 -0.000407)
  9:    136.97   0.000006    0.03  0.000014  ( 0.000003  0.000225  0.003686)
 10:    166.11   0.000000    0.00  0.000000  (-0.000263  0.000004  0.000006)
 11:    264.16   0.000005    0.02  0.000006  ( 0.002385 -0.000093  0.000049)
 12:    264.90   0.000004    0.02  0.000005  ( 0.000099  0.002181 -0.000725)
 13:    276.52   0.000024    0.12  0.000027  (-0.005199 -0.000006  0.000005)
 14:    293.14   0.000070    0.35  0.000074  (-0.000007  0.000134  0.008614)
 15:    315.75   0.000007    0.03  0.000007  ( 0.000217  0.000115 -0.002601)
 16:    316.29   0.000153    0.77  0.000151  ( 0.012296 -0.000012  0.000050)
 17:    344.70   0.000006    0.03  0.000005  ( 0.002330 -0.000003  0.000002)
 18:    393.62   0.000106    0.54  0.000084  ( 0.000004  0.009173 -0.000025)
 19:    452.89   0.000000    0.00  0.000000  (-0.000540 -0.000004  0.000002)
 20:    481.22   0.000008    0.04  0.000005  ( 0.000000  0.000911  0.002134)
 21:    521.15   0.000230    1.16  0.000137  (-0.011723 -0.000008 -0.000002)
 22:    610.62   0.000527    2.67  0.000270  ( 0.000002 -0.000234 -0.016416)
 23:    678.46   0.000001    0.00  0.000000  ( 0.000657  0.000082  0.000003)
 24:    683.95   0.016190   81.82  0.007387  (-0.000025 -0.085893 -0.003082)
 25:    701.43   0.000355    1.79  0.000158  ( 0.012559 -0.000009 -0.000000)
 26:    760.49   0.009092   45.95  0.003731  (-0.000015 -0.061022 -0.002648)
 27:    897.18   0.004913   24.83  0.001709  ( 0.000010  0.041268  0.002388)
 28:    907.19   0.000001    0.01  0.000000  (-0.000588  0.000027  0.000011)
 29:    913.64   0.000258    1.30  0.000088  ( 0.000006  0.000734 -0.009350)
 30:    921.12   0.000634    3.21  0.000215  (-0.014659  0.000002 -0.000005)
 31:    947.26   0.000002    0.01  0.000001  (-0.000725  0.000182  0.000008)
 32:    947.44   0.001059    5.35  0.000349  (-0.000005 -0.018669 -0.000394)
 33:    967.63   0.000000    0.00  0.000000  (-0.000086  0.000095  0.000007)
 34:    968.62   0.000467    2.36  0.000151  (-0.000004 -0.012268 -0.000086)
 35:   1027.48   0.003411   17.24  0.001036  ( 0.032184 -0.000006  0.000003)
 36:   1036.52   0.000118    0.60  0.000036  ( 0.000002 -0.000746  0.005925)
 37:   1100.59   0.003914   19.78  0.001110  ( 0.000004 -0.002747  0.033200)
 38:   1124.45   0.000068    0.34  0.000019  ( 0.004344  0.000005 -0.000005)
 39:   1138.05   0.000503    2.54  0.000138  ( 0.000002 -0.000487  0.011735)
 40:   1170.84   0.020815  105.19  0.005548  ( 0.074483  0.000000  0.000000)
 41:   1177.85   0.000114    0.58  0.000030  (-0.005504 -0.000053  0.000001)
 42:   1179.03   0.004423   22.35  0.001171  (-0.000045  0.034180  0.001539)
 43:   1195.18   0.001557    7.87  0.000407  (-0.000008  0.000686 -0.020154)
 44:   1216.57   0.031083  157.08  0.007973  ( 0.089292 -0.000024  0.000003)
 45:   1266.84   0.006739   34.06  0.001660  ( 0.040745 -0.000016  0.000003)
 46:   1342.76   0.000003    0.01  0.000001  ( 0.000003 -0.000452  0.000673)
 47:   1352.99   0.000001    0.01  0.000000  (-0.000558 -0.000024  0.000003)
 48:   1353.20   0.000051    0.26  0.000012  (-0.000007 -0.003417 -0.000063)
 49:   1372.66   0.006998   35.37  0.001591  (-0.039888  0.000013  0.000002)
 50:   1401.58   0.004026   20.35  0.000896  (-0.000008 -0.000276  0.029940)
 51:   1405.82   0.000027    0.13  0.000006  (-0.002277 -0.000835 -0.000120)
 52:   1406.03   0.008134   41.11  0.001805  (-0.000037  0.042044  0.006139)
 53:   1410.25   0.007030   35.53  0.001556  (-0.000244  0.007665 -0.038688)
 54:   1410.63   0.001289    6.52  0.000285  ( 0.016880  0.000104 -0.000555)
 55:   1449.59   0.000012    0.06  0.000003  ( 0.000053  0.001593  0.000027)
 56:   1449.59   0.000002    0.01  0.000000  (-0.000171  0.000643 -0.000014)
 57:   1457.32   0.000001    0.01  0.000000  (-0.000555  0.000043 -0.000050)
 58:   1458.39   0.001430    7.23  0.000306  (-0.000001 -0.013410  0.011236)
 59:   1460.18   0.000024    0.12  0.000005  (-0.002253 -0.000001 -0.000078)
 60:   1461.99   0.007146   36.12  0.001525  (-0.000040  0.004028  0.038848)
 61:   1465.76   0.005575   28.17  0.001187  ( 0.034453 -0.000002  0.000037)
 62:   1476.56   0.000721    3.65  0.000152  ( 0.000002 -0.000241  0.012345)
 63:   1490.70   0.000405    2.05  0.000085  ( 0.009209 -0.000005 -0.000001)
 64:   1514.61   0.000807    4.08  0.000166  ( 0.000002 -0.000269  0.012894)
 65:   1644.13   0.001458    7.37  0.000277  (-0.000007  0.001032 -0.016604)
 66:   1645.23   0.028418  143.61  0.005390  (-0.073418  0.000028  0.000000)
 67:   3072.61   0.005384   27.21  0.000547  (-0.000107  0.023100  0.003633)
 68:   3072.61   0.000110    0.56  0.000011  ( 0.000794  0.003214  0.000483)
 69:   3074.60   0.000065    0.33  0.000007  (-0.002395  0.000273 -0.000893)
 70:   3074.64   0.002626   13.27  0.000267  ( 0.000139  0.005322 -0.015433)
 71:   3138.72   0.000625    3.16  0.000062  (-0.006209 -0.000039 -0.004860)
 72:   3138.72   0.000728    3.68  0.000072  (-0.004022  0.000063  0.007500)
 73:   3175.92   0.001879    9.49  0.000185  (-0.000036 -0.013307  0.002742)
 74:   3175.95   0.000069    0.35  0.000007  (-0.002594  0.000255 -0.000077)
 75:   3179.38   0.006860   34.67  0.000673  (-0.003404  0.001256  0.025694)
 76:   3179.39   0.003986   20.14  0.000391  (-0.019250 -0.000230 -0.004537)
 77:   3189.40   0.000142    0.72  0.000014  (-0.002753  0.002518 -0.000120)
 78:   3189.40   0.002372   11.99  0.000232  ( 0.000474  0.015209 -0.000768)
 79:   3191.31   0.005227   26.41  0.000511  (-0.022603 -0.000059 -0.000452)
 80:   3191.34   0.000841    4.25  0.000082  ( 0.001145 -0.001467 -0.008877)
 81:   3294.70   0.012190   61.60  0.001155  (-0.000002 -0.001291  0.033955)
 82:   3301.10   0.005193   26.25  0.000491  (-0.022157  0.000009 -0.000002)
 83:   3318.88   0.002973   15.03  0.000280  ( 0.000000  0.000717 -0.016706)

* The epsilon (eps) is given for a Dirac delta lineshape.
** The dipole moment derivative (T) already includes vibrational overlap.

The first frequency considered to be a vibration is 6
The total number of vibrations considered is 78


--------------------------
THERMOCHEMISTRY AT 298.15K
--------------------------

Temperature         ... 298.15 K
Pressure            ... 1.00 atm
Total Mass          ... 153.25 AMU

Throughout the following assumptions are being made:
  (1) The electronic state is orbitally nondegenerate
  (2) There are no thermally accessible electronically excited states
  (3) Hindered rotations indicated by low frequency modes are not
      treated as such but are treated as vibrations and this may
      cause some error
  (4) All equations used are the standard statistical mechanics
      equations for an ideal gas
  (5) All vibrations are strictly harmonic

freq.      45.28  E(vib)   ...       0.53 
freq.      55.82  E(vib)   ...       0.52 
freq.      92.52  E(vib)   ...       0.47 
freq.     136.97  E(vib)   ...       0.42 
freq.     166.11  E(vib)   ...       0.39 
freq.     264.16  E(vib)   ...       0.29 
freq.     264.90  E(vib)   ...       0.29 
freq.     276.52  E(vib)   ...       0.28 
freq.     293.14  E(vib)   ...       0.27 
freq.     315.75  E(vib)   ...       0.25 
freq.     316.29  E(vib)   ...       0.25 
freq.     344.70  E(vib)   ...       0.23 
freq.     393.62  E(vib)   ...       0.20 
freq.     452.89  E(vib)   ...       0.16 
freq.     481.22  E(vib)   ...       0.15 
freq.     521.15  E(vib)   ...       0.13 
freq.     610.62  E(vib)   ...       0.10 
freq.     678.46  E(vib)   ...       0.08 
freq.     683.95  E(vib)   ...       0.07 
freq.     701.43  E(vib)   ...       0.07 
freq.     760.49  E(vib)   ...       0.06 
freq.     897.18  E(vib)   ...       0.03 
freq.     907.19  E(vib)   ...       0.03 
freq.     913.64  E(vib)   ...       0.03 
freq.     921.12  E(vib)   ...       0.03 
freq.     947.26  E(vib)   ...       0.03 
freq.     947.44  E(vib)   ...       0.03 
freq.     967.63  E(vib)   ...       0.03 
freq.     968.62  E(vib)   ...       0.03 
freq.    1027.48  E(vib)   ...       0.02 
freq.    1036.52  E(vib)   ...       0.02 
freq.    1100.59  E(vib)   ...       0.02 
freq.    1124.45  E(vib)   ...       0.01 
freq.    1138.05  E(vib)   ...       0.01 
freq.    1170.84  E(vib)   ...       0.01 
freq.    1177.85  E(vib)   ...       0.01 
freq.    1179.03  E(vib)   ...       0.01 
freq.    1195.18  E(vib)   ...       0.01 
freq.    1216.57  E(vib)   ...       0.01 
freq.    1266.84  E(vib)   ...       0.01 
freq.    1342.76  E(vib)   ...       0.01 
freq.    1352.99  E(vib)   ...       0.01 
freq.    1353.20  E(vib)   ...       0.01 
freq.    1372.66  E(vib)   ...       0.01 
freq.    1401.58  E(vib)   ...       0.00 
freq.    1405.82  E(vib)   ...       0.00 
freq.    1406.03  E(vib)   ...       0.00 
freq.    1410.25  E(vib)   ...       0.00 
freq.    1410.63  E(vib)   ...       0.00 
freq.    1449.59  E(vib)   ...       0.00 
freq.    1449.59  E(vib)   ...       0.00 
freq.    1457.32  E(vib)   ...       0.00 
freq.    1458.39  E(vib)   ...       0.00 
freq.    1460.18  E(vib)   ...       0.00 
freq.    1461.99  E(vib)   ...       0.00 
freq.    1465.76  E(vib)   ...       0.00 
freq.    1476.56  E(vib)   ...       0.00 
freq.    1490.70  E(vib)   ...       0.00 
freq.    1514.61  E(vib)   ...       0.00 
freq.    1644.13  E(vib)   ...       0.00 
freq.    1645.23  E(vib)   ...       0.00 
freq.    3072.61  E(vib)   ...       0.00 
freq.    3072.61  E(vib)   ...       0.00 
freq.    3074.60  E(vib)   ...       0.00 
freq.    3074.64  E(vib)   ...       0.00 
freq.    3138.72  E(vib)   ...       0.00 
freq.    3138.72  E(vib)   ...       0.00 
freq.    3175.92  E(vib)   ...       0.00 
freq.    3175.95  E(vib)   ...       0.00 
freq.    3179.38  E(vib)   ...       0.00 
freq.    3179.39  E(vib)   ...       0.00 
freq.    3189.40  E(vib)   ...       0.00 
freq.    3189.40  E(vib)   ...       0.00 
freq.    3191.31  E(vib)   ...       0.00 
freq.    3191.34  E(vib)   ...       0.00 
freq.    3294.70  E(vib)   ...       0.00 
freq.    3301.10  E(vib)   ...       0.00 
freq.    3318.88  E(vib)   ...       0.00 

------------
INNER ENERGY
------------

The inner energy is: U= E(el) + E(ZPE) + E(vib) + E(rot) + E(trans)
    E(el)   - is the total energy from the electronic structure calculation
              = E(kin-el) + E(nuc-el) + E(el-el) + E(nuc-nuc)
    E(ZPE)  - the the zero temperature vibrational energy from the frequency calculation
    E(vib)  - the the finite temperature correction to E(ZPE) due to population
              of excited vibrational states
    E(rot)  - is the rotational thermal energy
    E(trans)- is the translational thermal energy

Summary of contributions to the inner energy U:
Electronic energy                ...   -462.13555132 Eh
Zero point energy                ...      0.25594777 Eh     160.61 kcal/mol
Thermal vibrational correction   ...      0.00905153 Eh       5.68 kcal/mol
Thermal rotational correction    ...      0.00141627 Eh       0.89 kcal/mol
Thermal translational correction ...      0.00141627 Eh       0.89 kcal/mol
-----------------------------------------------------------------------
Total thermal energy                   -461.86771948 Eh


Summary of corrections to the electronic energy:
(perhaps to be used in another calculation)
Total thermal correction                  0.01188407 Eh       7.46 kcal/mol
Non-thermal (ZPE) correction              0.25594777 Eh     160.61 kcal/mol
-----------------------------------------------------------------------
Total correction                          0.26783184 Eh     168.07 kcal/mol


--------
ENTHALPY
--------

The enthalpy is H = U + kB*T
                kB is Boltzmann's constant
Total free energy                 ...   -461.86771948 Eh 
Thermal Enthalpy correction       ...      0.00094421 Eh       0.59 kcal/mol
-----------------------------------------------------------------------
Total Enthalpy                    ...   -461.86677527 Eh


Note: Only C1 symmetry has been detected, increase convergence thresholds 
      if your molecule has a higher symmetry. Symmetry factor of 1.0 is   
      used for the rotational entropy correction. 
 

Note: Rotational entropy computed according to Herzberg 
Infrared and Raman Spectra, Chapter V,1, Van Nostrand Reinhold, 1945 
Point Group:  C1, Symmetry Number:   1  
Rotational constants in cm-1:     0.065515     0.021037     0.020111 

Vibrational entropy computed according to the QRRHO of S. Grimme
Chem.Eur.J. 2012 18 9955


-------
ENTROPY
-------

The entropy contributions are T*S = T*(S(el)+S(vib)+S(rot)+S(trans))
     S(el)   - electronic entropy
     S(vib)  - vibrational entropy
     S(rot)  - rotational entropy
     S(trans)- translational entropy
The entropies will be listed as multiplied by the temperature to get
units of energy

Electronic entropy                ...      0.00000000 Eh      0.00 kcal/mol
Vibrational entropy               ...      0.01542887 Eh      9.68 kcal/mol
Rotational entropy                ...      0.01446466 Eh      9.08 kcal/mol
Translational entropy             ...      0.01947584 Eh     12.22 kcal/mol
-----------------------------------------------------------------------
Final entropy term                ...      0.04936938 Eh     30.98 kcal/mol

In case the symmetry of your molecule has not been determined correctly
or in case you have a reason to use a different symmetry number we print 
out the resulting rotational entropy values for sn=1,12 :
 --------------------------------------------------------
|  sn= 1 | S(rot)=       0.01446466 Eh      9.08 kcal/mol|
|  sn= 2 | S(rot)=       0.01381021 Eh      8.67 kcal/mol|
|  sn= 3 | S(rot)=       0.01342737 Eh      8.43 kcal/mol|
|  sn= 4 | S(rot)=       0.01315575 Eh      8.26 kcal/mol|
|  sn= 5 | S(rot)=       0.01294506 Eh      8.12 kcal/mol|
|  sn= 6 | S(rot)=       0.01277292 Eh      8.02 kcal/mol|
|  sn= 7 | S(rot)=       0.01262737 Eh      7.92 kcal/mol|
|  sn= 8 | S(rot)=       0.01250129 Eh      7.84 kcal/mol|
|  sn= 9 | S(rot)=       0.01239008 Eh      7.77 kcal/mol|
|  sn=10 | S(rot)=       0.01229060 Eh      7.71 kcal/mol|
|  sn=11 | S(rot)=       0.01220061 Eh      7.66 kcal/mol|
|  sn=12 | S(rot)=       0.01211846 Eh      7.60 kcal/mol|
 --------------------------------------------------------


-------------------
GIBBS FREE ENERGY
-------------------

The Gibbs free energy is G = H - T*S

Total enthalpy                    ...   -461.86677527 Eh 
Total entropy correction          ...     -0.04936938 Eh    -30.98 kcal/mol
-----------------------------------------------------------------------
Final Gibbs free energy         ...   -461.91614465 Eh

For completeness - the Gibbs free energy minus the electronic energy
G-E(el)                           ...      0.21940667 Eh    137.68 kcal/mol


Timings for individual modules:

Sum of individual times         ...     4068.429 sec (=  67.807 min)
GTO integral calculation        ...        2.358 sec (=   0.039 min)   0.1 %
SCF iterations                  ...     1941.921 sec (=  32.365 min)  47.7 %
SCF Gradient evaluation         ...      512.978 sec (=   8.550 min)  12.6 %
Geometry relaxation             ...        0.444 sec (=   0.007 min)   0.0 %
Analytical frequency calculation...     1610.729 sec (=  26.845 min)  39.6 %
                             ****ORCA TERMINATED NORMALLY****
TOTAL RUN TIME: 0 days 1 hours 7 minutes 49 seconds 469 msec
