
                                 *****************
                                 * O   R   C   A *
                                 *****************

                                            #,                                       
                                            ###                                      
                                            ####                                     
                                            #####                                    
                                            ######                                   
                                           ########,                                 
                                     ,,################,,,,,                         
                               ,,#################################,,                 
                          ,,##########################################,,             
                       ,#########################################, ''#####,          
                    ,#############################################,,   '####,        
                  ,##################################################,,,,####,       
                ,###########''''           ''''###############################       
              ,#####''   ,,,,##########,,,,          '''####'''          '####       
            ,##' ,,,,###########################,,,                        '##       
           ' ,,###''''                  '''############,,,                           
         ,,##''                                '''############,,,,        ,,,,,,###''
      ,#''                                            '''#######################'''  
     '                                                          ''''####''''         
             ,#######,   #######,   ,#######,      ##                                
            ,#'     '#,  ##    ##  ,#'     '#,    #''#        ######   ,####,        
            ##       ##  ##   ,#'  ##            #'  '#       #        #'  '#        
            ##       ##  #######   ##           ,######,      #####,   #    #        
            '#,     ,#'  ##    ##  '#,     ,#' ,#      #,         ##   #,  ,#        
             '#######'   ##     ##  '#######'  #'      '#     #####' # '####'        



                  #######################################################
                  #                        -***-                        #
                  #          Department of theory and spectroscopy      #
                  #    Directorship and core code : Frank Neese         #
                  #        Max Planck Institute fuer Kohlenforschung    #
                  #                Kaiser Wilhelm Platz 1               #
                  #                 D-45470 Muelheim/Ruhr               #
                  #                      Germany                        #
                  #                                                     #
                  #                  All rights reserved                #
                  #                        -***-                        #
                  #######################################################


                         Program Version 5.0.4 -  RELEASE  -


 With contributions from (in alphabetic order):
   Daniel Aravena         : Magnetic Suceptibility
   Michael Atanasov       : Ab Initio Ligand Field Theory (pilot matlab implementation)
   Alexander A. Auer      : GIAO ZORA, VPT2 properties, NMR spectrum
   Ute Becker             : Parallelization
   Giovanni Bistoni       : ED, misc. LED, open-shell LED, HFLD
   Martin Brehm           : Molecular dynamics
   Dmytro Bykov           : SCF Hessian
   Vijay G. Chilkuri      : MRCI spin determinant printing, contributions to CSF-ICE
   Dipayan Datta          : RHF DLPNO-CCSD density
   Achintya Kumar Dutta   : EOM-CC, STEOM-CC
   Dmitry Ganyushin       : Spin-Orbit,Spin-Spin,Magnetic field MRCI
   Miquel Garcia          : C-PCM and meta-GGA Hessian, CC/C-PCM, Gaussian charge scheme
   Yang Guo               : DLPNO-NEVPT2, F12-NEVPT2, CIM, IAO-localization
   Andreas Hansen         : Spin unrestricted coupled pair/coupled cluster methods
   Benjamin Helmich-Paris : MC-RPA, TRAH-SCF, COSX integrals
   Lee Huntington         : MR-EOM, pCC
   Robert Izsak           : Overlap fitted RIJCOSX, COSX-SCS-MP3, EOM
   Marcus Kettner         : VPT2
   Christian Kollmar      : KDIIS, OOCD, Brueckner-CCSD(T), CCSD density, CASPT2, CASPT2-K
   Simone Kossmann        : Meta GGA functionals, TD-DFT gradient, OOMP2, MP2 Hessian
   Martin Krupicka        : Initial AUTO-CI
   Lucas Lang             : DCDCAS
   Marvin Lechner         : AUTO-CI (C++ implementation), FIC-MRCC
   Dagmar Lenk            : GEPOL surface, SMD
   Dimitrios Liakos       : Extrapolation schemes; Compound Job, initial MDCI parallelization
   Dimitrios Manganas     : Further ROCIS development; embedding schemes
   Dimitrios Pantazis     : SARC Basis sets
   Anastasios Papadopoulos: AUTO-CI, single reference methods and gradients
   Taras Petrenko         : DFT Hessian,TD-DFT gradient, ASA, ECA, R-Raman, ABS, FL, XAS/XES, NRVS
   Peter Pinski           : DLPNO-MP2, DLPNO-MP2 Gradient
   Christoph Reimann      : Effective Core Potentials
   Marius Retegan         : Local ZFS, SOC
   Christoph Riplinger    : Optimizer, TS searches, QM/MM, DLPNO-CCSD(T), (RO)-DLPNO pert. Triples
   Tobias Risthaus        : Range-separated hybrids, TD-DFT gradient, RPA, STAB
   Michael Roemelt        : Original ROCIS implementation
   Masaaki Saitow         : Open-shell DLPNO-CCSD energy and density
   Barbara Sandhoefer     : DKH picture change effects
   Avijit Sen             : IP-ROCIS
   Kantharuban Sivalingam : CASSCF convergence, NEVPT2, FIC-MRCI
   Bernardo de Souza      : ESD, SOC TD-DFT
   Georgi Stoychev        : AutoAux, RI-MP2 NMR, DLPNO-MP2 response
   Willem Van den Heuvel  : Paramagnetic NMR
   Boris Wezisla          : Elementary symmetry handling
   Frank Wennmohs         : Technical directorship


 We gratefully acknowledge several colleagues who have allowed us to
 interface, adapt or use parts of their codes:
   Stefan Grimme, W. Hujo, H. Kruse, P. Pracht,  : VdW corrections, initial TS optimization,
                  C. Bannwarth, S. Ehlert          DFT functionals, gCP, sTDA/sTD-DF
   Ed Valeev, F. Pavosevic, A. Kumar             : LibInt (2-el integral package), F12 methods
   Garnet Chan, S. Sharma, J. Yang, R. Olivares  : DMRG
   Ulf Ekstrom                                   : XCFun DFT Library
   Mihaly Kallay                                 : mrcc  (arbitrary order and MRCC methods)
   Jiri Pittner, Ondrej Demel                    : Mk-CCSD
   Frank Weinhold                                : gennbo (NPA and NBO analysis)
   Christopher J. Cramer and Donald G. Truhlar   : smd solvation model
   Lars Goerigk                                  : TD-DFT with DH, B97 family of functionals
   V. Asgeirsson, H. Jonsson                     : NEB implementation
   FAccTs GmbH                                   : IRC, NEB, NEB-TS, DLPNO-Multilevel, CI-OPT
                                                   MM, QMMM, 2- and 3-layer-ONIOM, Crystal-QMMM,
                                                   LR-CPCM, SF, NACMEs, symmetry and pop. for TD-DFT,
                                                   nearIR, NL-DFT gradient (VV10), updates on ESD,
                                                   ML-optimized integration grids
   S Lehtola, MJT Oliveira, MAL Marques          : LibXC Library
   Liviu Ungur et al                             : ANISO software


 Your calculation uses the libint2 library for the computation of 2-el integrals
 For citations please refer to: http://libint.valeyev.net

 Your ORCA version has been built with support for libXC version: 5.1.0
 For citations please refer to: https://tddft.org/programs/libxc/

 This ORCA versions uses:
   CBLAS   interface :  Fast vector & matrix operations
   LAPACKE interface :  Fast linear algebra routines
   SCALAPACK package :  Parallel linear algebra routines
   Shared memory     :  Shared parallel matrices
   BLAS/LAPACK       :  OpenBLAS 0.3.15  USE64BITINT DYNAMIC_ARCH NO_AFFINITY SkylakeX SINGLE_THREADED
        Core in use  :  SkylakeX
   Copyright (c) 2011-2014, The OpenBLAS Project




***************************************
The coordinates will be read from file: 4_prot_aq_7.xyz
***************************************


Your calculation utilizes the atom-pairwise dispersion correction
based on tight binding partial charges (D4)
Cite in your paper:
E.Caldeweyher, C.Bannwarth, S.Grimme, J.Chem.Phys., (2017), 147, 034112.
E.Caldeweyher, S.Ehlert, A.Hansen, H.Neugebauer, S.Grimme, J.Chem.Phys., (2018), in progress.
   

XCFun DFT library Copyright 2009-2010 Ulf Ekstrom and contributors.
See http://admol.org/xcfun for more information.
This is free software; see the source code for copying conditions.
There is ABSOLUTELY NO WARRANTY; not even for MERCHANTABILITY or FITNESS FOR A PARTICULAR PURPOSE.
For details see the documentation.
Scientific users of this library should cite U. Ekstrom, L. Visscher, R. Bast, A. J. Thorvaldsen and K. Ruud;
J.Chem.Theor.Comp. 2010, DOI: 10.1021/ct100117s
XCFun Version 0.99 

================================================================================

----- Orbital basis set information -----
Your calculation utilizes the basis: def2-SVP
   F. Weigend and R. Ahlrichs, Phys. Chem. Chem. Phys. 7, 3297 (2005).

----- AuxJ basis set information -----
Your calculation utilizes the auxiliary basis: def2/J
   F. Weigend, Phys. Chem. Chem. Phys. 8, 1057 (2006).

================================================================================
                                        WARNINGS
                       Please study these warnings very carefully!
================================================================================


WARNING: Geometry Optimization
  ===> : Switching off AutoStart
         For restart on a previous wavefunction, please use MOREAD

INFO   : the flag for use of the SHARK integral package has been found!

================================================================================
                                       INPUT FILE
================================================================================
NAME = 4_prot_aq_7.inp
|  1> # ORCA 5.0.4 - /users/bwb16179/postgrad/2024_03/DFT_Crest_Conformers/Opt/prot/4_prot_aq_7.inp # write input file
|  2> # Basic Mode
|  3> #
|  4> ! Opt Freq wB97X Def2-SVP D4 SlowConv TightSCF Defgrid2 Def2/J RIJCOSX CPCM(Water)
|  5> 
|  6> 
|  7> 
|  8> %maxcore 4500
|  9> 
| 10> %geom
| 11> Maxiter 150
| 12> END
| 13> 
| 14> * xyzfile 1 1 4_prot_aq_7.xyz
| 15> 
| 16>                          ****END OF INPUT****
================================================================================

                       *****************************
                       * Geometry Optimization Run *
                       *****************************

Geometry optimization settings:
Update method            Update   .... BFGS
Choice of coordinates    CoordSys .... Z-matrix Internals
Initial Hessian          InHess   .... Almoef's Model

Convergence Tolerances:
Energy Change            TolE     ....  5.0000e-06 Eh
Max. Gradient            TolMAXG  ....  3.0000e-04 Eh/bohr
RMS Gradient             TolRMSG  ....  1.0000e-04 Eh/bohr
Max. Displacement        TolMAXD  ....  4.0000e-03 bohr
RMS Displacement         TolRMSD  ....  2.0000e-03 bohr
Strict Convergence                ....  False
------------------------------------------------------------------------------
                        ORCA OPTIMIZATION COORDINATE SETUP
------------------------------------------------------------------------------

The optimization will be done in new redundant internal coordinates
Making redundant internal coordinates   ...  (new redundants) done
Evaluating the initial hessian          ...  (Almloef) done
Evaluating the coordinates              ...  done
Calculating the B-matrix                .... done
Calculating the G-matrix                .... done
Diagonalizing the G-matrix              .... done
Small eigenvalue found = 1.190e-02
Small eigenvalue found = 2.235e-02
The first mode is                       ....   69
The number of degrees of freedom        ....   78

    -----------------------------------------------------------------
                    Redundant Internal Coordinates


    -----------------------------------------------------------------
         Definition                    Initial Value    Approx d2E/dq
    -----------------------------------------------------------------
      1. B(C   1,N   0)                  1.3299         0.697924   
      2. B(N   2,C   1)                  1.3299         0.697730   
      3. B(H   3,C   1)                  1.0707         0.386489   
      4. B(C   4,N   2)                  1.3607         0.623266   
      5. B(C   5,C   4)                  1.3614         0.694030   
      6. B(C   5,N   0)                  1.3607         0.623110   
      7. B(C   6,N   0)                  1.4600         0.432635   
      8. B(C   7,N   2)                  1.4600         0.432656   
      9. B(C   8,C   6)                  1.5272         0.377414   
     10. B(H   9,C   6)                  1.0945         0.354131   
     11. B(C  10,C   6)                  1.5235         0.382610   
     12. B(C  11,C   7)                  1.5236         0.382447   
     13. B(C  12,C   7)                  1.5271         0.377532   
     14. B(H  13,C   7)                  1.0945         0.354197   
     15. B(H  14,C   4)                  1.0707         0.386531   
     16. B(H  15,C   5)                  1.0707         0.386532   
     17. B(H  16,C   8)                  1.0874         0.363545   
     18. B(H  17,C   8)                  1.0873         0.363678   
     19. B(H  18,C   8)                  1.0856         0.365943   
     20. B(H  19,C  10)                  1.0859         0.365506   
     21. B(H  20,C  10)                  1.0874         0.363548   
     22. B(H  21,C  10)                  1.0867         0.364515   
     23. B(H  22,C  11)                  1.0859         0.365524   
     24. B(H  23,C  11)                  1.0874         0.363558   
     25. B(H  24,C  11)                  1.0867         0.364546   
     26. B(H  25,C  12)                  1.0873         0.363674   
     27. B(H  26,C  12)                  1.0856         0.365942   
     28. B(H  27,C  12)                  1.0874         0.363575   
     29. A(C   1,N   0,C   6)          126.9472         0.410361   
     30. A(C   5,N   0,C   6)          125.1271         0.402219   
     31. A(C   1,N   0,C   5)          107.8485         0.438024   
     32. A(N   0,C   1,H   3)          125.2155         0.362184   
     33. A(N   2,C   1,H   3)          125.1983         0.362167   
     34. A(N   0,C   1,N   2)          109.5862         0.447074   
     35. A(C   1,N   2,C   7)          126.8867         0.410344   
     36. A(C   1,N   2,C   4)          107.8503         0.438021   
     37. A(C   4,N   2,C   7)          125.1905         0.402240   
     38. A(N   2,C   4,H  14)          122.6465         0.355284   
     39. A(C   5,C   4,H  14)          129.9967         0.364108   
     40. A(N   2,C   4,C   5)          107.3567         0.440494   
     41. A(N   0,C   5,C   4)          107.3576         0.440474   
     42. A(N   0,C   5,H  15)          122.6417         0.355269   
     43. A(C   4,C   5,H  15)          130.0005         0.364109   
     44. A(N   0,C   6,C  10)          110.9274         0.371811   
     45. A(C   8,C   6,H   9)          109.3464         0.323973   
     46. A(N   0,C   6,H   9)          106.0564         0.329355   
     47. A(N   0,C   6,C   8)          109.0546         0.370937   
     48. A(H   9,C   6,C  10)          109.3772         0.324702   
     49. A(C   8,C   6,C  10)          111.9004         0.365479   
     50. A(C  12,C   7,H  13)          109.3477         0.324000   
     51. A(C  11,C   7,H  13)          109.3716         0.324689   
     52. A(N   2,C   7,H  13)          106.0533         0.329368   
     53. A(C  11,C   7,C  12)          111.9157         0.365471   
     54. A(N   2,C   7,C  12)          109.0909         0.370960   
     55. A(N   2,C   7,C  11)          110.8827         0.371786   
     56. A(C   6,C   8,H  18)          109.4507         0.325725   
     57. A(H  16,C   8,H  17)          108.8516         0.291728   
     58. A(C   6,C   8,H  17)          111.0255         0.325393   
     59. A(C   6,C   8,H  16)          110.8058         0.325373   
     60. A(H  17,C   8,H  18)          108.2730         0.292030   
     61. A(H  16,C   8,H  18)          108.3583         0.292013   
     62. A(H  19,C  10,H  21)          107.6892         0.292081   
     63. A(C   6,C  10,H  21)          111.5549         0.326249   
     64. A(H  19,C  10,H  20)          108.0363         0.291959   
     65. A(C   6,C  10,H  20)          111.0666         0.326106   
     66. A(H  20,C  10,H  21)          109.2997         0.291834   
     67. A(C   6,C  10,H  19)          109.0706         0.326394   
     68. A(H  23,C  11,H  24)          109.2799         0.291839   
     69. A(H  22,C  11,H  24)          107.7022         0.292087   
     70. A(C   7,C  11,H  24)          111.5561         0.326230   
     71. A(H  22,C  11,H  23)          108.0428         0.291962   
     72. A(C   7,C  11,H  23)          111.0546         0.326085   
     73. A(C   7,C  11,H  22)          109.0828         0.326374   
     74. A(H  26,C  12,H  27)          108.3535         0.292017   
     75. A(H  25,C  12,H  27)          108.8540         0.291731   
     76. A(C   7,C  12,H  27)          110.8225         0.325394   
     77. A(H  25,C  12,H  26)          108.2699         0.292029   
     78. A(C   7,C  12,H  26)          109.4468         0.325742   
     79. A(C   7,C  12,H  25)          111.0178         0.325409   
     80. D(H   3,C   1,N   0,C   5)   -179.9208         0.040285   
     81. D(H   3,C   1,N   0,C   6)     -3.0038         0.040285   
     82. D(N   2,C   1,N   0,C   6)    177.0083         0.040285   
     83. D(N   2,C   1,N   0,C   5)      0.0913         0.040285   
     84. D(C   7,N   2,C   1,H   3)     -2.8908         0.040260   
     85. D(C   7,N   2,C   1,N   0)    177.0971         0.040260   
     86. D(C   4,N   2,C   1,H   3)   -179.9050         0.040260   
     87. D(C   4,N   2,C   1,N   0)      0.0828         0.040260   
     88. D(H  14,C   4,N   2,C   1)    179.8850         0.031482   
     89. D(C   5,C   4,N   2,C   7)   -177.3016         0.031482   
     90. D(H  14,C   4,N   2,C   7)      2.8071         0.031482   
     91. D(C   5,C   4,N   2,C   1)     -0.2236         0.031482   
     92. D(H  15,C   5,N   0,C   1)    179.8945         0.031465   
     93. D(C   4,C   5,N   0,C   6)   -177.2163         0.031465   
     94. D(C   4,C   5,N   0,C   1)     -0.2288         0.031465   
     95. D(H  15,C   5,C   4,H  14)      0.0224         0.033876   
     96. D(H  15,C   5,C   4,N   2)   -179.8582         0.033876   
     97. D(N   0,C   5,C   4,H  14)   -179.8421         0.033876   
     98. D(N   0,C   5,C   4,N   2)      0.2773         0.033876   
     99. D(H  15,C   5,N   0,C   6)      2.9070         0.031465   
    100. D(C  10,C   6,N   0,C   5)   -142.6695         0.015958   
    101. D(C  10,C   6,N   0,C   1)     40.9192         0.015958   
    102. D(H   9,C   6,N   0,C   5)    -24.0037         0.015958   
    103. D(H   9,C   6,N   0,C   1)    159.5850         0.015958   
    104. D(C   8,C   6,N   0,C   5)     93.6495         0.015958   
    105. D(C   8,C   6,N   0,C   1)    -82.7618         0.015958   
    106. D(C  12,C   7,N   2,C   4)     94.8560         0.015960   
    107. D(C  11,C   7,N   2,C   4)   -141.4486         0.015960   
    108. D(C  11,C   7,N   2,C   1)     42.0295         0.015960   
    109. D(H  13,C   7,N   2,C   1)    160.6628         0.015960   
    110. D(C  12,C   7,N   2,C   1)    -81.6659         0.015960   
    111. D(H  13,C   7,N   2,C   4)    -22.8154         0.015960   
    112. D(H  18,C   8,C   6,C  10)     60.2347         0.011361   
    113. D(H  18,C   8,C   6,H   9)    -61.1068         0.011361   
    114. D(H  18,C   8,C   6,N   0)   -176.6632         0.011361   
    115. D(H  17,C   8,C   6,C  10)    179.7057         0.011361   
    116. D(H  17,C   8,C   6,H   9)     58.3642         0.011361   
    117. D(H  17,C   8,C   6,N   0)    -57.1922         0.011361   
    118. D(H  16,C   8,C   6,C  10)    -59.2053         0.011361   
    119. D(H  16,C   8,C   6,H   9)    179.4532         0.011361   
    120. D(H  16,C   8,C   6,N   0)     63.8968         0.011361   
    121. D(H  21,C  10,C   6,H   9)    171.4455         0.011659   
    122. D(H  21,C  10,C   6,C   8)     50.1217         0.011659   
    123. D(H  21,C  10,C   6,N   0)    -71.9137         0.011659   
    124. D(H  20,C  10,C   6,H   9)    -66.3479         0.011659   
    125. D(H  20,C  10,C   6,C   8)    172.3283         0.011659   
    126. D(H  20,C  10,C   6,N   0)     50.2929         0.011659   
    127. D(H  19,C  10,C   6,H   9)     52.6141         0.011659   
    128. D(H  19,C  10,C   6,C   8)    -68.7097         0.011659   
    129. D(H  19,C  10,C   6,N   0)    169.2549         0.011659   
    130. D(H  24,C  11,C   7,C  12)     50.2493         0.011650   
    131. D(H  24,C  11,C   7,N   2)    -71.8116         0.011650   
    132. D(H  23,C  11,C   7,H  13)    -66.2455         0.011650   
    133. D(H  23,C  11,C   7,C  12)    172.4229         0.011650   
    134. D(H  23,C  11,C   7,N   2)     50.3620         0.011650   
    135. D(H  22,C  11,C   7,H  13)     52.7250         0.011650   
    136. D(H  22,C  11,C   7,C  12)    -68.6067         0.011650   
    137. D(H  24,C  11,C   7,H  13)    171.5809         0.011650   
    138. D(H  22,C  11,C   7,N   2)    169.3324         0.011650   
    139. D(H  26,C  12,C   7,N   2)   -176.6599         0.011368   
    140. D(H  25,C  12,C   7,H  13)     58.3734         0.011368   
    141. D(H  25,C  12,C   7,C  11)    179.7188         0.011368   
    142. D(H  25,C  12,C   7,N   2)    -57.2000         0.011368   
    143. D(H  27,C  12,C   7,H  13)    179.4715         0.011368   
    144. D(H  27,C  12,C   7,C  11)    -59.1830         0.011368   
    145. D(H  27,C  12,C   7,N   2)     63.8981         0.011368   
    146. D(H  26,C  12,C   7,H  13)    -61.0864         0.011368   
    147. D(H  26,C  12,C   7,C  11)     60.2590         0.011368   
    -----------------------------------------------------------------

Number of atoms                         .... 28
Number of degrees of freedom            .... 147

         *************************************************************
         *                GEOMETRY OPTIMIZATION CYCLE   1            *
         *************************************************************
---------------------------------
CARTESIAN COORDINATES (ANGSTROEM)
---------------------------------
  N     -1.082873   -0.064483    0.393797
  C      0.000690   -0.022847   -0.376082
  N      1.084226    0.098973    0.385408
  H      0.000927   -0.079004   -1.445357
  C      0.679533    0.134484    1.684015
  C     -0.678285    0.036013    1.689101
  C     -2.472366   -0.131627   -0.049523
  C      2.473208    0.121100   -0.063964
  C     -2.956355    1.276783   -0.387944
  H     -3.043319   -0.516583    0.801277
  C     -2.621493   -1.082775   -1.230249
  C      2.623768    0.968140   -1.321440
  C      2.950464   -1.313026   -0.282228
  H      3.047485    0.574448    0.750045
  H      1.365897    0.226936    2.500591
  H     -1.364779    0.029223    2.510757
  H     -2.397146    1.686471   -1.225738
  H     -2.848409    1.941936    0.465378
  H     -4.006275    1.242166   -0.661872
  H     -3.677410   -1.258211   -1.413379
  H     -2.152148   -2.041261   -1.021750
  H     -2.194297   -0.663406   -2.137173
  H      3.679972    1.121426   -1.521891
  H      2.160264    1.943426   -1.193316
  H      2.190909    0.476267   -2.188345
  H      2.841204   -1.902685    0.624751
  H      4.000060   -1.306415   -0.559492
  H      2.388212   -1.790112   -1.081395

----------------------------
CARTESIAN COORDINATES (A.U.)
----------------------------
  NO LB      ZA    FRAG     MASS         X           Y           Z
   0 N     7.0000    0    14.007   -2.046333   -0.121856    0.744169
   1 C     6.0000    0    12.011    0.001304   -0.043174   -0.710692
   2 N     7.0000    0    14.007    2.048890    0.187032    0.728316
   3 H     1.0000    0     1.008    0.001751   -0.149297   -2.731328
   4 C     6.0000    0    12.011    1.284132    0.254137    3.182327
   5 C     6.0000    0    12.011   -1.281773    0.068055    3.191938
   6 C     6.0000    0    12.011   -4.672095   -0.248738   -0.093585
   7 C     6.0000    0    12.011    4.673685    0.228846   -0.120874
   8 C     6.0000    0    12.011   -5.586701    2.412769   -0.733109
   9 H     1.0000    0     1.008   -5.751040   -0.976201    1.514194
  10 C     6.0000    0    12.011   -4.953903   -2.046149   -2.324834
  11 C     6.0000    0    12.011    4.958203    1.829519   -2.497159
  12 C     6.0000    0    12.011    5.575569   -2.481259   -0.533333
  13 H     1.0000    0     1.008    5.758912    1.085550    1.417379
  14 H     1.0000    0     1.008    2.581172    0.428847    4.725432
  15 H     1.0000    0     1.008   -2.579059    0.055224    4.744642
  16 H     1.0000    0     1.008   -4.529950    3.186968   -2.316309
  17 H     1.0000    0     1.008   -5.382712    3.669727    0.879436
  18 H     1.0000    0     1.008   -7.570762    2.347354   -1.250758
  19 H     1.0000    0     1.008   -6.949297   -2.377674   -2.670900
  20 H     1.0000    0     1.008   -4.066970   -3.857425   -1.930827
  21 H     1.0000    0     1.008   -4.146620   -1.253655   -4.038673
  22 H     1.0000    0     1.008    6.954140    2.119189   -2.875958
  23 H     1.0000    0     1.008    4.082307    3.672544   -2.255041
  24 H     1.0000    0     1.008    4.140218    0.900014   -4.135372
  25 H     1.0000    0     1.008    5.369098   -3.595553    1.180608
  26 H     1.0000    0     1.008    7.559017   -2.468767   -1.057286
  27 H     1.0000    0     1.008    4.513067   -3.382822   -2.043541

--------------------------------
INTERNAL COORDINATES (ANGSTROEM)
--------------------------------
 N      0   0   0     0.000000000000     0.00000000     0.00000000
 C      1   0   0     1.329870530016     0.00000000     0.00000000
 N      2   1   0     1.329946195562   109.58615573     0.00000000
 H      2   1   3     1.070748581418   125.21552963   179.98786973
 C      3   2   1     1.360667404984   107.85029854     0.08283567
 C      1   2   3     1.360735806911   107.84853765     0.09133803
 C      1   2   3     1.460045718436   126.94716080   177.00833814
 C      3   2   1     1.460032720578   126.88669559   177.09707707
 C      7   1   2     1.527216603669   109.05460324   277.23818665
 H      7   1   2     1.094549607902   106.05640422   159.58501681
 C      7   1   2     1.523494948293   110.92743387    40.91918599
 C      8   3   2     1.523610801010   110.88267767    42.02952839
 C      8   3   2     1.527131339861   109.09085364   278.33413913
 H      8   3   2     1.094499017118   106.05331887   160.66280085
 H      5   3   2     1.070719490445   122.64652227   179.88498753
 H      6   1   2     1.070718855546   122.64174817   179.89447278
 H      9   7   1     1.087408367504   110.80576900    63.89682675
 H      9   7   1     1.087308368843   111.02553121   302.80784253
 H      9   7   1     1.085618281985   109.45071466   183.33683971
 H     11   7   1     1.085944139361   109.07060216   169.25487637
 H     11   7   1     1.087406072490   111.06659863    50.29287005
 H     11   7   1     1.086682762796   111.55494607   288.08627223
 H     12   8   3     1.085930476117   109.08284907   169.33243355
 H     12   8   3     1.087398630165   111.05463283    50.36197228
 H     12   8   3     1.086659843900   111.55611317   288.18840876
 H     13   8   3     1.087311346588   111.01781111   302.79997020
 H     13   8   3     1.085619355540   109.44684544   183.34012694
 H     13   8   3     1.087385822005   110.82249211    63.89809770

---------------------------
INTERNAL COORDINATES (A.U.)
---------------------------
 N      0   0   0     0.000000000000     0.00000000     0.00000000
 C      1   0   0     2.513091095303     0.00000000     0.00000000
 N      2   1   0     2.513234082462   109.58615573     0.00000000
 H      2   1   3     2.023421577165   125.21552963   179.98786973
 C      3   2   1     2.571288754773   107.85029854     0.08283567
 C      1   2   3     2.571418015682   107.84853765     0.09133803
 C      1   2   3     2.759086550849   126.94716080   177.00833814
 C      3   2   1     2.759061988456   126.88669559   177.09707707
 C      7   1   2     2.886021128111   109.05460324   277.23818665
 H      7   1   2     2.068398998926   106.05640422   159.58501681
 C      7   1   2     2.878988218685   110.92743387    40.91918599
 C      8   3   2     2.879207148592   110.88267767    42.02952839
 C      8   3   2     2.885860002865   109.09085364   278.33413913
 H      8   3   2     2.068303396199   106.05331887   160.66280085
 H      5   3   2     2.023366603193   122.64652227   179.88498753
 H      6   1   2     2.023365403407   122.64174817   179.89447278
 H      9   7   1     2.054904010317   110.80576900    63.89682675
 H      9   7   1     2.054715040234   111.02553121   302.80784253
 H      9   7   1     2.051521238930   109.45071466   183.33683971
 H     11   7   1     2.052137020129   109.07060216   169.25487637
 H     11   7   1     2.054899673370   111.06659863    50.29287005
 H     11   7   1     2.053532816138   111.55494607   288.08627223
 H     12   8   3     2.052111200339   109.08284907   169.33243355
 H     12   8   3     2.054885609413   111.05463283    50.36197228
 H     12   8   3     2.053489505701   111.55611317   288.18840876
 H     13   8   3     2.054720667356   111.01781111   302.79997020
 H     13   8   3     2.051523267654   109.44684544   183.34012694
 H     13   8   3     2.054861405498   110.82249211    63.89809770

---------------------
BASIS SET INFORMATION
---------------------
There are 3 groups of distinct atoms

 Group   1 Type N   : 7s4p1d contracted to 3s2p1d pattern {511/31/1}
 Group   2 Type C   : 7s4p1d contracted to 3s2p1d pattern {511/31/1}
 Group   3 Type H   : 4s1p contracted to 2s1p pattern {31/1}

Atom   0N    basis set group =>   1
Atom   1C    basis set group =>   2
Atom   2N    basis set group =>   1
Atom   3H    basis set group =>   3
Atom   4C    basis set group =>   2
Atom   5C    basis set group =>   2
Atom   6C    basis set group =>   2
Atom   7C    basis set group =>   2
Atom   8C    basis set group =>   2
Atom   9H    basis set group =>   3
Atom  10C    basis set group =>   2
Atom  11C    basis set group =>   2
Atom  12C    basis set group =>   2
Atom  13H    basis set group =>   3
Atom  14H    basis set group =>   3
Atom  15H    basis set group =>   3
Atom  16H    basis set group =>   3
Atom  17H    basis set group =>   3
Atom  18H    basis set group =>   3
Atom  19H    basis set group =>   3
Atom  20H    basis set group =>   3
Atom  21H    basis set group =>   3
Atom  22H    basis set group =>   3
Atom  23H    basis set group =>   3
Atom  24H    basis set group =>   3
Atom  25H    basis set group =>   3
Atom  26H    basis set group =>   3
Atom  27H    basis set group =>   3
---------------------------------
AUXILIARY/J BASIS SET INFORMATION
---------------------------------
There are 3 groups of distinct atoms

 Group   1 Type N   : 12s5p4d2f1g contracted to 6s4p3d1f1g pattern {711111/2111/211/2/1}
 Group   2 Type C   : 12s5p4d2f1g contracted to 6s4p3d1f1g pattern {711111/2111/211/2/1}
 Group   3 Type H   : 5s2p1d contracted to 3s1p1d pattern {311/2/1}

Atom   0N    basis set group =>   1
Atom   1C    basis set group =>   2
Atom   2N    basis set group =>   1
Atom   3H    basis set group =>   3
Atom   4C    basis set group =>   2
Atom   5C    basis set group =>   2
Atom   6C    basis set group =>   2
Atom   7C    basis set group =>   2
Atom   8C    basis set group =>   2
Atom   9H    basis set group =>   3
Atom  10C    basis set group =>   2
Atom  11C    basis set group =>   2
Atom  12C    basis set group =>   2
Atom  13H    basis set group =>   3
Atom  14H    basis set group =>   3
Atom  15H    basis set group =>   3
Atom  16H    basis set group =>   3
Atom  17H    basis set group =>   3
Atom  18H    basis set group =>   3
Atom  19H    basis set group =>   3
Atom  20H    basis set group =>   3
Atom  21H    basis set group =>   3
Atom  22H    basis set group =>   3
Atom  23H    basis set group =>   3
Atom  24H    basis set group =>   3
Atom  25H    basis set group =>   3
Atom  26H    basis set group =>   3
Atom  27H    basis set group =>   3
------------------------------------------------------------------------------
                           ORCA GTO INTEGRAL CALCULATION
                           -- RI-GTO INTEGRALS CHOSEN --
------------------------------------------------------------------------------
------------------------------------------------------------------------------
                   ___                                                        
                  /   \      - P O W E R E D   B Y -                         
                 /     \                                                     
                 |  |  |   _    _      __       _____    __    __             
                 |  |  |  | |  | |    /  \     |  _  \  |  |  /  |          
                  \  \/   | |  | |   /    \    | | | |  |  | /  /          
                 / \  \   | |__| |  /  /\  \   | |_| |  |  |/  /          
                |  |  |   |  __  | /  /__\  \  |    /   |      \           
                |  |  |   | |  | | |   __   |  |    \   |  |\   \          
                \     /   | |  | | |  |  |  |  | |\  \  |  | \   \       
                 \___/    |_|  |_| |__|  |__|  |_| \__\ |__|  \__/        
                                                                              
                      - O R C A' S   B I G   F R I E N D -                    
                                      &                                       
                       - I N T E G R A L  F E E D E R -                       
                                                                              
 v1 FN, 2020, v2 2021                                                         
------------------------------------------------------------------------------


Reading SHARK input file 4_prot_aq_7.SHARKINP.tmp ... ok
----------------------
SHARK INTEGRAL PACKAGE
----------------------

Number of atoms                             ...     28
Number of basis functions                   ...    239
Number of shells                            ...    117
Maximum angular momentum                    ...      2
Integral batch strategy                     ... SHARK/LIBINT Hybrid
RI-J (if used) integral strategy            ... SPLIT-RIJ (Revised 2003 algorithm where possible)
Printlevel                                  ...      1
Contraction scheme used                     ... SEGMENTED contraction
Coulomb Range Separation                    ... NOT USED
Exchange Range Separation                   ... Long Range
   Mu parameter                             ...  0.300000
   Scaling (regular/separated)              ...  0.157706  0.842294
Finite Nucleus Model                        ... NOT USED
Auxiliary Coulomb fitting basis             ... AVAILABLE
   # of basis functions in Aux-J            ...    726
   # of shells in Aux-J                     ...    250
   Maximum angular momentum in Aux-J        ...      4
Auxiliary J/K fitting basis                 ... NOT available
Auxiliary Correlation fitting basis         ... NOT available
Auxiliary 'external' fitting basis          ... NOT available
Integral threshold                          ...     2.500000e-11
Primitive cut-off                           ...     2.500000e-12
Primitive pair pre-selection threshold      ...     2.500000e-12

Calculating pre-screening integrals         ... done (  0.0 sec) Dimension = 117
Organizing shell pair data                  ... done (  0.0 sec)
Shell pair information
Total number of shell pairs                 ...      6903
Shell pairs after pre-screening             ...      6081
Total number of primitive shell pairs       ...     23847
Primitive shell pairs kept                  ...     14938
          la=0 lb=0:   2069 shell pairs
          la=1 lb=0:   2301 shell pairs
          la=1 lb=1:    658 shell pairs
          la=2 lb=0:    639 shell pairs
          la=2 lb=1:    357 shell pairs
          la=2 lb=2:     57 shell pairs

Calculating one electron integrals          ... done (  0.0 sec)
Calculating RI/J V-Matrix + Cholesky decomp.... done (  0.0 sec)
Calculating Nuclear repulsion               ... done (  0.0 sec) ENN=    655.622544838442 Eh

SHARK setup successfully completed in   0.3 seconds

Maximum memory used throughout the entire GTOINT-calculation: 36.8 MB
-------------------------------------------------------------------------------
                                 ORCA SCF
-------------------------------------------------------------------------------

------------
SCF SETTINGS
------------
Hamiltonian:
 Density Functional     Method          .... DFT(GTOs)
 Exchange Functional    Exchange        .... WB97X
 Correlation Functional Correlation     .... WB97X
 Gradients option       PostSCFGGA      .... off
 Hybrid DFT is turned on
   Fraction HF Exchange ScalHFX         ....  0.157706
   Scaling of DF-GGA-X  ScalDFX         ....  0.000000
   Scaling of DF-GGA-C  ScalDFC         ....  1.000000
   Scaling of DF-LDA-C  ScalLDAC        ....  1.000000
   Perturbative correction              ....  0.000000
   Density functional embedding theory  .... OFF
 Long-range corrected/Screened/Range-Separated Hybrid DFT is turned on
   Amount of maximum screened exact exchange              ....  0.842294
   Range separation parameter mu (erf(mu*r12)/r12)        ....  0.300000
 RI-approximation to the Coulomb term is turned on
   Number of AuxJ basis functions       .... 726
   RIJ-COSX (HFX calculated with COS-X)).... on


General Settings:
 Integral files         IntName         .... 4_prot_aq_7
 Hartree-Fock type      HFTyp           .... RHF
 Total Charge           Charge          ....    1
 Multiplicity           Mult            ....    1
 Number of Electrons    NEL             ....   84
 Basis Dimension        Dim             ....  239
 Nuclear Repulsion      ENuc            ....    655.6225448384 Eh

Convergence Acceleration:
 DIIS                   CNVDIIS         .... on
   Start iteration      DIISMaxIt       ....     0
   Startup error        DIISStart       ....  0.200000
   # of expansion vecs  DIISMaxEq       ....     5
   Bias factor          DIISBfac        ....   1.050
   Max. coefficient     DIISMaxC        ....  10.000
 Trust-Rad. Augm. Hess. CNVTRAH         .... auto
   Auto Start mean grad. ratio tolernc. ....  1.125000
   Auto Start start iteration           ....    20
   Auto Start num. interpolation iter.  ....    10
   Max. Number of Micro iterations      ....    16
   Max. Number of Macro iterations      .... Maxiter - #DIIS iter
   Number of Davidson start vectors     ....     2
   Converg. threshold I  (grad. norm)   ....   1.000e-05
   Converg. threshold II (energy diff.) ....   1.000e-08
   Grad. Scal. Fac. for Micro threshold ....   0.100
   Minimum threshold for Micro iter.    ....   0.010
   NR start threshold (gradient norm)   ....   0.001
   Initial trust radius                 ....   0.400
   Minimum AH scaling param. (alpha)    ....   1.000
   Maximum AH scaling param. (alpha)    .... 1000.000
   Orbital update algorithm             .... Taylor
   White noise on init. David. guess    .... on
   Maximum white noise                  ....   0.010
   Quad. conv. algorithm                .... NR
 SOSCF                  CNVSOSCF        .... on
   Start iteration      SOSCFMaxIt      ....   150
   Startup grad/error   SOSCFStart      ....  0.001000
 Level Shifting         CNVShift        .... on
   Level shift para.    LevelShift      ....    0.2500
   Turn off err/grad.   ShiftErr        ....    0.0000
 Zerner damping         CNVZerner       .... off
 Static damping         CNVDamp         .... on
   Fraction old density DampFac         ....    0.8500
   Max. Damping (<1)    DampMax         ....    0.9800
   Min. Damping (>=0)   DampMin         ....    0.0000
   Turn off err/grad.   DampErr         ....    0.0300
 Fernandez-Rico         CNVRico         .... off

SCF Procedure:
 Maximum # iterations   MaxIter         ....   125
 SCF integral mode      SCFMode         .... Direct
   Integral package                     .... SHARK and LIBINT hybrid scheme
 Reset frequency        DirectResetFreq ....    20
 Integral Threshold     Thresh          ....  2.500e-11 Eh
 Primitive CutOff       TCut            ....  2.500e-12 Eh

Convergence Tolerance:
 Convergence Check Mode ConvCheckMode   .... Total+1el-Energy
 Convergence forced     ConvForced      .... 0
 Energy Change          TolE            ....  1.000e-08 Eh
 1-El. energy change                    ....  1.000e-05 Eh
 Orbital Gradient       TolG            ....  1.000e-05
 Orbital Rotation angle TolX            ....  1.000e-05
 DIIS Error             TolErr          ....  5.000e-07


Diagonalization of the overlap matrix:
Smallest eigenvalue                        ... 1.411e-03
Time for diagonalization                   ...    0.009 sec
Threshold for overlap eigenvalues          ... 1.000e-08
Number of eigenvalues below threshold      ... 0
Time for construction of square roots      ...    0.005 sec
Total time needed                          ...    0.015 sec

Time for model grid setup =    0.481 sec

------------------------------
INITIAL GUESS: MODEL POTENTIAL
------------------------------
Loading Hartree-Fock densities                     ... done
Calculating cut-offs                               ... done
Initializing the effective Hamiltonian             ... done
Setting up the integral package (SHARK)            ... done
Starting the Coulomb interaction                   ... done (   0.5 sec)
Reading the grid                                   ... done
Mapping shells                                     ... done
Starting the XC term evaluation                    ... done (   0.6 sec)
  promolecular density results
     # of electrons  =     84.995595594
     EX              =    -64.261156637
     EC              =     -2.821342584
     EX+EC           =    -67.082499222
Transforming the Hamiltonian                       ... done (   0.0 sec)
Diagonalizing the Hamiltonian                      ... done (   0.0 sec)
Back transforming the eigenvectors                 ... done (   0.0 sec)
Now organizing SCF variables                       ... done
                      ------------------
                      INITIAL GUESS DONE (   1.5 sec)
                      ------------------
-------------------
DFT GRID GENERATION
-------------------

General Integration Accuracy     IntAcc      ... 4.388
Radial Grid Type                 RadialGrid  ... OptM3 with GC (2021)
Angular Grid (max. ang.)         AngularGrid ... 4 (Lebedev-302)
Angular grid pruning method      GridPruning ... 4 (adaptive)
Weight generation scheme         WeightScheme... Becke
Basis function cutoff            BFCut       ... 1.0000e-11
Integration weight cutoff        WCut        ... 1.0000e-14
Angular grids for H and He will be reduced by one unit
Partially contracted basis set               ... off
Rotationally invariant grid construction     ... off

Total number of grid points                  ...   119975
Total number of batches                      ...     1887
Average number of points per batch           ...       63
Average number of grid points per atom       ...     4285
Time for grid setup =    1.786 sec

--------------------
COSX GRID GENERATION
--------------------

GRIDX 1
-------
General Integration Accuracy     IntAcc      ... 3.816
Radial Grid Type                 RadialGrid  ... OptM3 with GC (2021)
Angular Grid (max. ang.)         AngularGrid ... 1 (Lebedev-50)
Angular grid pruning method      GridPruning ... 4 (adaptive)
Weight generation scheme         WeightScheme... Becke
Basis function cutoff            BFCut       ... 1.0000e-11
Integration weight cutoff        WCut        ... 1.0000e-14
Angular grids for H and He will be reduced by one unit
Partially contracted basis set               ... on
Rotationally invariant grid construction     ... off

Total number of grid points                  ...    15358
Total number of batches                      ...      254
Average number of points per batch           ...       60
Average number of grid points per atom       ...      548
UseSFitting                                  ... on

GRIDX 2
-------
General Integration Accuracy     IntAcc      ... 4.020
Radial Grid Type                 RadialGrid  ... OptM3 with GC (2021)
Angular Grid (max. ang.)         AngularGrid ... 2 (Lebedev-110)
Angular grid pruning method      GridPruning ... 4 (adaptive)
Weight generation scheme         WeightScheme... Becke
Basis function cutoff            BFCut       ... 1.0000e-11
Integration weight cutoff        WCut        ... 1.0000e-14
Angular grids for H and He will be reduced by one unit
Partially contracted basis set               ... on
Rotationally invariant grid construction     ... off

Total number of grid points                  ...    32052
Total number of batches                      ...      518
Average number of points per batch           ...       61
Average number of grid points per atom       ...     1145
UseSFitting                                  ... on

GRIDX 3
-------
General Integration Accuracy     IntAcc      ... 4.338
Radial Grid Type                 RadialGrid  ... OptM3 with GC (2021)
Angular Grid (max. ang.)         AngularGrid ... 3 (Lebedev-194)
Angular grid pruning method      GridPruning ... 4 (adaptive)
Weight generation scheme         WeightScheme... Becke
Basis function cutoff            BFCut       ... 1.0000e-11
Integration weight cutoff        WCut        ... 1.0000e-14
Angular grids for H and He will be reduced by one unit
Partially contracted basis set               ... on
Rotationally invariant grid construction     ... off

Total number of grid points                  ...    69833
Total number of batches                      ...     1105
Average number of points per batch           ...       63
Average number of grid points per atom       ...     2494
UseSFitting                                  ... on

Time for X-Grid setup             =    2.322 sec


--------------------
CPCM SOLVATION MODEL
--------------------
CPCM parameters:
  Epsilon                                         ...      80.4000
  Refrac                                          ...       1.3300
  Rsolv                                           ...       1.3000
  Surface type                                    ... GAUSSIAN VDW
  Epsilon function type                           ...         CPCM
Radii:
 Radius for N  used is    3.5149 Bohr (=   1.8600 Ang.)
 Radius for C  used is    3.8550 Bohr (=   2.0400 Ang.)
 Radius for H  used is    2.4944 Bohr (=   1.3200 Ang.)
Calculating surface                               ...        done! (  0.0s)
GEPOL surface points                              ...         1520
GEPOL Volume                                      ...    1429.0799
GEPOL Surface-area                                ...     799.4037
Calculating surface distance matrix               ...        done! (  0.0s)
Performing Cholesky decomposition & store         ...        done! (  0.1s)
Overall time for CPCM initialization              ...                 0.1s
--------------
SCF ITERATIONS
--------------
ITER       Energy         Delta-E        Max-DP      RMS-DP      [F,P]     Damp
               ***  Starting incremental Fock matrix formation  ***
  0   -461.9129773345   0.000000000000 0.03359394  0.00064611  0.1526212 0.8500
  1   -461.9574542115  -0.044476876943 0.03022843  0.00060529  0.1228578 0.8500
                               ***Turning on DIIS***
  2   -461.9912650194  -0.033810807879 0.02366192  0.00049321  0.0942311 0.8500
  3   -462.0163657950  -0.025100775619 0.01480029  0.00035100  0.0713583 0.8500
  4   -462.0356949139  -0.019329118949 0.00997518  0.00026872  0.0567973 0.8500
  5   -462.0508912709  -0.015196357007 0.00759409  0.00022017  0.0469699 0.8500
  6   -462.0632202366  -0.012328965647 0.00615569  0.00018551  0.0395144 0.8500
  7   -462.0734063386  -0.010186102073 0.00524621  0.00015940  0.0334716 0.8500
  8   -462.0819142966  -0.008507957996 0.02982389  0.00091307  0.0283091 0.0000
  9   -462.1275330369  -0.045618740255 0.00139269  0.00003159  0.0012138 0.0000
                      *** Initiating the SOSCF procedure ***
                           *** Shutting down DIIS ***
                      *** Re-Reading the Fockian *** 
                      *** Removing any level shift *** 
ITER      Energy       Delta-E        Grad      Rot      Max-DP    RMS-DP
 10   -462.12754957  -0.0000165311  0.000143  0.000143  0.000527  0.000013
               *** Restarting incremental Fock matrix formation ***
 11   -462.12760227  -0.0000527002  0.000051  0.000095  0.000346  0.000009
 12   -462.12760256  -0.0000002920  0.000044  0.000117  0.000176  0.000004
 13   -462.12760260  -0.0000000363  0.000021  0.000021  0.000044  0.000001
 14   -462.12760261  -0.0000000165  0.000003  0.000006  0.000008  0.000000
                  ***Gradient check signals convergence***
              ***Rediagonalizing the Fockian in SOSCF/NRSCF***

               *****************************************************
               *                     SUCCESS                       *
               *           SCF CONVERGED AFTER  15 CYCLES          *
               *****************************************************

Old exchange energy                            =    -21.420310497 Eh
New exchange energy                            =    -21.420240294 Eh
Exchange energy change after final integration =      0.000070203 Eh
Total energy after final integration           =   -462.127532408 Eh
Final COS-X integration done in                =    60.780 sec

----------------
TOTAL SCF ENERGY
----------------

Total Energy       :         -462.12753241 Eh          -12575.12946 eV

Components:
Nuclear Repulsion  :          655.62254484 Eh           17840.39643 eV
Electronic Energy  :        -1117.75007725 Eh          -30415.52590 eV
One Electron Energy:        -1907.55983401 Eh          -51907.34200 eV
Two Electron Energy:          789.80975676 Eh           21491.81610 eV
Max COSX asymmetry :            0.00000174 Eh               0.00005 eV
CPCM Dielectric    :           -0.07822103 Eh              -2.12850 eV

Virial components:
Potential Energy   :         -918.96741865 Eh          -25006.37476 eV
Kinetic Energy     :          456.83988624 Eh           12431.24530 eV
Virial Ratio       :            2.01157440


DFT components:
N(Alpha)           :       41.999889688479 electrons
N(Beta)            :       41.999889688479 electrons
N(Total)           :       83.999779376959 electrons
E(XC)              :      -47.265913593579 Eh       
DFET-embed. en.    :        0.000000000000 Eh       
CPCM Solvation Model Properties:
Surface-charge          :           -1.02080391
Charge-correction       :            0.00284551 Eh               0.07743 eV
Free-energy (cav+disp)  :  This term is not implemented in the current solvation scheme

---------------
SCF CONVERGENCE
---------------

  Last Energy change         ...    1.3106e-09  Tolerance :   1.0000e-08
  Last MAX-Density change    ...    4.4409e-15  Tolerance :   1.0000e-07
  Last RMS-Density change    ...    4.0589e-17  Tolerance :   5.0000e-09
  Last Orbital Gradient      ...    1.4438e-06  Tolerance :   1.0000e-05
  Last Orbital Rotation      ...    3.3352e-06  Tolerance :   1.0000e-05

             **** THE GBW FILE WAS UPDATED (4_prot_aq_7.gbw) ****
             **** DENSITY 4_prot_aq_7.scfp WAS UPDATED ****
             **** ENERGY FILE WAS UPDATED (4_prot_aq_7.en.tmp) ****
             **** THE GBW FILE WAS UPDATED (4_prot_aq_7.gbw) ****
             **** DENSITY 4_prot_aq_7.scfp WAS UPDATED ****
----------------
ORBITAL ENERGIES
----------------

  NO   OCC          E(Eh)            E(eV) 
   0   2.0000     -14.511168      -394.8690 
   1   2.0000     -14.511099      -394.8671 
   2   2.0000     -10.380794      -282.4758 
   3   2.0000     -10.335715      -281.2491 
   4   2.0000     -10.335647      -281.2473 
   5   2.0000     -10.330543      -281.1084 
   6   2.0000     -10.329973      -281.0929 
   7   2.0000     -10.271974      -279.5146 
   8   2.0000     -10.271861      -279.5116 
   9   2.0000     -10.270045      -279.4621 
  10   2.0000     -10.269989      -279.4606 
  11   2.0000      -1.222876       -33.2761 
  12   2.0000      -1.104496       -30.0549 
  13   2.0000      -0.970707       -26.4143 
  14   2.0000      -0.917988       -24.9797 
  15   2.0000      -0.917392       -24.9635 
  16   2.0000      -0.826443       -22.4887 
  17   2.0000      -0.825203       -22.4549 
  18   2.0000      -0.812515       -22.1097 
  19   2.0000      -0.779893       -21.2220 
  20   2.0000      -0.737705       -20.0740 
  21   2.0000      -0.729936       -19.8626 
  22   2.0000      -0.654286       -17.8040 
  23   2.0000      -0.636720       -17.3260 
  24   2.0000      -0.609201       -16.5772 
  25   2.0000      -0.605427       -16.4745 
  26   2.0000      -0.589658       -16.0454 
  27   2.0000      -0.581715       -15.8293 
  28   2.0000      -0.565436       -15.3863 
  29   2.0000      -0.563369       -15.3300 
  30   2.0000      -0.551403       -15.0044 
  31   2.0000      -0.520025       -14.1506 
  32   2.0000      -0.504279       -13.7221 
  33   2.0000      -0.500372       -13.6158 
  34   2.0000      -0.498484       -13.5644 
  35   2.0000      -0.495382       -13.4800 
  36   2.0000      -0.476326       -12.9615 
  37   2.0000      -0.462972       -12.5981 
  38   2.0000      -0.461781       -12.5657 
  39   2.0000      -0.461003       -12.5445 
  40   2.0000      -0.414439       -11.2775 
  41   2.0000      -0.372931       -10.1480 
  42   0.0000       0.058476         1.5912 
  43   0.0000       0.097113         2.6426 
  44   0.0000       0.138357         3.7649 
  45   0.0000       0.151554         4.1240 
  46   0.0000       0.160017         4.3543 
  47   0.0000       0.176028         4.7900 
  48   0.0000       0.187049         5.0899 
  49   0.0000       0.192432         5.2363 
  50   0.0000       0.203887         5.5480 
  51   0.0000       0.208587         5.6759 
  52   0.0000       0.211555         5.7567 
  53   0.0000       0.226668         6.1679 
  54   0.0000       0.228539         6.2189 
  55   0.0000       0.243005         6.6125 
  56   0.0000       0.243906         6.6370 
  57   0.0000       0.246774         6.7151 
  58   0.0000       0.256524         6.9804 
  59   0.0000       0.260451         7.0872 
  60   0.0000       0.263621         7.1735 
  61   0.0000       0.271092         7.3768 
  62   0.0000       0.273740         7.4488 
  63   0.0000       0.282174         7.6783 
  64   0.0000       0.300953         8.1893 
  65   0.0000       0.303225         8.2512 
  66   0.0000       0.313629         8.5343 
  67   0.0000       0.333604         9.0778 
  68   0.0000       0.352341         9.5877 
  69   0.0000       0.362966         9.8768 
  70   0.0000       0.395495        10.7620 
  71   0.0000       0.443425        12.0662 
  72   0.0000       0.460804        12.5391 
  73   0.0000       0.480533        13.0760 
  74   0.0000       0.484433        13.1821 
  75   0.0000       0.493944        13.4409 
  76   0.0000       0.501374        13.6431 
  77   0.0000       0.513107        13.9623 
  78   0.0000       0.518514        14.1095 
  79   0.0000       0.544139        14.8068 
  80   0.0000       0.557570        15.1723 
  81   0.0000       0.571839        15.5605 
  82   0.0000       0.576167        15.6783 
  83   0.0000       0.610957        16.6250 
  84   0.0000       0.611205        16.6317 
  85   0.0000       0.645649        17.5690 
  86   0.0000       0.665587        18.1115 
  87   0.0000       0.674729        18.3603 
  88   0.0000       0.680573        18.5193 
  89   0.0000       0.695950        18.9377 
  90   0.0000       0.698865        19.0171 
  91   0.0000       0.717517        19.5246 
  92   0.0000       0.730934        19.8897 
  93   0.0000       0.738943        20.1077 
  94   0.0000       0.741800        20.1854 
  95   0.0000       0.751445        20.4478 
  96   0.0000       0.754132        20.5210 
  97   0.0000       0.757202        20.6045 
  98   0.0000       0.762815        20.7572 
  99   0.0000       0.771364        20.9899 
 100   0.0000       0.775550        21.1038 
 101   0.0000       0.782815        21.3015 
 102   0.0000       0.787340        21.4246 
 103   0.0000       0.791374        21.5344 
 104   0.0000       0.792200        21.5569 
 105   0.0000       0.799953        21.7678 
 106   0.0000       0.805692        21.9240 
 107   0.0000       0.807546        21.9744 
 108   0.0000       0.811509        22.0823 
 109   0.0000       0.825648        22.4670 
 110   0.0000       0.829970        22.5846 
 111   0.0000       0.831387        22.6232 
 112   0.0000       0.836885        22.7728 
 113   0.0000       0.846691        23.0396 
 114   0.0000       0.857107        23.3231 
 115   0.0000       0.859741        23.3948 
 116   0.0000       0.874928        23.8080 
 117   0.0000       0.959321        26.1044 
 118   0.0000       0.969899        26.3923 
 119   0.0000       1.014433        27.6041 
 120   0.0000       1.043331        28.3905 
 121   0.0000       1.056301        28.7434 
 122   0.0000       1.059228        28.8230 
 123   0.0000       1.135404        30.8959 
 124   0.0000       1.154934        31.4274 
 125   0.0000       1.165575        31.7169 
 126   0.0000       1.184159        32.2226 
 127   0.0000       1.201823        32.7033 
 128   0.0000       1.231189        33.5023 
 129   0.0000       1.250946        34.0400 
 130   0.0000       1.270697        34.5774 
 131   0.0000       1.284747        34.9598 
 132   0.0000       1.299719        35.3671 
 133   0.0000       1.321249        35.9530 
 134   0.0000       1.344889        36.5963 
 135   0.0000       1.381152        37.5831 
 136   0.0000       1.403533        38.1921 
 137   0.0000       1.421460        38.6799 
 138   0.0000       1.438870        39.1536 
 139   0.0000       1.451935        39.5091 
 140   0.0000       1.477360        40.2010 
 141   0.0000       1.536100        41.7994 
 142   0.0000       1.541439        41.9447 
 143   0.0000       1.626143        44.2496 
 144   0.0000       1.639002        44.5995 
 145   0.0000       1.649376        44.8818 
 146   0.0000       1.653793        45.0020 
 147   0.0000       1.656861        45.0855 
 148   0.0000       1.658112        45.1195 
 149   0.0000       1.697994        46.2048 
 150   0.0000       1.731196        47.1082 
 151   0.0000       1.789254        48.6881 
 152   0.0000       1.795260        48.8515 
 153   0.0000       1.810081        49.2548 
 154   0.0000       1.811208        49.2855 
 155   0.0000       1.824251        49.6404 
 156   0.0000       1.825528        49.6751 
 157   0.0000       1.861676        50.6588 
 158   0.0000       1.869572        50.8736 
 159   0.0000       1.872693        50.9586 
 160   0.0000       1.886403        51.3316 
 161   0.0000       1.899838        51.6972 
 162   0.0000       1.901052        51.7303 
 163   0.0000       1.912660        52.0461 
 164   0.0000       1.916252        52.1439 
 165   0.0000       1.924099        52.3574 
 166   0.0000       1.935413        52.6653 
 167   0.0000       1.945622        52.9431 
 168   0.0000       1.955603        53.2147 
 169   0.0000       1.967767        53.5456 
 170   0.0000       1.970166        53.6109 
 171   0.0000       1.979065        53.8531 
 172   0.0000       1.982176        53.9377 
 173   0.0000       1.984334        53.9965 
 174   0.0000       1.992885        54.2292 
 175   0.0000       2.010357        54.7046 
 176   0.0000       2.014534        54.8183 
 177   0.0000       2.029746        55.2322 
 178   0.0000       2.045272        55.6547 
 179   0.0000       2.049624        55.7731 
 180   0.0000       2.078268        56.5525 
 181   0.0000       2.085600        56.7521 
 182   0.0000       2.095607        57.0244 
 183   0.0000       2.136985        58.1503 
 184   0.0000       2.152534        58.5734 
 185   0.0000       2.178161        59.2708 
 186   0.0000       2.178969        59.2928 
 187   0.0000       2.227963        60.6260 
 188   0.0000       2.256778        61.4101 
 189   0.0000       2.263355        61.5890 
 190   0.0000       2.291667        62.3594 
 191   0.0000       2.356509        64.1239 
 192   0.0000       2.369639        64.4811 
 193   0.0000       2.376578        64.6700 
 194   0.0000       2.389975        65.0345 
 195   0.0000       2.416168        65.7473 
 196   0.0000       2.463424        67.0332 
 197   0.0000       2.475349        67.3577 
 198   0.0000       2.493124        67.8414 
 199   0.0000       2.495836        67.9152 
 200   0.0000       2.516420        68.4753 
 201   0.0000       2.523943        68.6800 
 202   0.0000       2.549360        69.3716 
 203   0.0000       2.567186        69.8567 
 204   0.0000       2.598140        70.6990 
 205   0.0000       2.603197        70.8366 
 206   0.0000       2.610307        71.0301 
 207   0.0000       2.622671        71.3665 
 208   0.0000       2.663802        72.4857 
 209   0.0000       2.679795        72.9209 
 210   0.0000       2.681868        72.9773 
 211   0.0000       2.698407        73.4274 
 212   0.0000       2.789599        75.9088 
 213   0.0000       2.800777        76.2130 
 214   0.0000       2.817632        76.6717 
 215   0.0000       2.829644        76.9985 
 216   0.0000       2.858335        77.7793 
 217   0.0000       2.878608        78.3309 
 218   0.0000       2.919418        79.4414 
 219   0.0000       2.944569        80.1258 
 220   0.0000       2.945245        80.1442 
 221   0.0000       2.962615        80.6169 
 222   0.0000       2.981807        81.1391 
 223   0.0000       2.988437        81.3195 
 224   0.0000       3.011294        81.9415 
 225   0.0000       3.029212        82.4291 
 226   0.0000       3.036144        82.6177 
 227   0.0000       3.039208        82.7011 
 228   0.0000       3.062040        83.3223 
 229   0.0000       3.086726        83.9941 
 230   0.0000       3.113715        84.7285 
 231   0.0000       3.143976        85.5519 
 232   0.0000       3.152201        85.7758 
 233   0.0000       3.152681        85.7888 
 234   0.0000       3.175808        86.4181 
 235   0.0000       3.295367        89.6715 
 236   0.0000       3.484336        94.8136 
 237   0.0000       3.605120        98.1003 
 238   0.0000       3.628067        98.7247 

                    ********************************
                    * MULLIKEN POPULATION ANALYSIS *
                    ********************************

-----------------------
MULLIKEN ATOMIC CHARGES
-----------------------
   0 N :   -0.172115
   1 C :    0.220102
   2 N :   -0.172003
   3 H :    0.116816
   4 C :    0.069143
   5 C :    0.068842
   6 C :   -0.055957
   7 C :   -0.056391
   8 C :    0.018327
   9 H :    0.077853
  10 C :   -0.019460
  11 C :   -0.018359
  12 C :    0.018525
  13 H :    0.077800
  14 H :    0.091851
  15 H :    0.091740
  16 H :    0.044739
  17 H :    0.049133
  18 H :    0.056486
  19 H :    0.062493
  20 H :    0.057549
  21 H :    0.051767
  22 H :    0.062247
  23 H :    0.057333
  24 H :    0.051393
  25 H :    0.049150
  26 H :    0.056336
  27 H :    0.044661
Sum of atomic charges:    1.0000000

--------------------------------
MULLIKEN REDUCED ORBITAL CHARGES
--------------------------------
  0 N s       :     3.382347  s :     3.382347
      pz      :     1.142246  p :     3.755841
      px      :     1.161260
      py      :     1.452335
      dz2     :     0.006372  d :     0.033927
      dxz     :     0.010641
      dyz     :     0.006893
      dx2y2   :     0.004418
      dxy     :     0.005602
  1 C s       :     3.095813  s :     3.095813
      pz      :     0.906667  p :     2.616952
      px      :     0.772096
      py      :     0.938189
      dz2     :     0.012813  d :     0.067134
      dxz     :     0.022092
      dyz     :     0.006574
      dx2y2   :     0.009397
      dxy     :     0.016258
  2 N s       :     3.382137  s :     3.382137
      pz      :     1.143171  p :     3.755944
      px      :     1.161427
      py      :     1.451346
      dz2     :     0.006460  d :     0.033922
      dxz     :     0.010581
      dyz     :     0.006791
      dx2y2   :     0.004433
      dxy     :     0.005657
  3 H s       :     0.857844  s :     0.857844
      pz      :     0.019330  p :     0.025341
      px      :     0.001473
      py      :     0.004538
  4 C s       :     3.143908  s :     3.143908
      pz      :     0.796292  p :     2.738470
      px      :     0.908194
      py      :     1.033984
      dz2     :     0.014985  d :     0.048478
      dxz     :     0.012918
      dyz     :     0.008172
      dx2y2   :     0.004957
      dxy     :     0.007446
  5 C s       :     3.144186  s :     3.144186
      pz      :     0.798140  p :     2.738519
      px      :     0.907936
      py      :     1.032443
      dz2     :     0.014909  d :     0.048453
      dxz     :     0.012957
      dyz     :     0.008144
      dx2y2   :     0.005048
      dxy     :     0.007394
  6 C s       :     3.112201  s :     3.112201
      pz      :     1.058929  p :     2.887510
      px      :     0.771734
      py      :     1.056847
      dz2     :     0.009281  d :     0.056246
      dxz     :     0.010670
      dyz     :     0.010315
      dx2y2   :     0.016303
      dxy     :     0.009677
  7 C s       :     3.113084  s :     3.113084
      pz      :     1.056020  p :     2.887059
      px      :     0.772071
      py      :     1.058967
      dz2     :     0.009356  d :     0.056248
      dxz     :     0.010705
      dyz     :     0.010455
      dx2y2   :     0.016079
      dxy     :     0.009652
  8 C s       :     2.987984  s :     2.987984
      pz      :     1.023882  p :     2.967258
      px      :     1.012902
      py      :     0.930474
      dz2     :     0.004144  d :     0.026431
      dxz     :     0.003965
      dyz     :     0.008067
      dx2y2   :     0.007136
      dxy     :     0.003120
  9 H s       :     0.900853  s :     0.900853
      pz      :     0.010308  p :     0.021294
      px      :     0.006007
      py      :     0.004979
 10 C s       :     3.001313  s :     3.001313
      pz      :     0.971046  p :     2.991901
      px      :     1.046121
      py      :     0.974734
      dz2     :     0.006803  d :     0.026246
      dxz     :     0.003371
      dyz     :     0.006631
      dx2y2   :     0.005919
      dxy     :     0.003522
 11 C s       :     3.001082  s :     3.001082
      pz      :     0.961355  p :     2.991026
      px      :     1.045659
      py      :     0.984012
      dz2     :     0.006960  d :     0.026251
      dxz     :     0.003366
      dyz     :     0.006573
      dx2y2   :     0.005824
      dxy     :     0.003529
 12 C s       :     2.987988  s :     2.987988
      pz      :     1.026618  p :     2.967049
      px      :     1.013331
      py      :     0.927100
      dz2     :     0.004494  d :     0.026438
      dxz     :     0.003737
      dyz     :     0.007734
      dx2y2   :     0.007120
      dxy     :     0.003352
 13 H s       :     0.900900  s :     0.900900
      pz      :     0.009668  p :     0.021301
      px      :     0.006062
      py      :     0.005571
 14 H s       :     0.883014  s :     0.883014
      pz      :     0.011491  p :     0.025135
      px      :     0.008682
      py      :     0.004962
 15 H s       :     0.883120  s :     0.883120
      pz      :     0.011609  p :     0.025140
      px      :     0.008686
      py      :     0.004845
 16 H s       :     0.930867  s :     0.930867
      pz      :     0.011369  p :     0.024395
      px      :     0.007558
      py      :     0.005467
 17 H s       :     0.926538  s :     0.926538
      pz      :     0.011361  p :     0.024329
      px      :     0.004893
      py      :     0.008074
 18 H s       :     0.918761  s :     0.918761
      pz      :     0.005687  p :     0.024752
      px      :     0.015029
      py      :     0.004037
 19 H s       :     0.912769  s :     0.912769
      pz      :     0.004694  p :     0.024738
      px      :     0.015100
      py      :     0.004943
 20 H s       :     0.918113  s :     0.918113
      pz      :     0.004499  p :     0.024338
      px      :     0.006867
      py      :     0.012972
 21 H s       :     0.923620  s :     0.923620
      pz      :     0.012173  p :     0.024614
      px      :     0.006627
      py      :     0.005814
 22 H s       :     0.913011  s :     0.913011
      pz      :     0.004667  p :     0.024742
      px      :     0.015107
      py      :     0.004969
 23 H s       :     0.918339  s :     0.918339
      pz      :     0.004168  p :     0.024327
      px      :     0.006822
      py      :     0.013337
 24 H s       :     0.923988  s :     0.923988
      pz      :     0.011432  p :     0.024619
      px      :     0.006666
      py      :     0.006521
 25 H s       :     0.926525  s :     0.926525
      pz      :     0.012281  p :     0.024325
      px      :     0.004896
      py      :     0.007148
 26 H s       :     0.918907  s :     0.918907
      pz      :     0.005730  p :     0.024757
      px      :     0.015024
      py      :     0.004004
 27 H s       :     0.930936  s :     0.930936
      pz      :     0.010798  p :     0.024403
      px      :     0.007599
      py      :     0.006006


                     *******************************
                     * LOEWDIN POPULATION ANALYSIS *
                     *******************************

----------------------
LOEWDIN ATOMIC CHARGES
----------------------
   0 N :    0.112386
   1 C :    0.123373
   2 N :    0.112313
   3 H :    0.058303
   4 C :    0.020691
   5 C :    0.020476
   6 C :    0.041910
   7 C :    0.041888
   8 C :   -0.047489
   9 H :    0.049271
  10 C :   -0.050765
  11 C :   -0.050645
  12 C :   -0.047444
  13 H :    0.049269
  14 H :    0.056306
  15 H :    0.056245
  16 H :    0.033433
  17 H :    0.034408
  18 H :    0.041587
  19 H :    0.046002
  20 H :    0.036917
  21 H :    0.034755
  22 H :    0.045822
  23 H :    0.036897
  24 H :    0.034663
  25 H :    0.034471
  26 H :    0.041571
  27 H :    0.033385

-------------------------------
LOEWDIN REDUCED ORBITAL CHARGES
-------------------------------
  0 N s       :     3.043549  s :     3.043549
      pz      :     1.200624  p :     3.766113
      px      :     1.192786
      py      :     1.372703
      dz2     :     0.017413  d :     0.077952
      dxz     :     0.027872
      dyz     :     0.013197
      dx2y2   :     0.009896
      dxy     :     0.009575
  1 C s       :     2.827865  s :     2.827865
      pz      :     1.028937  p :     2.891267
      px      :     0.899468
      py      :     0.962861
      dz2     :     0.030346  d :     0.157495
      dxz     :     0.058808
      dyz     :     0.010608
      dx2y2   :     0.024014
      dxy     :     0.033719
  2 N s       :     3.043524  s :     3.043524
      pz      :     1.200914  p :     3.766218
      px      :     1.192816
      py      :     1.372488
      dz2     :     0.017581  d :     0.077944
      dxz     :     0.027752
      dyz     :     0.013007
      dx2y2   :     0.009903
      dxy     :     0.009701
  3 H s       :     0.863949  s :     0.863949
      pz      :     0.054250  p :     0.077748
      px      :     0.008352
      py      :     0.015145
  4 C s       :     2.847730  s :     2.847730
      pz      :     0.932840  p :     3.011637
      px      :     1.050857
      py      :     1.027940
      dz2     :     0.039288  d :     0.119942
      dxz     :     0.035959
      dyz     :     0.016007
      dx2y2   :     0.013889
      dxy     :     0.014799
  5 C s       :     2.847702  s :     2.847702
      pz      :     0.933813  p :     3.011925
      px      :     1.050841
      py      :     1.027271
      dz2     :     0.039025  d :     0.119897
      dxz     :     0.036057
      dyz     :     0.015999
      dx2y2   :     0.014140
      dxy     :     0.014676
  6 C s       :     2.831719  s :     2.831719
      pz      :     1.066940  p :     2.996776
      px      :     0.860073
      py      :     1.069763
      dz2     :     0.020401  d :     0.129595
      dxz     :     0.025748
      dyz     :     0.024472
      dx2y2   :     0.037890
      dxy     :     0.021084
  7 C s       :     2.831753  s :     2.831753
      pz      :     1.065195  p :     2.996764
      px      :     0.860243
      py      :     1.071325
      dz2     :     0.021193  d :     0.129595
      dxz     :     0.025546
      dyz     :     0.024096
      dx2y2   :     0.037466
      dxy     :     0.021294
  8 C s       :     2.830053  s :     2.830053
      pz      :     1.070546  p :     3.146868
      px      :     1.071255
      py      :     1.005067
      dz2     :     0.011153  d :     0.070568
      dxz     :     0.010386
      dyz     :     0.020603
      dx2y2   :     0.019885
      dxy     :     0.008540
  9 H s       :     0.883620  s :     0.883620
      pz      :     0.030965  p :     0.067109
      px      :     0.018352
      py      :     0.017792
 10 C s       :     2.827582  s :     2.827582
      pz      :     1.029868  p :     3.152819
      px      :     1.083224
      py      :     1.039726
      dz2     :     0.017477  d :     0.070364
      dxz     :     0.008523
      dyz     :     0.019039
      dx2y2   :     0.015865
      dxy     :     0.009460
 11 C s       :     2.827652  s :     2.827652
      pz      :     1.023392  p :     3.152614
      px      :     1.083083
      py      :     1.046138
      dz2     :     0.018119  d :     0.070379
      dxz     :     0.008511
      dyz     :     0.018743
      dx2y2   :     0.015538
      dxy     :     0.009469
 12 C s       :     2.830012  s :     2.830012
      pz      :     1.072619  p :     3.146848
      px      :     1.071470
      py      :     1.002758
      dz2     :     0.012260  d :     0.070585
      dxz     :     0.009748
      dyz     :     0.019558
      dx2y2   :     0.019844
      dxy     :     0.009175
 13 H s       :     0.883618  s :     0.883618
      pz      :     0.029400  p :     0.067113
      px      :     0.018476
      py      :     0.019237
 14 H s       :     0.868810  s :     0.868810
      pz      :     0.033249  p :     0.074884
      px      :     0.025223
      py      :     0.016411
 15 H s       :     0.868861  s :     0.868861
      pz      :     0.033561  p :     0.074894
      px      :     0.025225
      py      :     0.016107
 16 H s       :     0.898560  s :     0.898560
      pz      :     0.030584  p :     0.068007
      px      :     0.020270
      py      :     0.017153
 17 H s       :     0.897774  s :     0.897774
      pz      :     0.030290  p :     0.067818
      px      :     0.013326
      py      :     0.024202
 18 H s       :     0.890494  s :     0.890494
      pz      :     0.015036  p :     0.067918
      px      :     0.040272
      py      :     0.012610
 19 H s       :     0.885945  s :     0.885945
      pz      :     0.013815  p :     0.068053
      px      :     0.040438
      py      :     0.013800
 20 H s       :     0.895035  s :     0.895035
      pz      :     0.013464  p :     0.068047
      px      :     0.018340
      py      :     0.036243
 21 H s       :     0.896724  s :     0.896724
      pz      :     0.034136  p :     0.068521
      px      :     0.017748
      py      :     0.016636
 22 H s       :     0.886131  s :     0.886131
      pz      :     0.013944  p :     0.068048
      px      :     0.040446
      py      :     0.013658
 23 H s       :     0.895069  s :     0.895069
      pz      :     0.012835  p :     0.068035
      px      :     0.018212
      py      :     0.036988
 24 H s       :     0.896826  s :     0.896826
      pz      :     0.032356  p :     0.068511
      px      :     0.017849
      py      :     0.018306
 25 H s       :     0.897717  s :     0.897717
      pz      :     0.032682  p :     0.067812
      px      :     0.013329
      py      :     0.021802
 26 H s       :     0.890516  s :     0.890516
      pz      :     0.015076  p :     0.067913
      px      :     0.040246
      py      :     0.012591
 27 H s       :     0.898605  s :     0.898605
      pz      :     0.028932  p :     0.068010
      px      :     0.020358
      py      :     0.018720


                      *****************************
                      * MAYER POPULATION ANALYSIS *
                      *****************************

  NA   - Mulliken gross atomic population
  ZA   - Total nuclear charge
  QA   - Mulliken gross atomic charge
  VA   - Mayer's total valence
  BVA  - Mayer's bonded valence
  FA   - Mayer's free valence

  ATOM       NA         ZA         QA         VA         BVA        FA
  0 N      7.1721     7.0000    -0.1721     3.4365     3.4365    -0.0000
  1 C      5.7799     6.0000     0.2201     3.8616     3.8616     0.0000
  2 N      7.1720     7.0000    -0.1720     3.4358     3.4358    -0.0000
  3 H      0.8832     1.0000     0.1168     1.0061     1.0061     0.0000
  4 C      5.9309     6.0000     0.0691     3.8519     3.8519     0.0000
  5 C      5.9312     6.0000     0.0688     3.8518     3.8518     0.0000
  6 C      6.0560     6.0000    -0.0560     4.0649     4.0649    -0.0000
  7 C      6.0564     6.0000    -0.0564     4.0646     4.0646     0.0000
  8 C      5.9817     6.0000     0.0183     3.9418     3.9418    -0.0000
  9 H      0.9221     1.0000     0.0779     0.9758     0.9758     0.0000
 10 C      6.0195     6.0000    -0.0195     3.9667     3.9667    -0.0000
 11 C      6.0184     6.0000    -0.0184     3.9656     3.9656    -0.0000
 12 C      5.9815     6.0000     0.0185     3.9422     3.9422     0.0000
 13 H      0.9222     1.0000     0.0778     0.9759     0.9759     0.0000
 14 H      0.9081     1.0000     0.0919     0.9978     0.9978     0.0000
 15 H      0.9083     1.0000     0.0917     0.9979     0.9979     0.0000
 16 H      0.9553     1.0000     0.0447     1.0010     1.0010     0.0000
 17 H      0.9509     1.0000     0.0491     0.9954     0.9954    -0.0000
 18 H      0.9435     1.0000     0.0565     0.9961     0.9961    -0.0000
 19 H      0.9375     1.0000     0.0625     0.9953     0.9953    -0.0000
 20 H      0.9425     1.0000     0.0575     0.9910     0.9910     0.0000
 21 H      0.9482     1.0000     0.0518     0.9968     0.9968    -0.0000
 22 H      0.9378     1.0000     0.0622     0.9954     0.9954     0.0000
 23 H      0.9427     1.0000     0.0573     0.9911     0.9911     0.0000
 24 H      0.9486     1.0000     0.0514     0.9970     0.9970     0.0000
 25 H      0.9509     1.0000     0.0491     0.9953     0.9953    -0.0000
 26 H      0.9437     1.0000     0.0563     0.9961     0.9961    -0.0000
[...]
     31      -0.001167  -0.029970  -0.000540  -0.000009   0.000746  -0.000238
     32       0.000605   0.013531   0.000231   0.000016  -0.000934   0.000290
     33      -0.018706   0.001890  -0.084121  -0.000031  -0.000475   0.000309
     34       0.014193  -0.000883   0.033266  -0.000013  -0.000673   0.000215
     35       0.006217  -0.000325   0.011356  -0.000016  -0.000696   0.000214
     36       0.075154   0.000161  -0.020855   0.000022  -0.000073   0.000062
     37       0.028368   0.000068  -0.007506   0.000045   0.000043  -0.000055
     38      -0.042298  -0.000030   0.007265  -0.000023  -0.000020   0.000035
     39      -0.016540   0.000180   0.016042  -0.003283  -0.000461   0.002436
     40      -0.017426   0.000151   0.014085  -0.002202   0.000888   0.000909
     41      -0.023308   0.000184   0.021302  -0.002322   0.001293   0.000357
     42       0.000755   0.000781  -0.000367  -0.455677   0.143143   0.447472
     43       0.000221   0.000051  -0.000082  -0.063019   0.019634   0.061440
     44       0.000767   0.000903  -0.000197  -0.522756   0.162052   0.505088
     45       0.000212   0.000357  -0.000763  -0.465785  -0.138269  -0.437672
     46      -0.000037   0.000066   0.000041  -0.007754  -0.002331  -0.007729
     47      -0.000194  -0.000207   0.000900   0.538627   0.157752   0.498070
     48       0.004224  -0.034275  -0.000991  -0.000187   0.000127  -0.000068
     49       0.004256  -0.034025  -0.000983  -0.000403  -0.000157  -0.000064
     50      -0.007734   0.058128   0.001689   0.000478  -0.000062   0.000126
     51       0.003501  -0.012006  -0.000354  -0.000163  -0.000047  -0.000113
     52       0.022215  -0.074408  -0.002224   0.000049   0.000385  -0.000190
     53       0.034360  -0.115508  -0.003444  -0.000413   0.000355  -0.000569
     54       0.054707  -0.239719  -0.007351  -0.000626  -0.000227   0.000219
     55       0.002899  -0.012211  -0.000344   0.000200  -0.000091   0.000140
     56       0.012929  -0.056888  -0.001741  -0.000056  -0.000010   0.000047
     57      -0.018328  -0.745704  -0.016142  -0.000772  -0.004328   0.001887
     58      -0.002411  -0.098358  -0.002137  -0.000277  -0.000284  -0.000011
     59      -0.003649  -0.151817  -0.003307  -0.000468  -0.000667   0.000079
     60      -0.007156  -0.221769  -0.004369  -0.000028   0.001518  -0.000315
     61       0.016163   0.500659   0.009901   0.000202  -0.002146   0.000358
     62      -0.002671  -0.083417  -0.001655   0.000017   0.000092   0.000062
     63       0.000660  -0.030556  -0.000997   0.000007  -0.008035   0.002603
     64       0.000323  -0.042928  -0.001277   0.000081  -0.006969   0.002377
     65      -0.000779   0.075995   0.002312   0.000308   0.012178  -0.003752
     66       0.164763  -0.016724   0.753149  -0.000769   0.003529  -0.001627
     67       0.015926  -0.001599   0.072345  -0.000222   0.000083   0.000072
     68      -0.034675   0.003591  -0.163090   0.000481  -0.000554   0.000025
     69       0.072478  -0.005361   0.217424  -0.000032  -0.001313   0.000271
     70      -0.173396   0.012796  -0.520786   0.000208   0.001861  -0.000297
     71      -0.014211   0.001071  -0.043860  -0.000029  -0.000099   0.000089
     72      -0.015963  -0.000272   0.032651   0.000012   0.007262  -0.002376
     73      -0.013866  -0.000588   0.049904   0.000051   0.006476  -0.002240
     74      -0.023939  -0.000815   0.074251  -0.000329   0.008862  -0.002705
     75      -0.045455  -0.000065   0.009332  -0.000184   0.000040   0.000150
     76      -0.239690  -0.000287   0.047711  -0.000079  -0.000325   0.000310
     77       0.451233   0.000556  -0.090330   0.000689   0.000362  -0.000902
     78      -0.766356  -0.001344   0.205762  -0.000735   0.000311  -0.000135
     79      -0.012429  -0.000045   0.002671   0.000209   0.000078  -0.000134
     80       0.187540   0.000331  -0.050535   0.000068  -0.000023   0.000034
     81      -0.083745  -0.000364   0.035686  -0.000185  -0.000019   0.000008
     82      -0.091098  -0.000389   0.038436  -0.000431   0.000190   0.000046
     83      -0.134699  -0.000546   0.054786  -0.000426   0.000053   0.000048


-----------
IR SPECTRUM
-----------

 Mode   freq       eps      Int      T**2         TX        TY        TZ
       cm**-1   L/(mol*cm) km/mol    a.u.
----------------------------------------------------------------------------
  6:     36.06   0.000047    0.24  0.000409  (-0.003728 -0.019424 -0.004242)
  7:     40.70   0.000027    0.14  0.000206  (-0.000811 -0.008579  0.011483)
  8:    100.13   0.000047    0.24  0.000147  ( 0.005447 -0.010811 -0.000228)
  9:    139.06   0.000007    0.03  0.000015  (-0.000224 -0.000336 -0.003911)
 10:    163.11   0.000000    0.00  0.000001  (-0.000144 -0.000902  0.000097)
 11:    247.51   0.000022    0.11  0.000027  (-0.005059 -0.000371 -0.001197)
 12:    257.23   0.000009    0.04  0.000010  (-0.001607  0.000145  0.002795)
 13:    279.93   0.000030    0.15  0.000033  ( 0.000983 -0.005455  0.001570)
 14:    285.90   0.000021    0.11  0.000023  ( 0.000802 -0.001503 -0.004534)
 15:    305.40   0.000079    0.40  0.000080  (-0.008645  0.002383  0.000190)
 16:    320.06   0.000016    0.08  0.000016  ( 0.000179 -0.000014 -0.003945)
 17:    340.50   0.000047    0.24  0.000043  (-0.005596 -0.003311 -0.000678)
 18:    410.31   0.000066    0.33  0.000050  ( 0.003477  0.006189 -0.000098)
 19:    444.84   0.000066    0.33  0.000046  ( 0.000142  0.000248 -0.006781)
 20:    475.34   0.000002    0.01  0.000001  (-0.000685 -0.000381 -0.000895)
 21:    513.58   0.000223    1.13  0.000135  (-0.010999 -0.003784  0.000261)
 22:    605.54   0.000432    2.18  0.000223  (-0.000097  0.000005 -0.014924)
 23:    676.89   0.013833   69.91  0.006378  ( 0.002204  0.079761 -0.003283)
 24:    681.73   0.000413    2.09  0.000189  ( 0.001951  0.012289 -0.005858)
 25:    698.47   0.000772    3.90  0.000345  ( 0.011894 -0.014250  0.000458)
 26:    768.50   0.009275   46.87  0.003766  (-0.006380  0.060954 -0.003176)
 27:    891.06   0.005107   25.81  0.001788  (-0.007927  0.041459 -0.002611)
 28:    912.54   0.000152    0.77  0.000052  ( 0.000906 -0.000664  0.007124)
 29:    915.00   0.000106    0.53  0.000036  ( 0.000069  0.004189  0.004303)
 30:    918.93   0.000479    2.42  0.000163  ( 0.011171  0.006078 -0.000997)
 31:    942.94   0.000745    3.77  0.000247  (-0.000466  0.014652  0.005639)
 32:    944.80   0.000849    4.29  0.000281  ( 0.000644 -0.015150  0.007112)
 33:    965.24   0.000187    0.94  0.000060  (-0.000851 -0.005909 -0.004967)
 34:    967.80   0.000171    0.86  0.000055  ( 0.001349  0.006571 -0.003165)
 35:   1026.63   0.003432   17.34  0.001043  (-0.032247 -0.001788 -0.000306)
 36:   1036.51   0.000120    0.61  0.000036  ( 0.000109 -0.000701 -0.005974)
 37:   1102.59   0.003917   19.80  0.001109  (-0.000589 -0.002291 -0.033212)
 38:   1124.92   0.000604    3.05  0.000167  (-0.012674  0.002618 -0.000017)
 39:   1138.42   0.000317    1.60  0.000087  (-0.000938  0.000399  0.009260)
 40:   1168.93   0.015822   79.96  0.004224  ( 0.064884  0.003522 -0.001241)
 41:   1174.26   0.000913    4.61  0.000243  ( 0.012239  0.006745  0.006881)
 42:   1176.23   0.005796   29.29  0.001538  (-0.022492 -0.032051  0.002110)
 43:   1191.67   0.001081    5.46  0.000283  ( 0.000300 -0.000795  0.016804)
 44:   1216.23   0.034988  176.82  0.008977  ( 0.094748 -0.000058 -0.000507)
 45:   1268.82   0.006544   33.07  0.001609  (-0.040020  0.002767 -0.000458)
 46:   1343.62   0.000212    1.07  0.000049  ( 0.003272 -0.000454 -0.006190)
 47:   1353.48   0.000229    1.16  0.000053  (-0.007098 -0.001525 -0.000394)
 48:   1354.76   0.000051    0.26  0.000012  ( 0.002226  0.000172  0.002605)
 49:   1373.13   0.009110   46.04  0.002070  ( 0.044969 -0.006667  0.001926)
 50:   1395.26   0.001682    8.50  0.000376  ( 0.000479 -0.000220 -0.019388)
 51:   1403.63   0.007328   37.03  0.001629  ( 0.008194 -0.039523  0.000259)
 52:   1404.80   0.000426    2.15  0.000095  (-0.000768 -0.008746  0.004181)
 53:   1408.64   0.002943   14.87  0.000652  ( 0.019986 -0.004169  0.015332)
 54:   1410.53   0.008594   43.43  0.001901  (-0.007201  0.004175  0.042803)
 55:   1447.43   0.000002    0.01  0.000000  (-0.000053  0.000692 -0.000134)
 56:   1447.55   0.000068    0.34  0.000015  (-0.000029  0.000438  0.003800)
 57:   1451.43   0.000258    1.30  0.000055  ( 0.002579  0.006414  0.002773)
 58:   1456.08   0.003333   16.84  0.000714  ( 0.001500  0.000952 -0.026667)
 59:   1461.62   0.005505   27.82  0.001175  ( 0.024942  0.021818 -0.008782)
 60:   1463.86   0.004305   21.76  0.000918  ( 0.011987  0.007072  0.026908)
 61:   1470.18   0.001275    6.44  0.000271  (-0.013559  0.007447  0.005600)
 62:   1476.60   0.000090    0.45  0.000019  (-0.000303  0.000866 -0.004263)
 63:   1487.98   0.000709    3.58  0.000149  (-0.011751  0.003221  0.000496)
 64:   1512.89   0.000400    2.02  0.000082  ( 0.000796 -0.000753 -0.009016)
 65:   1648.15   0.028558  144.32  0.005407  (-0.073481  0.000582 -0.002719)
 66:   1649.65   0.002388   12.07  0.000452  ( 0.011556 -0.001002 -0.017812)
 67:   3070.43   0.002889   14.60  0.000294  ( 0.004883 -0.016383  0.001161)
 68:   3070.71   0.002201   11.12  0.000224  ( 0.004605 -0.014206 -0.000790)
 69:   3073.70   0.001576    7.97  0.000160  ( 0.000542 -0.003755 -0.012067)
 70:   3074.90   0.001680    8.49  0.000170  ( 0.000715 -0.004040  0.012395)
 71:   3136.26   0.000864    4.36  0.000086  (-0.005765 -0.004248  0.005887)
 72:   3136.75   0.000790    3.99  0.000079  (-0.005527 -0.004505 -0.005264)
 73:   3175.22   0.000929    4.70  0.000091  (-0.000643 -0.009517 -0.000583)
 74:   3175.70   0.001055    5.33  0.000104  ( 0.002313 -0.006903  0.007118)
 75:   3178.19   0.005122   25.88  0.000503  (-0.011437 -0.008390  0.017370)
 76:   3178.56   0.005204   26.30  0.000511  ( 0.009347  0.010524  0.017687)
 77:   3187.34   0.001962    9.92  0.000192  (-0.008710 -0.009135 -0.005728)
 78:   3187.40   0.001768    8.94  0.000173  ( 0.008886  0.007368 -0.006314)
 79:   3189.97   0.002575   13.01  0.000252  ( 0.015286 -0.003439  0.002534)
 80:   3190.72   0.002276   11.50  0.000223  (-0.014196  0.004143  0.001976)
 81:   3298.29   0.005290   26.73  0.000501  (-0.022304 -0.001731  0.000220)
 82:   3310.24   0.013137   66.39  0.001238  ( 0.000221  0.001939  0.035137)
 83:   3316.65   0.000936    4.73  0.000088  ( 0.000350  0.000599  0.009358)

* The epsilon (eps) is given for a Dirac delta lineshape.
** The dipole moment derivative (T) already includes vibrational overlap.

The first frequency considered to be a vibration is 6
The total number of vibrations considered is 78


--------------------------
THERMOCHEMISTRY AT 298.15K
--------------------------

Temperature         ... 298.15 K
Pressure            ... 1.00 atm
Total Mass          ... 153.25 AMU

Throughout the following assumptions are being made:
  (1) The electronic state is orbitally nondegenerate
  (2) There are no thermally accessible electronically excited states
  (3) Hindered rotations indicated by low frequency modes are not
      treated as such but are treated as vibrations and this may
      cause some error
  (4) All equations used are the standard statistical mechanics
      equations for an ideal gas
  (5) All vibrations are strictly harmonic

freq.      36.06  E(vib)   ...       0.54 
freq.      40.70  E(vib)   ...       0.54 
freq.     100.13  E(vib)   ...       0.46 
freq.     139.06  E(vib)   ...       0.42 
freq.     163.11  E(vib)   ...       0.39 
freq.     247.51  E(vib)   ...       0.31 
freq.     257.23  E(vib)   ...       0.30 
freq.     279.93  E(vib)   ...       0.28 
freq.     285.90  E(vib)   ...       0.27 
freq.     305.40  E(vib)   ...       0.26 
freq.     320.06  E(vib)   ...       0.25 
freq.     340.50  E(vib)   ...       0.23 
freq.     410.31  E(vib)   ...       0.19 
freq.     444.84  E(vib)   ...       0.17 
freq.     475.34  E(vib)   ...       0.15 
freq.     513.58  E(vib)   ...       0.13 
freq.     605.54  E(vib)   ...       0.10 
freq.     676.89  E(vib)   ...       0.08 
freq.     681.73  E(vib)   ...       0.08 
freq.     698.47  E(vib)   ...       0.07 
freq.     768.50  E(vib)   ...       0.06 
freq.     891.06  E(vib)   ...       0.04 
freq.     912.54  E(vib)   ...       0.03 
freq.     915.00  E(vib)   ...       0.03 
freq.     918.93  E(vib)   ...       0.03 
freq.     942.94  E(vib)   ...       0.03 
freq.     944.80  E(vib)   ...       0.03 
freq.     965.24  E(vib)   ...       0.03 
freq.     967.80  E(vib)   ...       0.03 
freq.    1026.63  E(vib)   ...       0.02 
freq.    1036.51  E(vib)   ...       0.02 
freq.    1102.59  E(vib)   ...       0.02 
freq.    1124.92  E(vib)   ...       0.01 
freq.    1138.42  E(vib)   ...       0.01 
freq.    1168.93  E(vib)   ...       0.01 
freq.    1174.26  E(vib)   ...       0.01 
freq.    1176.23  E(vib)   ...       0.01 
freq.    1191.67  E(vib)   ...       0.01 
freq.    1216.23  E(vib)   ...       0.01 
freq.    1268.82  E(vib)   ...       0.01 
freq.    1343.62  E(vib)   ...       0.01 
freq.    1353.48  E(vib)   ...       0.01 
freq.    1354.76  E(vib)   ...       0.01 
freq.    1373.13  E(vib)   ...       0.01 
freq.    1395.26  E(vib)   ...       0.00 
freq.    1403.63  E(vib)   ...       0.00 
freq.    1404.80  E(vib)   ...       0.00 
freq.    1408.64  E(vib)   ...       0.00 
freq.    1410.53  E(vib)   ...       0.00 
freq.    1447.43  E(vib)   ...       0.00 
freq.    1447.55  E(vib)   ...       0.00 
freq.    1451.43  E(vib)   ...       0.00 
freq.    1456.08  E(vib)   ...       0.00 
freq.    1461.62  E(vib)   ...       0.00 
freq.    1463.86  E(vib)   ...       0.00 
freq.    1470.18  E(vib)   ...       0.00 
freq.    1476.60  E(vib)   ...       0.00 
freq.    1487.98  E(vib)   ...       0.00 
freq.    1512.89  E(vib)   ...       0.00 
freq.    1648.15  E(vib)   ...       0.00 
freq.    1649.65  E(vib)   ...       0.00 
freq.    3070.43  E(vib)   ...       0.00 
freq.    3070.71  E(vib)   ...       0.00 
freq.    3073.70  E(vib)   ...       0.00 
freq.    3074.90  E(vib)   ...       0.00 
freq.    3136.26  E(vib)   ...       0.00 
freq.    3136.75  E(vib)   ...       0.00 
freq.    3175.22  E(vib)   ...       0.00 
freq.    3175.70  E(vib)   ...       0.00 
freq.    3178.19  E(vib)   ...       0.00 
freq.    3178.56  E(vib)   ...       0.00 
freq.    3187.34  E(vib)   ...       0.00 
freq.    3187.40  E(vib)   ...       0.00 
freq.    3189.97  E(vib)   ...       0.00 
freq.    3190.72  E(vib)   ...       0.00 
freq.    3298.29  E(vib)   ...       0.00 
freq.    3310.24  E(vib)   ...       0.00 
freq.    3316.65  E(vib)   ...       0.00 

------------
INNER ENERGY
------------

The inner energy is: U= E(el) + E(ZPE) + E(vib) + E(rot) + E(trans)
    E(el)   - is the total energy from the electronic structure calculation
              = E(kin-el) + E(nuc-el) + E(el-el) + E(nuc-nuc)
    E(ZPE)  - the the zero temperature vibrational energy from the frequency calculation
    E(vib)  - the the finite temperature correction to E(ZPE) due to population
              of excited vibrational states
    E(rot)  - is the rotational thermal energy
    E(trans)- is the translational thermal energy

Summary of contributions to the inner energy U:
Electronic energy                ...   -462.13550259 Eh
Zero point energy                ...      0.25571647 Eh     160.46 kcal/mol
Thermal vibrational correction   ...      0.00914749 Eh       5.74 kcal/mol
Thermal rotational correction    ...      0.00141627 Eh       0.89 kcal/mol
Thermal translational correction ...      0.00141627 Eh       0.89 kcal/mol
-----------------------------------------------------------------------
Total thermal energy                   -461.86780608 Eh


Summary of corrections to the electronic energy:
(perhaps to be used in another calculation)
Total thermal correction                  0.01198003 Eh       7.52 kcal/mol
Non-thermal (ZPE) correction              0.25571647 Eh     160.46 kcal/mol
-----------------------------------------------------------------------
Total correction                          0.26769651 Eh     167.98 kcal/mol


--------
ENTHALPY
--------

The enthalpy is H = U + kB*T
                kB is Boltzmann's constant
Total free energy                 ...   -461.86780608 Eh 
Thermal Enthalpy correction       ...      0.00094421 Eh       0.59 kcal/mol
-----------------------------------------------------------------------
Total Enthalpy                    ...   -461.86686187 Eh


Note: Only C1 symmetry has been detected, increase convergence thresholds 
      if your molecule has a higher symmetry. Symmetry factor of 1.0 is   
      used for the rotational entropy correction. 
 

Note: Rotational entropy computed according to Herzberg 
Infrared and Raman Spectra, Chapter V,1, Van Nostrand Reinhold, 1945 
Point Group:  C1, Symmetry Number:   1  
Rotational constants in cm-1:     0.068534     0.021028     0.019385 

Vibrational entropy computed according to the QRRHO of S. Grimme
Chem.Eur.J. 2012 18 9955


-------
ENTROPY
-------

The entropy contributions are T*S = T*(S(el)+S(vib)+S(rot)+S(trans))
     S(el)   - electronic entropy
     S(vib)  - vibrational entropy
     S(rot)  - rotational entropy
     S(trans)- translational entropy
The entropies will be listed as multiplied by the temperature to get
units of energy

Electronic entropy                ...      0.00000000 Eh      0.00 kcal/mol
Vibrational entropy               ...      0.01573759 Eh      9.88 kcal/mol
Rotational entropy                ...      0.01446095 Eh      9.07 kcal/mol
Translational entropy             ...      0.01947584 Eh     12.22 kcal/mol
-----------------------------------------------------------------------
Final entropy term                ...      0.04967438 Eh     31.17 kcal/mol

In case the symmetry of your molecule has not been determined correctly
or in case you have a reason to use a different symmetry number we print 
out the resulting rotational entropy values for sn=1,12 :
 --------------------------------------------------------
|  sn= 1 | S(rot)=       0.01446095 Eh      9.07 kcal/mol|
|  sn= 2 | S(rot)=       0.01380649 Eh      8.66 kcal/mol|
|  sn= 3 | S(rot)=       0.01342366 Eh      8.42 kcal/mol|
|  sn= 4 | S(rot)=       0.01315204 Eh      8.25 kcal/mol|
|  sn= 5 | S(rot)=       0.01294135 Eh      8.12 kcal/mol|
|  sn= 6 | S(rot)=       0.01276921 Eh      8.01 kcal/mol|
|  sn= 7 | S(rot)=       0.01262366 Eh      7.92 kcal/mol|
|  sn= 8 | S(rot)=       0.01249758 Eh      7.84 kcal/mol|
|  sn= 9 | S(rot)=       0.01238637 Eh      7.77 kcal/mol|
|  sn=10 | S(rot)=       0.01228689 Eh      7.71 kcal/mol|
|  sn=11 | S(rot)=       0.01219690 Eh      7.65 kcal/mol|
|  sn=12 | S(rot)=       0.01211475 Eh      7.60 kcal/mol|
 --------------------------------------------------------


-------------------
GIBBS FREE ENERGY
-------------------

The Gibbs free energy is G = H - T*S

Total enthalpy                    ...   -461.86686187 Eh 
Total entropy correction          ...     -0.04967438 Eh    -31.17 kcal/mol
-----------------------------------------------------------------------
Final Gibbs free energy         ...   -461.91653625 Eh

For completeness - the Gibbs free energy minus the electronic energy
G-E(el)                           ...      0.21896634 Eh    137.40 kcal/mol


Timings for individual modules:

Sum of individual times         ...     4564.399 sec (=  76.073 min)
GTO integral calculation        ...        2.906 sec (=   0.048 min)   0.1 %
SCF iterations                  ...     2388.776 sec (=  39.813 min)  52.3 %
SCF Gradient evaluation         ...      662.597 sec (=  11.043 min)  14.5 %
Geometry relaxation             ...        0.551 sec (=   0.009 min)   0.0 %
Analytical frequency calculation...     1509.568 sec (=  25.159 min)  33.1 %
                             ****ORCA TERMINATED NORMALLY****
TOTAL RUN TIME: 0 days 1 hours 16 minutes 5 seconds 610 msec
