
                                 *****************
                                 * O   R   C   A *
                                 *****************

                                            #,                                       
                                            ###                                      
                                            ####                                     
                                            #####                                    
                                            ######                                   
                                           ########,                                 
                                     ,,################,,,,,                         
                               ,,#################################,,                 
                          ,,##########################################,,             
                       ,#########################################, ''#####,          
                    ,#############################################,,   '####,        
                  ,##################################################,,,,####,       
                ,###########''''           ''''###############################       
              ,#####''   ,,,,##########,,,,          '''####'''          '####       
            ,##' ,,,,###########################,,,                        '##       
           ' ,,###''''                  '''############,,,                           
         ,,##''                                '''############,,,,        ,,,,,,###''
      ,#''                                            '''#######################'''  
     '                                                          ''''####''''         
             ,#######,   #######,   ,#######,      ##                                
            ,#'     '#,  ##    ##  ,#'     '#,    #''#        ######   ,####,        
            ##       ##  ##   ,#'  ##            #'  '#       #        #'  '#        
            ##       ##  #######   ##           ,######,      #####,   #    #        
            '#,     ,#'  ##    ##  '#,     ,#' ,#      #,         ##   #,  ,#        
             '#######'   ##     ##  '#######'  #'      '#     #####' # '####'        



                  #######################################################
                  #                        -***-                        #
                  #          Department of theory and spectroscopy      #
                  #    Directorship and core code : Frank Neese         #
                  #        Max Planck Institute fuer Kohlenforschung    #
                  #                Kaiser Wilhelm Platz 1               #
                  #                 D-45470 Muelheim/Ruhr               #
                  #                      Germany                        #
                  #                                                     #
                  #                  All rights reserved                #
                  #                        -***-                        #
                  #######################################################


                         Program Version 5.0.4 -  RELEASE  -


 With contributions from (in alphabetic order):
   Daniel Aravena         : Magnetic Suceptibility
   Michael Atanasov       : Ab Initio Ligand Field Theory (pilot matlab implementation)
   Alexander A. Auer      : GIAO ZORA, VPT2 properties, NMR spectrum
   Ute Becker             : Parallelization
   Giovanni Bistoni       : ED, misc. LED, open-shell LED, HFLD
   Martin Brehm           : Molecular dynamics
   Dmytro Bykov           : SCF Hessian
   Vijay G. Chilkuri      : MRCI spin determinant printing, contributions to CSF-ICE
   Dipayan Datta          : RHF DLPNO-CCSD density
   Achintya Kumar Dutta   : EOM-CC, STEOM-CC
   Dmitry Ganyushin       : Spin-Orbit,Spin-Spin,Magnetic field MRCI
   Miquel Garcia          : C-PCM and meta-GGA Hessian, CC/C-PCM, Gaussian charge scheme
   Yang Guo               : DLPNO-NEVPT2, F12-NEVPT2, CIM, IAO-localization
   Andreas Hansen         : Spin unrestricted coupled pair/coupled cluster methods
   Benjamin Helmich-Paris : MC-RPA, TRAH-SCF, COSX integrals
   Lee Huntington         : MR-EOM, pCC
   Robert Izsak           : Overlap fitted RIJCOSX, COSX-SCS-MP3, EOM
   Marcus Kettner         : VPT2
   Christian Kollmar      : KDIIS, OOCD, Brueckner-CCSD(T), CCSD density, CASPT2, CASPT2-K
   Simone Kossmann        : Meta GGA functionals, TD-DFT gradient, OOMP2, MP2 Hessian
   Martin Krupicka        : Initial AUTO-CI
   Lucas Lang             : DCDCAS
   Marvin Lechner         : AUTO-CI (C++ implementation), FIC-MRCC
   Dagmar Lenk            : GEPOL surface, SMD
   Dimitrios Liakos       : Extrapolation schemes; Compound Job, initial MDCI parallelization
   Dimitrios Manganas     : Further ROCIS development; embedding schemes
   Dimitrios Pantazis     : SARC Basis sets
   Anastasios Papadopoulos: AUTO-CI, single reference methods and gradients
   Taras Petrenko         : DFT Hessian,TD-DFT gradient, ASA, ECA, R-Raman, ABS, FL, XAS/XES, NRVS
   Peter Pinski           : DLPNO-MP2, DLPNO-MP2 Gradient
   Christoph Reimann      : Effective Core Potentials
   Marius Retegan         : Local ZFS, SOC
   Christoph Riplinger    : Optimizer, TS searches, QM/MM, DLPNO-CCSD(T), (RO)-DLPNO pert. Triples
   Tobias Risthaus        : Range-separated hybrids, TD-DFT gradient, RPA, STAB
   Michael Roemelt        : Original ROCIS implementation
   Masaaki Saitow         : Open-shell DLPNO-CCSD energy and density
   Barbara Sandhoefer     : DKH picture change effects
   Avijit Sen             : IP-ROCIS
   Kantharuban Sivalingam : CASSCF convergence, NEVPT2, FIC-MRCI
   Bernardo de Souza      : ESD, SOC TD-DFT
   Georgi Stoychev        : AutoAux, RI-MP2 NMR, DLPNO-MP2 response
   Willem Van den Heuvel  : Paramagnetic NMR
   Boris Wezisla          : Elementary symmetry handling
   Frank Wennmohs         : Technical directorship


 We gratefully acknowledge several colleagues who have allowed us to
 interface, adapt or use parts of their codes:
   Stefan Grimme, W. Hujo, H. Kruse, P. Pracht,  : VdW corrections, initial TS optimization,
                  C. Bannwarth, S. Ehlert          DFT functionals, gCP, sTDA/sTD-DF
   Ed Valeev, F. Pavosevic, A. Kumar             : LibInt (2-el integral package), F12 methods
   Garnet Chan, S. Sharma, J. Yang, R. Olivares  : DMRG
   Ulf Ekstrom                                   : XCFun DFT Library
   Mihaly Kallay                                 : mrcc  (arbitrary order and MRCC methods)
   Jiri Pittner, Ondrej Demel                    : Mk-CCSD
   Frank Weinhold                                : gennbo (NPA and NBO analysis)
   Christopher J. Cramer and Donald G. Truhlar   : smd solvation model
   Lars Goerigk                                  : TD-DFT with DH, B97 family of functionals
   V. Asgeirsson, H. Jonsson                     : NEB implementation
   FAccTs GmbH                                   : IRC, NEB, NEB-TS, DLPNO-Multilevel, CI-OPT
                                                   MM, QMMM, 2- and 3-layer-ONIOM, Crystal-QMMM,
                                                   LR-CPCM, SF, NACMEs, symmetry and pop. for TD-DFT,
                                                   nearIR, NL-DFT gradient (VV10), updates on ESD,
                                                   ML-optimized integration grids
   S Lehtola, MJT Oliveira, MAL Marques          : LibXC Library
   Liviu Ungur et al                             : ANISO software


 Your calculation uses the libint2 library for the computation of 2-el integrals
 For citations please refer to: http://libint.valeyev.net

 Your ORCA version has been built with support for libXC version: 5.1.0
 For citations please refer to: https://tddft.org/programs/libxc/

 This ORCA versions uses:
   CBLAS   interface :  Fast vector & matrix operations
   LAPACKE interface :  Fast linear algebra routines
   SCALAPACK package :  Parallel linear algebra routines
   Shared memory     :  Shared parallel matrices
   BLAS/LAPACK       :  OpenBLAS 0.3.15  USE64BITINT DYNAMIC_ARCH NO_AFFINITY SkylakeX SINGLE_THREADED
        Core in use  :  SkylakeX
   Copyright (c) 2011-2014, The OpenBLAS Project




***************************************
The coordinates will be read from file: 4_prot_aq_1.xyz
***************************************


Your calculation utilizes the atom-pairwise dispersion correction
based on tight binding partial charges (D4)
Cite in your paper:
E.Caldeweyher, C.Bannwarth, S.Grimme, J.Chem.Phys., (2017), 147, 034112.
E.Caldeweyher, S.Ehlert, A.Hansen, H.Neugebauer, S.Grimme, J.Chem.Phys., (2018), in progress.
   

XCFun DFT library Copyright 2009-2010 Ulf Ekstrom and contributors.
See http://admol.org/xcfun for more information.
This is free software; see the source code for copying conditions.
There is ABSOLUTELY NO WARRANTY; not even for MERCHANTABILITY or FITNESS FOR A PARTICULAR PURPOSE.
For details see the documentation.
Scientific users of this library should cite U. Ekstrom, L. Visscher, R. Bast, A. J. Thorvaldsen and K. Ruud;
J.Chem.Theor.Comp. 2010, DOI: 10.1021/ct100117s
XCFun Version 0.99 

================================================================================

----- Orbital basis set information -----
Your calculation utilizes the basis: def2-SVP
   F. Weigend and R. Ahlrichs, Phys. Chem. Chem. Phys. 7, 3297 (2005).

----- AuxJ basis set information -----
Your calculation utilizes the auxiliary basis: def2/J
   F. Weigend, Phys. Chem. Chem. Phys. 8, 1057 (2006).

================================================================================
                                        WARNINGS
                       Please study these warnings very carefully!
================================================================================


WARNING: Geometry Optimization
  ===> : Switching off AutoStart
         For restart on a previous wavefunction, please use MOREAD

INFO   : the flag for use of the SHARK integral package has been found!

================================================================================
                                       INPUT FILE
================================================================================
NAME = 4_prot_aq_1.inp
|  1> # ORCA 5.0.4 - /users/bwb16179/postgrad/2024_03/DFT_Crest_Conformers/Opt/prot/4_prot_aq_1.inp # write input file
|  2> # Basic Mode
|  3> #
|  4> ! Opt Freq wB97X Def2-SVP D4 SlowConv TightSCF Defgrid2 Def2/J RIJCOSX CPCM(Water)
|  5> 
|  6> 
|  7> 
|  8> %maxcore 4500
|  9> 
| 10> %geom
| 11> Maxiter 150
| 12> END
| 13> 
| 14> * xyzfile 1 1 4_prot_aq_1.xyz
| 15> 
| 16>                          ****END OF INPUT****
================================================================================

                       *****************************
                       * Geometry Optimization Run *
                       *****************************

Geometry optimization settings:
Update method            Update   .... BFGS
Choice of coordinates    CoordSys .... Z-matrix Internals
Initial Hessian          InHess   .... Almoef's Model

Convergence Tolerances:
Energy Change            TolE     ....  5.0000e-06 Eh
Max. Gradient            TolMAXG  ....  3.0000e-04 Eh/bohr
RMS Gradient             TolRMSG  ....  1.0000e-04 Eh/bohr
Max. Displacement        TolMAXD  ....  4.0000e-03 bohr
RMS Displacement         TolRMSD  ....  2.0000e-03 bohr
Strict Convergence                ....  False
------------------------------------------------------------------------------
                        ORCA OPTIMIZATION COORDINATE SETUP
------------------------------------------------------------------------------

The optimization will be done in new redundant internal coordinates
Making redundant internal coordinates   ...  (new redundants) done
Evaluating the initial hessian          ...  (Almloef) done
Evaluating the coordinates              ...  done
Calculating the B-matrix                .... done
Calculating the G-matrix                .... done
Diagonalizing the G-matrix              .... done
Small eigenvalue found = 1.965e-02
Small eigenvalue found = 2.107e-02
The first mode is                       ....   69
The number of degrees of freedom        ....   78

    -----------------------------------------------------------------
                    Redundant Internal Coordinates


    -----------------------------------------------------------------
         Definition                    Initial Value    Approx d2E/dq
    -----------------------------------------------------------------
      1. B(C   1,N   0)                  1.3290         0.700052   
      2. B(N   2,C   1)                  1.3290         0.700119   
      3. B(H   3,C   1)                  1.0728         0.383612   
      4. B(C   4,N   2)                  1.3615         0.621270   
      5. B(C   5,C   4)                  1.3611         0.694700   
      6. B(C   5,N   0)                  1.3615         0.621404   
      7. B(C   6,N   0)                  1.4594         0.433626   
      8. B(C   7,N   2)                  1.4594         0.433701   
      9. B(C   8,C   6)                  1.5254         0.379912   
     10. B(H   9,C   6)                  1.0946         0.354024   
     11. B(C  10,C   6)                  1.5254         0.379916   
     12. B(C  11,C   7)                  1.5254         0.379941   
     13. B(C  12,C   7)                  1.5254         0.379902   
     14. B(H  13,C   7)                  1.0946         0.354019   
     15. B(H  14,C   4)                  1.0699         0.387684   
     16. B(H  15,C   5)                  1.0699         0.387655   
     17. B(H  16,C   8)                  1.0865         0.364754   
     18. B(H  17,C   8)                  1.0874         0.363578   
     19. B(H  18,C   8)                  1.0857         0.365835   
     20. B(H  19,C  10)                  1.0874         0.363545   
     21. B(H  20,C  10)                  1.0865         0.364723   
     22. B(H  21,C  10)                  1.0857         0.365824   
     23. B(H  22,C  11)                  1.0874         0.363613   
     24. B(H  23,C  11)                  1.0864         0.364835   
     25. B(H  24,C  11)                  1.0857         0.365849   
     26. B(H  25,C  12)                  1.0857         0.365852   
     27. B(H  26,C  12)                  1.0865         0.364758   
     28. B(H  27,C  12)                  1.0874         0.363568   
     29. A(C   1,N   0,C   6)          126.2218         0.410749   
     30. A(C   5,N   0,C   6)          126.0660         0.402186   
     31. A(C   1,N   0,C   5)          107.7122         0.438047   
     32. A(N   0,C   1,H   3)          125.0943         0.361910   
     33. A(N   2,C   1,H   3)          125.0993         0.361916   
     34. A(N   0,C   1,N   2)          109.8065         0.447598   
     35. A(C   1,N   2,C   7)          126.2355         0.410769   
     36. A(C   1,N   2,C   4)          107.7099         0.438038   
     37. A(C   4,N   2,C   7)          126.0545         0.402183   
     38. A(N   2,C   4,H  14)          122.9979         0.355270   
     39. A(C   5,C   4,H  14)          129.6163         0.364354   
     40. A(N   2,C   4,C   5)          107.3858         0.440315   
     41. A(N   0,C   5,C   4)          107.3856         0.440333   
     42. A(N   0,C   5,H  15)          123.0226         0.355278   
     43. A(C   4,C   5,H  15)          129.5918         0.364350   
     44. A(N   0,C   6,C  10)          109.6767         0.371505   
     45. A(C   8,C   6,H   9)          109.4331         0.324308   
     46. A(N   0,C   6,H   9)          106.3820         0.329463   
     47. A(N   0,C   6,C   8)          109.6778         0.371504   
     48. A(H   9,C   6,C  10)          109.4380         0.324309   
     49. A(C   8,C   6,C  10)          112.0698         0.365449   
     50. A(C  12,C   7,H  13)          109.4293         0.324306   
     51. A(C  11,C   7,H  13)          109.4313         0.324312   
     52. A(N   2,C   7,H  13)          106.3874         0.329472   
     53. A(C  11,C   7,C  12)          112.0757         0.365452   
     54. A(N   2,C   7,C  12)          109.6681         0.371514   
     55. A(N   2,C   7,C  11)          109.6856         0.371520   
     56. A(C   6,C   8,H  18)          109.3168         0.326063   
     57. A(H  16,C   8,H  17)          108.8772         0.291868   
     58. A(C   6,C   8,H  17)          110.9712         0.325731   
     59. A(C   6,C   8,H  16)          111.2098         0.325904   
     60. A(H  17,C   8,H  18)          108.2346         0.292004   
     61. A(H  16,C   8,H  18)          108.1408         0.292152   
     62. A(H  19,C  10,H  21)          108.2330         0.291998   
     63. A(C   6,C  10,H  21)          109.3066         0.326062   
     64. A(H  19,C  10,H  20)          108.8784         0.291860   
     65. A(C   6,C  10,H  20)          111.2146         0.325900   
     66. A(H  20,C  10,H  21)          108.1410         0.292147   
     67. A(C   6,C  10,H  19)          110.9765         0.325727   
     68. A(H  23,C  11,H  24)          108.1370         0.292164   
     69. A(H  22,C  11,H  24)          108.2299         0.292010   
     70. A(C   7,C  11,H  24)          109.3100         0.326069   
     71. A(H  22,C  11,H  23)          108.8766         0.291882   
     72. A(C   7,C  11,H  23)          111.2164         0.325920   
     73. A(C   7,C  11,H  22)          110.9800         0.325740   
     74. A(H  26,C  12,H  27)          108.8748         0.291867   
     75. A(H  25,C  12,H  27)          108.2352         0.292005   
     76. A(C   7,C  12,H  27)          110.9716         0.325728   
     77. A(H  25,C  12,H  26)          108.1457         0.292155   
     78. A(C   7,C  12,H  26)          111.2073         0.325903   
     79. A(C   7,C  12,H  25)          109.3160         0.326064   
     80. D(H   3,C   1,N   0,C   5)   -179.9930         0.040555   
     81. D(H   3,C   1,N   0,C   6)      0.0311         0.040555   
     82. D(N   2,C   1,N   0,C   6)   -179.9732         0.040555   
     83. D(N   2,C   1,N   0,C   5)      0.0027         0.040555   
     84. D(C   7,N   2,C   1,H   3)      0.0190         0.040564   
     85. D(C   7,N   2,C   1,N   0)   -179.9767         0.040564   
     86. D(C   4,N   2,C   1,H   3)    179.9947         0.040564   
     87. D(C   4,N   2,C   1,N   0)     -0.0009         0.040564   
     88. D(H  14,C   4,N   2,C   1)    179.9986         0.031264   
     89. D(C   5,C   4,N   2,C   7)    179.9746         0.031264   
     90. D(H  14,C   4,N   2,C   7)     -0.0256         0.031264   
     91. D(C   5,C   4,N   2,C   1)     -0.0011         0.031264   
     92. D(H  15,C   5,N   0,C   1)   -179.9945         0.031279   
     93. D(C   4,C   5,N   0,C   6)    179.9726         0.031279   
     94. D(C   4,C   5,N   0,C   1)     -0.0033         0.031279   
     95. D(H  15,C   5,C   4,H  14)     -0.0066         0.033947   
     96. D(H  15,C   5,C   4,N   2)    179.9931         0.033947   
     97. D(N   0,C   5,C   4,H  14)   -179.9970         0.033947   
     98. D(N   0,C   5,C   4,N   2)      0.0027         0.033947   
     99. D(H  15,C   5,N   0,C   6)     -0.0186         0.031279   
    100. D(C  10,C   6,N   0,C   5)     61.7989         0.016031   
    101. D(C  10,C   6,N   0,C   1)   -118.2295         0.016031   
    102. D(H   9,C   6,N   0,C   5)   -179.9392         0.016031   
    103. D(H   9,C   6,N   0,C   1)      0.0324         0.016031   
    104. D(C   8,C   6,N   0,C   5)    -61.6825         0.016031   
    105. D(C   8,C   6,N   0,C   1)    118.2891         0.016031   
    106. D(C  12,C   7,N   2,C   4)    -61.9265         0.016037   
    107. D(C  11,C   7,N   2,C   4)     61.5617         0.016037   
    108. D(C  11,C   7,N   2,C   1)   -118.4669         0.016037   
    109. D(H  13,C   7,N   2,C   1)     -0.2052         0.016037   
    110. D(C  12,C   7,N   2,C   1)    118.0449         0.016037   
    111. D(H  13,C   7,N   2,C   4)    179.8234         0.016037   
    112. D(H  18,C   8,C   6,C  10)     63.1459         0.011504   
    113. D(H  18,C   8,C   6,H   9)    -58.4439         0.011504   
    114. D(H  18,C   8,C   6,N   0)   -174.7902         0.011504   
    115. D(H  17,C   8,C   6,C  10)   -177.5497         0.011504   
    116. D(H  17,C   8,C   6,H   9)     60.8605         0.011504   
    117. D(H  17,C   8,C   6,N   0)    -55.4859         0.011504   
    118. D(H  16,C   8,C   6,C  10)    -56.1898         0.011504   
    119. D(H  16,C   8,C   6,H   9)   -177.7797         0.011504   
    120. D(H  16,C   8,C   6,N   0)     65.8740         0.011504   
    121. D(H  21,C  10,C   6,H   9)     58.6096         0.011504   
    122. D(H  21,C  10,C   6,C   8)    -62.9774         0.011504   
    123. D(H  21,C  10,C   6,N   0)    174.9581         0.011504   
    124. D(H  20,C  10,C   6,H   9)    177.9421         0.011504   
    125. D(H  20,C  10,C   6,C   8)     56.3551         0.011504   
    126. D(H  20,C  10,C   6,N   0)    -65.7094         0.011504   
    127. D(H  19,C  10,C   6,H   9)    -60.6895         0.011504   
    128. D(H  19,C  10,C   6,C   8)    177.7235         0.011504   
    129. D(H  19,C  10,C   6,N   0)     55.6590         0.011504   
    130. D(H  24,C  11,C   7,C  12)    -62.9054         0.011505   
    131. D(H  24,C  11,C   7,N   2)    175.0323         0.011505   
    132. D(H  23,C  11,C   7,H  13)    178.0069         0.011505   
    133. D(H  23,C  11,C   7,C  12)     56.4254         0.011505   
    134. D(H  23,C  11,C   7,N   2)    -65.6368         0.011505   
    135. D(H  22,C  11,C   7,H  13)    -60.6234         0.011505   
    136. D(H  22,C  11,C   7,C  12)    177.7950         0.011505   
    137. D(H  24,C  11,C   7,H  13)     58.6761         0.011505   
    138. D(H  22,C  11,C   7,N   2)     55.7328         0.011505   
    139. D(H  26,C  12,C   7,N   2)     65.6044         0.011503   
    140. D(H  25,C  12,C   7,H  13)    -58.7107         0.011503   
    141. D(H  25,C  12,C   7,C  11)     62.8720         0.011503   
    142. D(H  25,C  12,C   7,N   2)   -175.0558         0.011503   
    143. D(H  27,C  12,C   7,H  13)     60.5941         0.011503   
    144. D(H  27,C  12,C   7,C  11)   -177.8232         0.011503   
    145. D(H  27,C  12,C   7,N   2)    -55.7510         0.011503   
    146. D(H  26,C  12,C   7,H  13)   -178.0505         0.011503   
    147. D(H  26,C  12,C   7,C  11)    -56.4678         0.011503   
    -----------------------------------------------------------------

Number of atoms                         .... 28
Number of degrees of freedom            .... 147

         *************************************************************
         *                GEOMETRY OPTIMIZATION CYCLE   1            *
         *************************************************************
---------------------------------
CARTESIAN COORDINATES (ANGSTROEM)
---------------------------------
  N     -1.087380   -0.000305    0.079619
  C     -0.000034   -0.004387    0.843826
  N      1.087395    0.000495    0.079786
  H     -0.000153   -0.010747    1.916590
  C      0.680626    0.007945   -1.219551
  C     -0.680505    0.007406   -1.219622
  C     -2.469944   -0.003005    0.546981
  C      2.469963   -0.002216    0.546988
  C     -3.174667    1.264333    0.073557
  H     -2.426098   -0.008405    1.640721
  C     -3.173968   -1.265935    0.060917
  C      3.175760    1.263450    0.070769
  C      3.172738   -1.266916    0.063693
  H      2.426337   -0.005241    1.640750
  H      1.362887    0.013047   -2.043685
  H     -1.362344    0.012064   -2.044134
  H     -3.268765    1.280836   -1.008739
  H     -2.634805    2.152415    0.393343
  H     -4.172339    1.301217    0.500209
  H     -2.635318   -2.157033    0.374377
  H     -3.265525   -1.273110   -1.021723
  H     -4.172667   -1.305950    0.484896
  H      2.639155    2.152860    0.392250
  H      3.266176    1.279568   -1.011787
  H      4.174989    1.298137    0.493920
  H      4.172106   -1.306162    0.486110
  H      3.262385   -1.277399   -1.019053
  H      2.634141   -2.156767    0.380707

----------------------------
CARTESIAN COORDINATES (A.U.)
----------------------------
  NO LB      ZA    FRAG     MASS         X           Y           Z
   0 N     7.0000    0    14.007   -2.054851   -0.000576    0.150458
   1 C     6.0000    0    12.011   -0.000064   -0.008291    1.594601
   2 N     7.0000    0    14.007    2.054879    0.000935    0.150774
   3 H     1.0000    0     1.008   -0.000290   -0.020309    3.621830
   4 C     6.0000    0    12.011    1.286197    0.015014   -2.304618
   5 C     6.0000    0    12.011   -1.285968    0.013994   -2.304751
   6 C     6.0000    0    12.011   -4.667517   -0.005679    1.033644
   7 C     6.0000    0    12.011    4.667554   -0.004188    1.033657
   8 C     6.0000    0    12.011   -5.999250    2.389243    0.139003
   9 H     1.0000    0     1.008   -4.584661   -0.015883    3.100513
  10 C     6.0000    0    12.011   -5.997931   -2.392270    0.115116
  11 C     6.0000    0    12.011    6.001316    2.387575    0.133733
  12 C     6.0000    0    12.011    5.995605   -2.394124    0.120362
  13 H     1.0000    0     1.008    4.585112   -0.009904    3.100568
  14 H     1.0000    0     1.008    2.575483    0.024656   -3.862006
  15 H     1.0000    0     1.008   -2.574458    0.022797   -3.862853
  16 H     1.0000    0     1.008   -6.177070    2.420429   -1.906241
  17 H     1.0000    0     1.008   -4.979060    4.067475    0.743310
  18 H     1.0000    0     1.008   -7.884577    2.458944    0.945259
  19 H     1.0000    0     1.008   -4.980030   -4.076201    0.707470
  20 H     1.0000    0     1.008   -6.170948   -2.405830   -1.930777
  21 H     1.0000    0     1.008   -7.885199   -2.467888    0.916321
  22 H     1.0000    0     1.008    4.987279    4.068317    0.741246
  23 H     1.0000    0     1.008    6.172177    2.418033   -1.912000
  24 H     1.0000    0     1.008    7.889586    2.453123    0.933374
  25 H     1.0000    0     1.008    7.884138   -2.468289    0.918614
  26 H     1.0000    0     1.008    6.165015   -2.413934   -1.925732
  27 H     1.0000    0     1.008    4.977806   -4.075699    0.719432

--------------------------------
INTERNAL COORDINATES (ANGSTROEM)
--------------------------------
 N      0   0   0     0.000000000000     0.00000000     0.00000000
 C      1   0   0     1.329041715240     0.00000000     0.00000000
 N      2   1   0     1.329015738334   109.80648551     0.00000000
 H      2   1   3     1.072782486351   125.09425337   180.00436480
 C      3   2   1     1.361540936583   107.70994654     0.00000000
 C      5   3   2     1.361130828778   107.38576335     0.00000000
 C      1   2   3     1.459422970674   126.22175255   180.02678133
 C      3   2   1     1.459376202792   126.23554323   180.02333418
 C      7   1   2     1.525421244565   109.67783512   118.28905613
 H      7   1   2     1.094631866976   106.38200888     0.03236307
 C      7   1   2     1.525417825786   109.67674847   241.77048830
 C      8   3   2     1.525399883462   109.68556005   241.53310215
 C      8   3   2     1.525428401228   109.66810490   118.04486884
 H      8   3   2     1.094635964970   106.38739845   359.79478854
 H      5   3   2     1.069908280731   122.99789734   179.99862398
 H      6   5   3     1.069928530998   129.59183656   179.99314726
 H      9   7   1     1.086504538190   111.20978612    65.87398970
 H      9   7   1     1.087383689213   110.97122788   304.51412708
 H      9   7   1     1.085698856761   109.31683409   185.20976823
 H     11   7   1     1.087408336220   110.97653709    55.65901269
 H     11   7   1     1.086527672974   111.21458263   294.29062409
 H     11   7   1     1.085707143608   109.30663023   174.95812727
 H     12   8   3     1.087357149377   110.97996659    55.73279280
 H     12   8   3     1.086444108441   111.21638749   294.36318590
 H     12   8   3     1.085688751607   109.31003953   175.03232649
 H     13   8   3     1.085686083116   109.31599008   184.94420293
 H     13   8   3     1.086501343759   111.20727287    65.60440972
 H     13   8   3     1.087391015340   110.97163009   304.24899758

---------------------------
INTERNAL COORDINATES (A.U.)
---------------------------
 N      0   0   0     0.000000000000     0.00000000     0.00000000
 C      1   0   0     2.511524862360     0.00000000     0.00000000
 N      2   1   0     2.511475773122   109.80648551     0.00000000
 H      2   1   3     2.027265100470   125.09425337   180.00436480
 C      3   2   1     2.572939490265   107.70994654     0.00000000
 C      5   3   2     2.572164498828   107.38576335     0.00000000
 C      1   2   3     2.757909728128   126.22175255   180.02678133
 C      3   2   1     2.757821349639   126.23554323   180.02333418
 C      7   1   2     2.882628391093   109.67783512   118.28905613
 H      7   1   2     2.068554446048   106.38200888     0.03236307
 C      7   1   2     2.882621930537   109.67674847   241.77048830
 C      8   3   2     2.882588024459   109.68556005   241.53310215
 C      8   3   2     2.882641915227   109.66810490   118.04486884
 H      8   3   2     2.068562190133   106.38739845   359.79478854
 H      5   3   2     2.021833638996   122.99789734   179.99862398
 H      6   5   3     2.021871906456   129.59183656   179.99314726
 H      9   7   1     2.053196020443   111.20978612    65.87398970
 H      9   7   1     2.054857375106   110.97122788   304.51412708
 H      9   7   1     2.051673503190   109.31683409   185.20976823
 H     11   7   1     2.054903951199   110.97653709    55.65901269
 H     11   7   1     2.053239738847   111.21458263   294.29062409
 H     11   7   1     2.051689163060   109.30663023   174.95812727
 H     12   8   3     2.054807222085   110.97996659    55.73279280
 H     12   8   3     2.053081824766   111.21638749   294.36318590
 H     12   8   3     2.051654407216   109.31003953   175.03232649
 H     13   8   3     2.051649364498   109.31599008   184.94420293
 H     13   8   3     2.053189983842   111.20727287    65.60440972
 H     13   8   3     2.054871219479   110.97163009   304.24899758

---------------------
BASIS SET INFORMATION
---------------------
There are 3 groups of distinct atoms

 Group   1 Type N   : 7s4p1d contracted to 3s2p1d pattern {511/31/1}
 Group   2 Type C   : 7s4p1d contracted to 3s2p1d pattern {511/31/1}
 Group   3 Type H   : 4s1p contracted to 2s1p pattern {31/1}

Atom   0N    basis set group =>   1
Atom   1C    basis set group =>   2
Atom   2N    basis set group =>   1
Atom   3H    basis set group =>   3
Atom   4C    basis set group =>   2
Atom   5C    basis set group =>   2
Atom   6C    basis set group =>   2
Atom   7C    basis set group =>   2
Atom   8C    basis set group =>   2
Atom   9H    basis set group =>   3
Atom  10C    basis set group =>   2
Atom  11C    basis set group =>   2
Atom  12C    basis set group =>   2
Atom  13H    basis set group =>   3
Atom  14H    basis set group =>   3
Atom  15H    basis set group =>   3
Atom  16H    basis set group =>   3
Atom  17H    basis set group =>   3
Atom  18H    basis set group =>   3
Atom  19H    basis set group =>   3
Atom  20H    basis set group =>   3
Atom  21H    basis set group =>   3
Atom  22H    basis set group =>   3
Atom  23H    basis set group =>   3
Atom  24H    basis set group =>   3
Atom  25H    basis set group =>   3
Atom  26H    basis set group =>   3
Atom  27H    basis set group =>   3
---------------------------------
AUXILIARY/J BASIS SET INFORMATION
---------------------------------
There are 3 groups of distinct atoms

 Group   1 Type N   : 12s5p4d2f1g contracted to 6s4p3d1f1g pattern {711111/2111/211/2/1}
 Group   2 Type C   : 12s5p4d2f1g contracted to 6s4p3d1f1g pattern {711111/2111/211/2/1}
 Group   3 Type H   : 5s2p1d contracted to 3s1p1d pattern {311/2/1}

Atom   0N    basis set group =>   1
Atom   1C    basis set group =>   2
Atom   2N    basis set group =>   1
Atom   3H    basis set group =>   3
Atom   4C    basis set group =>   2
Atom   5C    basis set group =>   2
Atom   6C    basis set group =>   2
Atom   7C    basis set group =>   2
Atom   8C    basis set group =>   2
Atom   9H    basis set group =>   3
Atom  10C    basis set group =>   2
Atom  11C    basis set group =>   2
Atom  12C    basis set group =>   2
Atom  13H    basis set group =>   3
Atom  14H    basis set group =>   3
Atom  15H    basis set group =>   3
Atom  16H    basis set group =>   3
Atom  17H    basis set group =>   3
Atom  18H    basis set group =>   3
Atom  19H    basis set group =>   3
Atom  20H    basis set group =>   3
Atom  21H    basis set group =>   3
Atom  22H    basis set group =>   3
Atom  23H    basis set group =>   3
Atom  24H    basis set group =>   3
Atom  25H    basis set group =>   3
Atom  26H    basis set group =>   3
Atom  27H    basis set group =>   3
------------------------------------------------------------------------------
                           ORCA GTO INTEGRAL CALCULATION
                           -- RI-GTO INTEGRALS CHOSEN --
------------------------------------------------------------------------------
------------------------------------------------------------------------------
                   ___                                                        
                  /   \      - P O W E R E D   B Y -                         
                 /     \                                                     
                 |  |  |   _    _      __       _____    __    __             
                 |  |  |  | |  | |    /  \     |  _  \  |  |  /  |          
                  \  \/   | |  | |   /    \    | | | |  |  | /  /          
                 / \  \   | |__| |  /  /\  \   | |_| |  |  |/  /          
                |  |  |   |  __  | /  /__\  \  |    /   |      \           
                |  |  |   | |  | | |   __   |  |    \   |  |\   \          
                \     /   | |  | | |  |  |  |  | |\  \  |  | \   \       
                 \___/    |_|  |_| |__|  |__|  |_| \__\ |__|  \__/        
                                                                              
                      - O R C A' S   B I G   F R I E N D -                    
                                      &                                       
                       - I N T E G R A L  F E E D E R -                       
                                                                              
 v1 FN, 2020, v2 2021                                                         
------------------------------------------------------------------------------


Reading SHARK input file 4_prot_aq_1.SHARKINP.tmp ... ok
----------------------
SHARK INTEGRAL PACKAGE
----------------------

Number of atoms                             ...     28
Number of basis functions                   ...    239
Number of shells                            ...    117
Maximum angular momentum                    ...      2
Integral batch strategy                     ... SHARK/LIBINT Hybrid
RI-J (if used) integral strategy            ... SPLIT-RIJ (Revised 2003 algorithm where possible)
Printlevel                                  ...      1
Contraction scheme used                     ... SEGMENTED contraction
Coulomb Range Separation                    ... NOT USED
Exchange Range Separation                   ... Long Range
   Mu parameter                             ...  0.300000
   Scaling (regular/separated)              ...  0.157706  0.842294
Finite Nucleus Model                        ... NOT USED
Auxiliary Coulomb fitting basis             ... AVAILABLE
   # of basis functions in Aux-J            ...    726
   # of shells in Aux-J                     ...    250
   Maximum angular momentum in Aux-J        ...      4
Auxiliary J/K fitting basis                 ... NOT available
Auxiliary Correlation fitting basis         ... NOT available
Auxiliary 'external' fitting basis          ... NOT available
Integral threshold                          ...     2.500000e-11
Primitive cut-off                           ...     2.500000e-12
Primitive pair pre-selection threshold      ...     2.500000e-12

Calculating pre-screening integrals         ... done (  0.0 sec) Dimension = 117
Organizing shell pair data                  ... done (  0.0 sec)
Shell pair information
Total number of shell pairs                 ...      6903
Shell pairs after pre-screening             ...      6015
Total number of primitive shell pairs       ...     23847
Primitive shell pairs kept                  ...     14787
          la=0 lb=0:   2042 shell pairs
          la=1 lb=0:   2273 shell pairs
          la=1 lb=1:    653 shell pairs
          la=2 lb=0:    635 shell pairs
          la=2 lb=1:    355 shell pairs
          la=2 lb=2:     57 shell pairs

Calculating one electron integrals          ... done (  0.0 sec)
Calculating RI/J V-Matrix + Cholesky decomp.... done (  0.0 sec)
Calculating Nuclear repulsion               ... done (  0.0 sec) ENN=    651.095912223217 Eh

SHARK setup successfully completed in   0.3 seconds

Maximum memory used throughout the entire GTOINT-calculation: 36.3 MB
-------------------------------------------------------------------------------
                                 ORCA SCF
-------------------------------------------------------------------------------

------------
SCF SETTINGS
------------
Hamiltonian:
 Density Functional     Method          .... DFT(GTOs)
 Exchange Functional    Exchange        .... WB97X
 Correlation Functional Correlation     .... WB97X
 Gradients option       PostSCFGGA      .... off
 Hybrid DFT is turned on
   Fraction HF Exchange ScalHFX         ....  0.157706
   Scaling of DF-GGA-X  ScalDFX         ....  0.000000
   Scaling of DF-GGA-C  ScalDFC         ....  1.000000
   Scaling of DF-LDA-C  ScalLDAC        ....  1.000000
   Perturbative correction              ....  0.000000
   Density functional embedding theory  .... OFF
 Long-range corrected/Screened/Range-Separated Hybrid DFT is turned on
   Amount of maximum screened exact exchange              ....  0.842294
   Range separation parameter mu (erf(mu*r12)/r12)        ....  0.300000
 RI-approximation to the Coulomb term is turned on
   Number of AuxJ basis functions       .... 726
   RIJ-COSX (HFX calculated with COS-X)).... on


General Settings:
 Integral files         IntName         .... 4_prot_aq_1
 Hartree-Fock type      HFTyp           .... RHF
 Total Charge           Charge          ....    1
 Multiplicity           Mult            ....    1
 Number of Electrons    NEL             ....   84
 Basis Dimension        Dim             ....  239
 Nuclear Repulsion      ENuc            ....    651.0959122232 Eh

Convergence Acceleration:
 DIIS                   CNVDIIS         .... on
   Start iteration      DIISMaxIt       ....     0
   Startup error        DIISStart       ....  0.200000
   # of expansion vecs  DIISMaxEq       ....     5
   Bias factor          DIISBfac        ....   1.050
   Max. coefficient     DIISMaxC        ....  10.000
 Trust-Rad. Augm. Hess. CNVTRAH         .... auto
   Auto Start mean grad. ratio tolernc. ....  1.125000
   Auto Start start iteration           ....    20
   Auto Start num. interpolation iter.  ....    10
   Max. Number of Micro iterations      ....    16
   Max. Number of Macro iterations      .... Maxiter - #DIIS iter
   Number of Davidson start vectors     ....     2
   Converg. threshold I  (grad. norm)   ....   1.000e-05
   Converg. threshold II (energy diff.) ....   1.000e-08
   Grad. Scal. Fac. for Micro threshold ....   0.100
   Minimum threshold for Micro iter.    ....   0.010
   NR start threshold (gradient norm)   ....   0.001
   Initial trust radius                 ....   0.400
   Minimum AH scaling param. (alpha)    ....   1.000
   Maximum AH scaling param. (alpha)    .... 1000.000
   Orbital update algorithm             .... Taylor
   White noise on init. David. guess    .... on
   Maximum white noise                  ....   0.010
   Quad. conv. algorithm                .... NR
 SOSCF                  CNVSOSCF        .... on
   Start iteration      SOSCFMaxIt      ....   150
   Startup grad/error   SOSCFStart      ....  0.001000
 Level Shifting         CNVShift        .... on
   Level shift para.    LevelShift      ....    0.2500
   Turn off err/grad.   ShiftErr        ....    0.0000
 Zerner damping         CNVZerner       .... off
 Static damping         CNVDamp         .... on
   Fraction old density DampFac         ....    0.8500
   Max. Damping (<1)    DampMax         ....    0.9800
   Min. Damping (>=0)   DampMin         ....    0.0000
   Turn off err/grad.   DampErr         ....    0.0300
 Fernandez-Rico         CNVRico         .... off

SCF Procedure:
 Maximum # iterations   MaxIter         ....   125
 SCF integral mode      SCFMode         .... Direct
   Integral package                     .... SHARK and LIBINT hybrid scheme
 Reset frequency        DirectResetFreq ....    20
 Integral Threshold     Thresh          ....  2.500e-11 Eh
 Primitive CutOff       TCut            ....  2.500e-12 Eh

Convergence Tolerance:
 Convergence Check Mode ConvCheckMode   .... Total+1el-Energy
 Convergence forced     ConvForced      .... 0
 Energy Change          TolE            ....  1.000e-08 Eh
 1-El. energy change                    ....  1.000e-05 Eh
 Orbital Gradient       TolG            ....  1.000e-05
 Orbital Rotation angle TolX            ....  1.000e-05
 DIIS Error             TolErr          ....  5.000e-07


Diagonalization of the overlap matrix:
Smallest eigenvalue                        ... 1.145e-03
Time for diagonalization                   ...    0.010 sec
Threshold for overlap eigenvalues          ... 1.000e-08
Number of eigenvalues below threshold      ... 0
Time for construction of square roots      ...    0.005 sec
Total time needed                          ...    0.015 sec

Time for model grid setup =    0.474 sec

------------------------------
INITIAL GUESS: MODEL POTENTIAL
------------------------------
Loading Hartree-Fock densities                     ... done
Calculating cut-offs                               ... done
Initializing the effective Hamiltonian             ... done
Setting up the integral package (SHARK)            ... done
Starting the Coulomb interaction                   ... done (   0.5 sec)
Reading the grid                                   ... done
Mapping shells                                     ... done
Starting the XC term evaluation                    ... done (   0.6 sec)
  promolecular density results
     # of electrons  =     84.984008819
     EX              =    -64.259803451
     EC              =     -2.820872466
     EX+EC           =    -67.080675917
Transforming the Hamiltonian                       ... done (   0.0 sec)
Diagonalizing the Hamiltonian                      ... done (   0.0 sec)
Back transforming the eigenvectors                 ... done (   0.0 sec)
Now organizing SCF variables                       ... done
                      ------------------
                      INITIAL GUESS DONE (   1.5 sec)
                      ------------------
-------------------
DFT GRID GENERATION
-------------------

General Integration Accuracy     IntAcc      ... 4.388
Radial Grid Type                 RadialGrid  ... OptM3 with GC (2021)
Angular Grid (max. ang.)         AngularGrid ... 4 (Lebedev-302)
Angular grid pruning method      GridPruning ... 4 (adaptive)
Weight generation scheme         WeightScheme... Becke
Basis function cutoff            BFCut       ... 1.0000e-11
Integration weight cutoff        WCut        ... 1.0000e-14
Angular grids for H and He will be reduced by one unit
Partially contracted basis set               ... off
Rotationally invariant grid construction     ... off

Total number of grid points                  ...   120036
Total number of batches                      ...     1892
Average number of points per batch           ...       63
Average number of grid points per atom       ...     4287
Time for grid setup =    1.849 sec

--------------------
COSX GRID GENERATION
--------------------

GRIDX 1
-------
General Integration Accuracy     IntAcc      ... 3.816
Radial Grid Type                 RadialGrid  ... OptM3 with GC (2021)
Angular Grid (max. ang.)         AngularGrid ... 1 (Lebedev-50)
Angular grid pruning method      GridPruning ... 4 (adaptive)
Weight generation scheme         WeightScheme... Becke
Basis function cutoff            BFCut       ... 1.0000e-11
Integration weight cutoff        WCut        ... 1.0000e-14
Angular grids for H and He will be reduced by one unit
Partially contracted basis set               ... on
Rotationally invariant grid construction     ... off

Total number of grid points                  ...    15317
Total number of batches                      ...      255
Average number of points per batch           ...       60
Average number of grid points per atom       ...      547
UseSFitting                                  ... on

GRIDX 2
-------
General Integration Accuracy     IntAcc      ... 4.020
Radial Grid Type                 RadialGrid  ... OptM3 with GC (2021)
Angular Grid (max. ang.)         AngularGrid ... 2 (Lebedev-110)
Angular grid pruning method      GridPruning ... 4 (adaptive)
Weight generation scheme         WeightScheme... Becke
Basis function cutoff            BFCut       ... 1.0000e-11
Integration weight cutoff        WCut        ... 1.0000e-14
Angular grids for H and He will be reduced by one unit
Partially contracted basis set               ... on
Rotationally invariant grid construction     ... off

Total number of grid points                  ...    32071
Total number of batches                      ...      514
Average number of points per batch           ...       62
Average number of grid points per atom       ...     1145
UseSFitting                                  ... on

GRIDX 3
-------
General Integration Accuracy     IntAcc      ... 4.338
Radial Grid Type                 RadialGrid  ... OptM3 with GC (2021)
Angular Grid (max. ang.)         AngularGrid ... 3 (Lebedev-194)
Angular grid pruning method      GridPruning ... 4 (adaptive)
Weight generation scheme         WeightScheme... Becke
Basis function cutoff            BFCut       ... 1.0000e-11
Integration weight cutoff        WCut        ... 1.0000e-14
Angular grids for H and He will be reduced by one unit
Partially contracted basis set               ... on
Rotationally invariant grid construction     ... off

Total number of grid points                  ...    69850
Total number of batches                      ...     1105
Average number of points per batch           ...       63
Average number of grid points per atom       ...     2495
UseSFitting                                  ... on

Time for X-Grid setup             =    2.349 sec


--------------------
CPCM SOLVATION MODEL
--------------------
CPCM parameters:
  Epsilon                                         ...      80.4000
  Refrac                                          ...       1.3300
  Rsolv                                           ...       1.3000
  Surface type                                    ... GAUSSIAN VDW
  Epsilon function type                           ...         CPCM
Radii:
 Radius for N  used is    3.5149 Bohr (=   1.8600 Ang.)
 Radius for C  used is    3.8550 Bohr (=   2.0400 Ang.)
 Radius for H  used is    2.4944 Bohr (=   1.3200 Ang.)
Calculating surface                               ...        done! (  0.0s)
GEPOL surface points                              ...         1500
GEPOL Volume                                      ...    1427.4568
GEPOL Surface-area                                ...     791.8997
Calculating surface distance matrix               ...        done! (  0.0s)
Performing Cholesky decomposition & store         ...        done! (  0.1s)
Overall time for CPCM initialization              ...                 0.1s
--------------
SCF ITERATIONS
--------------
ITER       Energy         Delta-E        Max-DP      RMS-DP      [F,P]     Damp
               ***  Starting incremental Fock matrix formation  ***
  0   -461.9128107324   0.000000000000 0.03340541  0.00064393  0.1488780 0.8500
  1   -461.9577822229  -0.044971490481 0.03004945  0.00060357  0.1197740 0.8500
                               ***Turning on DIIS***
  2   -461.9918735945  -0.034091371574 0.02352249  0.00049129  0.0917850 0.8500
  3   -462.0171271051  -0.025253510568 0.01469774  0.00034908  0.0694365 0.8500
  4   -462.0365588796  -0.019431774527 0.00986448  0.00026749  0.0552317 0.8500
  5   -462.0518300554  -0.015271175841 0.00749190  0.00021926  0.0456570 0.8500
  6   -462.0642217775  -0.012391722058 0.00606763  0.00018474  0.0384032 0.8500
  7   -462.0744628967  -0.010241119190 0.00517473  0.00015868  0.0325286 0.8500
  8   -462.0830198460  -0.008556949348 0.02942365  0.00090888  0.0275105 0.0000
  9   -462.1289077529  -0.045887906878 0.00134984  0.00003274  0.0011902 0.0000
                      *** Initiating the SOSCF procedure ***
                           *** Shutting down DIIS ***
                      *** Re-Reading the Fockian *** 
                      *** Removing any level shift *** 
ITER      Energy       Delta-E        Grad      Rot      Max-DP    RMS-DP
 10   -462.12892550  -0.0000177505  0.000161  0.000161  0.000415  0.000012
               *** Restarting incremental Fock matrix formation ***
 11   -462.12900669  -0.0000811870  0.000066  0.000122  0.000319  0.000009
 12   -462.12900698  -0.0000002905  0.000061  0.000132  0.000140  0.000004
 13   -462.12900704  -0.0000000608  0.000021  0.000022  0.000032  0.000001
 14   -462.12900705  -0.0000000087  0.000003  0.000005  0.000008  0.000000
 15   -462.12900705   0.0000000018  0.000003  0.000005  0.000004  0.000000
                  ***Gradient check signals convergence***
              ***Rediagonalizing the Fockian in SOSCF/NRSCF***

               *****************************************************
               *                     SUCCESS                       *
               *           SCF CONVERGED AFTER  16 CYCLES          *
               *****************************************************

Old exchange energy                            =    -21.420708620 Eh
New exchange energy                            =    -21.420744131 Eh
Exchange energy change after final integration =     -0.000035510 Eh
Total energy after final integration           =   -462.129042561 Eh
Final COS-X integration done in                =    59.171 sec

----------------
TOTAL SCF ENERGY
----------------

Total Energy       :         -462.12904256 Eh          -12575.17056 eV

Components:
Nuclear Repulsion  :          651.09591222 Eh           17717.22050 eV
Electronic Energy  :        -1113.22495478 Eh          -30292.39106 eV
One Electron Energy:        -1898.60798804 Eh          -51663.74989 eV
Two Electron Energy:          785.38303326 Eh           21371.35883 eV
Max COSX asymmetry :            0.00000238 Eh               0.00006 eV
CPCM Dielectric    :           -0.07873244 Eh              -2.14242 eV

Virial components:
Potential Energy   :         -918.96788335 Eh          -25006.38741 eV
Kinetic Energy     :          456.83884079 Eh           12431.21685 eV
Virial Ratio       :            2.01158002


DFT components:
N(Alpha)           :       41.999935618414 electrons
N(Beta)            :       41.999935618414 electrons
N(Total)           :       83.999871236828 electrons
E(XC)              :      -47.266509714801 Eh       
DFET-embed. en.    :        0.000000000000 Eh       
CPCM Solvation Model Properties:
Surface-charge          :           -1.02100295
Charge-correction       :            0.00285491 Eh               0.07769 eV
Free-energy (cav+disp)  :  This term is not implemented in the current solvation scheme

---------------
SCF CONVERGENCE
---------------

  Last Energy change         ...   -2.2933e-09  Tolerance :   1.0000e-08
  Last MAX-Density change    ...    4.1110e-15  Tolerance :   1.0000e-07
  Last RMS-Density change    ...    3.5524e-17  Tolerance :   5.0000e-09
  Last Orbital Gradient      ...    6.5050e-07  Tolerance :   1.0000e-05
  Last Orbital Rotation      ...    2.1590e-06  Tolerance :   1.0000e-05

             **** THE GBW FILE WAS UPDATED (4_prot_aq_1.gbw) ****
             **** DENSITY 4_prot_aq_1.scfp WAS UPDATED ****
             **** ENERGY FILE WAS UPDATED (4_prot_aq_1.en.tmp) ****
             **** THE GBW FILE WAS UPDATED (4_prot_aq_1.gbw) ****
             **** DENSITY 4_prot_aq_1.scfp WAS UPDATED ****
----------------
ORBITAL ENERGIES
----------------

  NO   OCC          E(Eh)            E(eV) 
   0   2.0000     -14.510748      -394.8575 
   1   2.0000     -14.510727      -394.8569 
   2   2.0000     -10.381873      -282.5051 
   3   2.0000     -10.335987      -281.2565 
   4   2.0000     -10.335959      -281.2557 
   5   2.0000     -10.331165      -281.1253 
   6   2.0000     -10.330593      -281.1097 
   7   2.0000     -10.270360      -279.4707 
   8   2.0000     -10.270358      -279.4706 
   9   2.0000     -10.270352      -279.4705 
  10   2.0000     -10.270344      -279.4703 
  11   2.0000      -1.222992       -33.2793 
  12   2.0000      -1.104934       -30.0668 
  13   2.0000      -0.969125       -26.3712 
  14   2.0000      -0.923072       -25.1181 
  15   2.0000      -0.915221       -24.9044 
  16   2.0000      -0.824628       -22.4393 
  17   2.0000      -0.823926       -22.4202 
  18   2.0000      -0.800614       -21.7858 
  19   2.0000      -0.796926       -21.6855 
  20   2.0000      -0.738424       -20.0935 
  21   2.0000      -0.716099       -19.4860 
  22   2.0000      -0.670381       -18.2420 
  23   2.0000      -0.632925       -17.2228 
  24   2.0000      -0.622853       -16.9487 
  25   2.0000      -0.589710       -16.0468 
  26   2.0000      -0.589277       -16.0350 
  27   2.0000      -0.573914       -15.6170 
  28   2.0000      -0.563817       -15.3422 
  29   2.0000      -0.561247       -15.2723 
  30   2.0000      -0.558491       -15.1973 
  31   2.0000      -0.520305       -14.1582 
  32   2.0000      -0.506345       -13.7783 
  33   2.0000      -0.504053       -13.7160 
  34   2.0000      -0.499361       -13.5883 
  35   2.0000      -0.492837       -13.4108 
  36   2.0000      -0.473774       -12.8921 
  37   2.0000      -0.463724       -12.6186 
  38   2.0000      -0.462327       -12.5806 
  39   2.0000      -0.458324       -12.4716 
  40   2.0000      -0.414497       -11.2790 
  41   2.0000      -0.374207       -10.1827 
  42   0.0000       0.062953         1.7130 
  43   0.0000       0.094437         2.5698 
  44   0.0000       0.143192         3.8965 
  45   0.0000       0.147610         4.0167 
  46   0.0000       0.166144         4.5210 
  47   0.0000       0.171436         4.6650 
  48   0.0000       0.174219         4.7407 
  49   0.0000       0.197418         5.3720 
  50   0.0000       0.202140         5.5005 
  51   0.0000       0.205228         5.5845 
  52   0.0000       0.212579         5.7846 
  53   0.0000       0.219136         5.9630 
  54   0.0000       0.233067         6.3421 
  55   0.0000       0.248358         6.7582 
  56   0.0000       0.250391         6.8135 
  57   0.0000       0.256037         6.9671 
  58   0.0000       0.264777         7.2050 
  59   0.0000       0.267236         7.2719 
  60   0.0000       0.267350         7.2750 
  61   0.0000       0.267755         7.2860 
  62   0.0000       0.276303         7.5186 
  63   0.0000       0.279022         7.5926 
  64   0.0000       0.300899         8.1879 
  65   0.0000       0.308168         8.3857 
  66   0.0000       0.327357         8.9078 
  67   0.0000       0.328213         8.9311 
  68   0.0000       0.329418         8.9639 
  69   0.0000       0.349763         9.5175 
  70   0.0000       0.408435        11.1141 
  71   0.0000       0.414937        11.2910 
  72   0.0000       0.455311        12.3896 
  73   0.0000       0.477580        12.9956 
  74   0.0000       0.480985        13.0883 
  75   0.0000       0.502490        13.6734 
  76   0.0000       0.507196        13.8015 
  77   0.0000       0.508042        13.8245 
  78   0.0000       0.516274        14.0485 
  79   0.0000       0.533387        14.5142 
  80   0.0000       0.542627        14.7656 
  81   0.0000       0.553123        15.0512 
  82   0.0000       0.608658        16.5624 
  83   0.0000       0.612009        16.6536 
  84   0.0000       0.623179        16.9576 
  85   0.0000       0.647545        17.6206 
  86   0.0000       0.665807        18.1175 
  87   0.0000       0.673144        18.3172 
  88   0.0000       0.682780        18.5794 
  89   0.0000       0.699188        19.0259 
  90   0.0000       0.707835        19.2612 
  91   0.0000       0.714768        19.4498 
  92   0.0000       0.730958        19.8904 
  93   0.0000       0.731613        19.9082 
  94   0.0000       0.734299        19.9813 
  95   0.0000       0.740638        20.1538 
  96   0.0000       0.757465        20.6117 
  97   0.0000       0.759205        20.6590 
  98   0.0000       0.766077        20.8460 
  99   0.0000       0.769658        20.9435 
 100   0.0000       0.778484        21.1836 
 101   0.0000       0.779920        21.2227 
 102   0.0000       0.783124        21.3099 
 103   0.0000       0.790184        21.5020 
 104   0.0000       0.793496        21.5921 
 105   0.0000       0.802597        21.8398 
 106   0.0000       0.806972        21.9588 
 107   0.0000       0.810406        22.0523 
 108   0.0000       0.814192        22.1553 
 109   0.0000       0.819216        22.2920 
 110   0.0000       0.822492        22.3811 
 111   0.0000       0.829247        22.5650 
 112   0.0000       0.830556        22.6006 
 113   0.0000       0.841207        22.8904 
 114   0.0000       0.849401        23.1134 
 115   0.0000       0.863715        23.5029 
 116   0.0000       0.897332        24.4176 
 117   0.0000       0.931828        25.3563 
 118   0.0000       0.965109        26.2620 
 119   0.0000       1.038522        28.2596 
 120   0.0000       1.042843        28.3772 
 121   0.0000       1.059346        28.8263 
 122   0.0000       1.081612        29.4322 
 123   0.0000       1.133783        30.8518 
 124   0.0000       1.137290        30.9472 
 125   0.0000       1.155507        31.4429 
 126   0.0000       1.169514        31.8241 
 127   0.0000       1.196822        32.5672 
 128   0.0000       1.198543        32.6140 
 129   0.0000       1.240197        33.7475 
 130   0.0000       1.253069        34.0977 
 131   0.0000       1.272397        34.6237 
 132   0.0000       1.335723        36.3469 
 133   0.0000       1.336419        36.3658 
 134   0.0000       1.346976        36.6531 
 135   0.0000       1.391456        37.8634 
 136   0.0000       1.394350        37.9422 
 137   0.0000       1.433749        39.0143 
 138   0.0000       1.452907        39.5356 
 139   0.0000       1.453969        39.5645 
 140   0.0000       1.475217        40.1427 
 141   0.0000       1.486140        40.4399 
 142   0.0000       1.547033        42.0969 
 143   0.0000       1.620587        44.0984 
 144   0.0000       1.634767        44.4843 
 145   0.0000       1.650567        44.9142 
 146   0.0000       1.651163        44.9304 
 147   0.0000       1.651471        44.9388 
 148   0.0000       1.657673        45.1076 
 149   0.0000       1.668827        45.4111 
 150   0.0000       1.765562        48.0434 
 151   0.0000       1.776324        48.3362 
 152   0.0000       1.793502        48.8037 
 153   0.0000       1.807051        49.1723 
 154   0.0000       1.813770        49.3552 
 155   0.0000       1.820681        49.5433 
 156   0.0000       1.843178        50.1554 
 157   0.0000       1.853198        50.4281 
 158   0.0000       1.861904        50.6650 
 159   0.0000       1.884105        51.2691 
 160   0.0000       1.902243        51.7627 
 161   0.0000       1.906179        51.8698 
 162   0.0000       1.914349        52.0921 
 163   0.0000       1.920569        52.2613 
 164   0.0000       1.920861        52.2693 
 165   0.0000       1.934307        52.6352 
 166   0.0000       1.940973        52.8166 
 167   0.0000       1.950468        53.0749 
 168   0.0000       1.956474        53.2384 
 169   0.0000       1.960959        53.3604 
 170   0.0000       1.971081        53.6358 
 171   0.0000       1.977483        53.8100 
 172   0.0000       1.977920        53.8219 
 173   0.0000       1.982913        53.9578 
 174   0.0000       1.986220        54.0478 
 175   0.0000       1.991170        54.1825 
 176   0.0000       2.016208        54.8638 
 177   0.0000       2.027680        55.1760 
 178   0.0000       2.030294        55.2471 
 179   0.0000       2.047656        55.7196 
 180   0.0000       2.070173        56.3323 
 181   0.0000       2.078426        56.5568 
 182   0.0000       2.091461        56.9115 
 183   0.0000       2.144334        58.3503 
 184   0.0000       2.148651        58.4678 
 185   0.0000       2.169497        59.0350 
 186   0.0000       2.189600        59.5820 
 187   0.0000       2.252293        61.2880 
 188   0.0000       2.257597        61.4323 
 189   0.0000       2.269336        61.7518 
 190   0.0000       2.284588        62.1668 
 191   0.0000       2.348312        63.9008 
 192   0.0000       2.360667        64.2370 
 193   0.0000       2.365600        64.3712 
 194   0.0000       2.376530        64.6687 
 195   0.0000       2.445458        66.5443 
 196   0.0000       2.449540        66.6554 
 197   0.0000       2.465710        67.0954 
 198   0.0000       2.498238        67.9805 
 199   0.0000       2.511092        68.3303 
 200   0.0000       2.519317        68.5541 
 201   0.0000       2.534469        68.9664 
 202   0.0000       2.552424        69.4550 
 203   0.0000       2.565373        69.8073 
 204   0.0000       2.595641        70.6310 
 205   0.0000       2.597577        70.6837 
 206   0.0000       2.608485        70.9805 
 207   0.0000       2.614835        71.1533 
 208   0.0000       2.665864        72.5419 
 209   0.0000       2.676589        72.8337 
 210   0.0000       2.690594        73.2148 
 211   0.0000       2.698782        73.4376 
 212   0.0000       2.790919        75.9448 
 213   0.0000       2.807817        76.4046 
 214   0.0000       2.818491        76.6950 
 215   0.0000       2.834387        77.1276 
 216   0.0000       2.856992        77.7427 
 217   0.0000       2.876926        78.2851 
 218   0.0000       2.919110        79.4330 
 219   0.0000       2.936643        79.9101 
 220   0.0000       2.964595        80.6707 
 221   0.0000       2.966947        80.7347 
 222   0.0000       2.984047        81.2001 
 223   0.0000       2.990652        81.3798 
 224   0.0000       2.999910        81.6317 
 225   0.0000       3.026078        82.3438 
 226   0.0000       3.030131        82.4541 
 227   0.0000       3.034477        82.5723 
 228   0.0000       3.067045        83.4585 
 229   0.0000       3.089260        84.0630 
 230   0.0000       3.130851        85.1948 
 231   0.0000       3.138708        85.4086 
 232   0.0000       3.143901        85.5499 
 233   0.0000       3.150598        85.7321 
 234   0.0000       3.164240        86.1033 
 235   0.0000       3.299434        89.7822 
 236   0.0000       3.480867        94.7192 
 237   0.0000       3.601863        98.0117 
 238   0.0000       3.631928        98.8298 

                    ********************************
                    * MULLIKEN POPULATION ANALYSIS *
                    ********************************

-----------------------
MULLIKEN ATOMIC CHARGES
-----------------------
   0 N :   -0.169099
   1 C :    0.223771
   2 N :   -0.169075
   3 H :    0.125287
   4 C :    0.062856
   5 C :    0.062966
   6 C :   -0.062997
   7 C :   -0.063036
   8 C :    0.006153
   9 H :    0.076005
  10 C :    0.006307
  11 C :    0.006104
  12 C :    0.006445
  13 H :    0.076005
  14 H :    0.093464
  15 H :    0.093426
  16 H :    0.045831
  17 H :    0.052058
  18 H :    0.058522
  19 H :    0.052063
  20 H :    0.045839
  21 H :    0.058460
  22 H :    0.052120
  23 H :    0.045813
  24 H :    0.058469
  25 H :    0.058439
  26 H :    0.045775
  27 H :    0.052029
Sum of atomic charges:    1.0000000

--------------------------------
MULLIKEN REDUCED ORBITAL CHARGES
--------------------------------
  0 N s       :     3.378859  s :     3.378859
      pz      :     1.144391  p :     3.756339
      px      :     1.157057
      py      :     1.454891
      dz2     :     0.006701  d :     0.033901
      dxz     :     0.010741
      dyz     :     0.006642
      dx2y2   :     0.004097
      dxy     :     0.005720
  1 C s       :     3.093250  s :     3.093250
      pz      :     0.913464  p :     2.615102
      px      :     0.770085
      py      :     0.931552
      dz2     :     0.012968  d :     0.067878
      dxz     :     0.022471
      dyz     :     0.006448
      dx2y2   :     0.009299
      dxy     :     0.016692
  2 N s       :     3.378854  s :     3.378854
      pz      :     1.144451  p :     3.756320
      px      :     1.156983
      py      :     1.454885
      dz2     :     0.006702  d :     0.033901
      dxz     :     0.010740
      dyz     :     0.006641
      dx2y2   :     0.004097
      dxy     :     0.005721
  3 H s       :     0.849780  s :     0.849780
      pz      :     0.019173  p :     0.024932
      px      :     0.001342
      py      :     0.004417
  4 C s       :     3.145563  s :     3.145563
      pz      :     0.796196  p :     2.743200
      px      :     0.912381
      py      :     1.034624
      dz2     :     0.014902  d :     0.048381
      dxz     :     0.013029
      dyz     :     0.008090
      dx2y2   :     0.004874
      dxy     :     0.007487
  5 C s       :     3.145498  s :     3.145498
      pz      :     0.796200  p :     2.743150
      px      :     0.912366
      py      :     1.034584
      dz2     :     0.014903  d :     0.048385
      dxz     :     0.013029
      dyz     :     0.008091
      dx2y2   :     0.004874
      dxy     :     0.007488
  6 C s       :     3.121986  s :     3.121986
      pz      :     1.065200  p :     2.884650
      px      :     0.773086
      py      :     1.046364
      dz2     :     0.012057  d :     0.056361
      dxz     :     0.007938
      dyz     :     0.006740
      dx2y2   :     0.017504
      dxy     :     0.012122
  7 C s       :     3.121987  s :     3.121987
      pz      :     1.065249  p :     2.884685
      px      :     0.773100
      py      :     1.046336
      dz2     :     0.012061  d :     0.056364
      dxz     :     0.007932
      dyz     :     0.006743
      dx2y2   :     0.017509
      dxy     :     0.012120
  8 C s       :     2.992051  s :     2.992051
      pz      :     1.021495  p :     2.975469
      px      :     1.010280
      py      :     0.943694
      dz2     :     0.008136  d :     0.026327
      dxz     :     0.003477
      dyz     :     0.003289
      dx2y2   :     0.005639
      dxy     :     0.005786
  9 H s       :     0.902658  s :     0.902658
      pz      :     0.016062  p :     0.021337
      px      :     0.001938
      py      :     0.003336
 10 C s       :     2.991963  s :     2.991963
      pz      :     1.021030  p :     2.975403
      px      :     1.010237
      py      :     0.944136
      dz2     :     0.008170  d :     0.026327
      dxz     :     0.003458
      dyz     :     0.003275
      dx2y2   :     0.005655
      dxy     :     0.005769
 11 C s       :     2.992016  s :     2.992016
      pz      :     1.021375  p :     2.975551
      px      :     1.010194
      py      :     0.943983
      dz2     :     0.008151  d :     0.026329
      dxz     :     0.003447
      dyz     :     0.003303
      dx2y2   :     0.005665
      dxy     :     0.005764
 12 C s       :     2.991914  s :     2.991914
      pz      :     1.021104  p :     2.975311
      px      :     1.010233
      py      :     0.943974
      dz2     :     0.008169  d :     0.026329
      dxz     :     0.003440
      dyz     :     0.003292
      dx2y2   :     0.005666
      dxy     :     0.005762
 13 H s       :     0.902659  s :     0.902659
      pz      :     0.016062  p :     0.021336
      px      :     0.001939
      py      :     0.003335
 14 H s       :     0.881229  s :     0.881229
      pz      :     0.011626  p :     0.025308
      px      :     0.008784
      py      :     0.004897
 15 H s       :     0.881268  s :     0.881268
      pz      :     0.011635  p :     0.025307
      px      :     0.008775
      py      :     0.004896
 16 H s       :     0.929567  s :     0.929567
      pz      :     0.015686  p :     0.024602
      px      :     0.004887
      py      :     0.004029
 17 H s       :     0.923693  s :     0.923693
      pz      :     0.005713  p :     0.024249
      px      :     0.007149
      py      :     0.011387
 18 H s       :     0.916728  s :     0.916728
      pz      :     0.006576  p :     0.024750
      px      :     0.013932
      py      :     0.004242
 19 H s       :     0.923690  s :     0.923690
      pz      :     0.005669  p :     0.024246
      px      :     0.007138
      py      :     0.011439
 20 H s       :     0.929560  s :     0.929560
      pz      :     0.015691  p :     0.024601
      px      :     0.004882
      py      :     0.004029
 21 H s       :     0.916789  s :     0.916789
      pz      :     0.006547  p :     0.024751
      px      :     0.013952
      py      :     0.004252
 22 H s       :     0.923632  s :     0.923632
      pz      :     0.005721  p :     0.024249
      px      :     0.007118
      py      :     0.011410
 23 H s       :     0.929578  s :     0.929578
      pz      :     0.015694  p :     0.024609
      px      :     0.004881
      py      :     0.004034
 24 H s       :     0.916779  s :     0.916779
      pz      :     0.006549  p :     0.024752
      px      :     0.013962
      py      :     0.004241
 25 H s       :     0.916810  s :     0.916810
      pz      :     0.006538  p :     0.024751
      px      :     0.013966
      py      :     0.004247
 26 H s       :     0.929622  s :     0.929622
      pz      :     0.015694  p :     0.024603
      px      :     0.004879
      py      :     0.004030
 27 H s       :     0.923724  s :     0.923724
      pz      :     0.005691  p :     0.024247
      px      :     0.007139
      py      :     0.011417


                     *******************************
                     * LOEWDIN POPULATION ANALYSIS *
                     *******************************

----------------------
LOEWDIN ATOMIC CHARGES
----------------------
   0 N :    0.110405
   1 C :    0.128540
   2 N :    0.110419
   3 H :    0.063901
   4 C :    0.020316
   5 C :    0.020319
   6 C :    0.041782
   7 C :    0.041769
   8 C :   -0.048570
   9 H :    0.048988
  10 C :   -0.048567
  11 C :   -0.048551
  12 C :   -0.048549
  13 H :    0.048988
  14 H :    0.054522
  15 H :    0.054549
  16 H :    0.033558
  17 H :    0.035780
  18 H :    0.043112
  19 H :    0.035782
  20 H :    0.033565
  21 H :    0.043095
  22 H :    0.035798
  23 H :    0.033548
  24 H :    0.043108
  25 H :    0.043067
  26 H :    0.033551
  27 H :    0.035774

-------------------------------
LOEWDIN REDUCED ORBITAL CHARGES
-------------------------------
  0 N s       :     3.043494  s :     3.043494
      pz      :     1.200996  p :     3.768165
      px      :     1.191795
      py      :     1.375374
      dz2     :     0.017908  d :     0.077935
      dxz     :     0.028017
      dyz     :     0.012931
      dx2y2   :     0.009509
      dxy     :     0.009571
  1 C s       :     2.832529  s :     2.832529
      pz      :     1.026754  p :     2.880049
      px      :     0.896044
      py      :     0.957252
      dz2     :     0.030532  d :     0.158882
      dxz     :     0.059571
      dyz     :     0.010153
      dx2y2   :     0.023901
      dxy     :     0.034725
  2 N s       :     3.043489  s :     3.043489
      pz      :     1.201016  p :     3.768157
      px      :     1.191782
      py      :     1.375359
      dz2     :     0.017909  d :     0.077934
      dxz     :     0.028012
      dyz     :     0.012928
      dx2y2   :     0.009512
      dxy     :     0.009573
  3 H s       :     0.860088  s :     0.860088
      pz      :     0.054100  p :     0.076011
      px      :     0.007170
      py      :     0.014740
  4 C s       :     2.845666  s :     2.845666
      pz      :     0.936447  p :     3.014359
      px      :     1.050906
      py      :     1.027006
      dz2     :     0.039130  d :     0.119659
      dxz     :     0.036405
      dyz     :     0.015708
      dx2y2   :     0.013755
      dxy     :     0.014662
  5 C s       :     2.845643  s :     2.845643
      pz      :     0.936506  p :     3.014368
      px      :     1.050887
      py      :     1.026975
      dz2     :     0.039134  d :     0.119670
      dxz     :     0.036405
      dyz     :     0.015711
      dx2y2   :     0.013757
      dxy     :     0.014664
  6 C s       :     2.832126  s :     2.832126
      pz      :     1.061756  p :     2.996002
      px      :     0.866553
      py      :     1.067692
      dz2     :     0.030610  d :     0.130091
      dxz     :     0.017841
      dyz     :     0.013569
      dx2y2   :     0.038754
      dxy     :     0.029316
  7 C s       :     2.832111  s :     2.832111
      pz      :     1.061798  p :     2.996019
      px      :     0.866537
      py      :     1.067684
      dz2     :     0.030618  d :     0.130101
      dxz     :     0.017830
      dyz     :     0.013571
      dx2y2   :     0.038765
      dxy     :     0.029318
  8 C s       :     2.828796  s :     2.828796
      pz      :     1.069400  p :     3.149318
      px      :     1.062811
      py      :     1.017108
      dz2     :     0.021615  d :     0.070456
      dxz     :     0.008962
      dyz     :     0.008232
      dx2y2   :     0.015322
      dxy     :     0.016324
  9 H s       :     0.883894  s :     0.883894
      pz      :     0.044846  p :     0.067119
      px      :     0.008506
      py      :     0.013766
 10 C s       :     2.828808  s :     2.828808
      pz      :     1.069003  p :     3.149304
      px      :     1.062824
      py      :     1.017476
      dz2     :     0.021681  d :     0.070455
      dxz     :     0.008913
      dyz     :     0.008233
      dx2y2   :     0.015359
      dxy     :     0.016269
 11 C s       :     2.828752  s :     2.828752
      pz      :     1.069301  p :     3.149337
      px      :     1.062751
      py      :     1.017286
      dz2     :     0.021649  d :     0.070462
      dxz     :     0.008882
      dyz     :     0.008280
      dx2y2   :     0.015393
      dxy     :     0.016258
 12 C s       :     2.828802  s :     2.828802
      pz      :     1.069085  p :     3.149287
      px      :     1.062864
      py      :     1.017338
      dz2     :     0.021681  d :     0.070460
      dxz     :     0.008867
      dyz     :     0.008271
      dx2y2   :     0.015393
      dxy     :     0.016248
 13 H s       :     0.883895  s :     0.883895
      pz      :     0.044846  p :     0.067117
      px      :     0.008506
      py      :     0.013765
 14 H s       :     0.869965  s :     0.869965
      pz      :     0.034016  p :     0.075513
      px      :     0.025284
      py      :     0.016213
 15 H s       :     0.869944  s :     0.869944
      pz      :     0.034038  p :     0.075508
      px      :     0.025259
      py      :     0.016210
 16 H s       :     0.898049  s :     0.898049
      pz      :     0.041924  p :     0.068393
      px      :     0.013832
      py      :     0.012636
 17 H s       :     0.896418  s :     0.896418
      pz      :     0.015324  p :     0.067802
      px      :     0.019621
      py      :     0.032857
 18 H s       :     0.888914  s :     0.888914
      pz      :     0.017422  p :     0.067973
      px      :     0.037773
      py      :     0.012778
 19 H s       :     0.896420  s :     0.896420
      pz      :     0.015218  p :     0.067797
      px      :     0.019591
      py      :     0.032988
 20 H s       :     0.898046  s :     0.898046
      pz      :     0.041951  p :     0.068389
      px      :     0.013815
      py      :     0.012623
 21 H s       :     0.888933  s :     0.888933
      pz      :     0.017359  p :     0.067971
      px      :     0.037823
      py      :     0.012789
 22 H s       :     0.896395  s :     0.896395
      pz      :     0.015349  p :     0.067807
      px      :     0.019543
      py      :     0.032915
 23 H s       :     0.898045  s :     0.898045
      pz      :     0.041947  p :     0.068407
      px      :     0.013815
      py      :     0.012645
 24 H s       :     0.888919  s :     0.888919
      pz      :     0.017350  p :     0.067973
      px      :     0.037852
      py      :     0.012771
 25 H s       :     0.888961  s :     0.888961
      pz      :     0.017330  p :     0.067973
      px      :     0.037859
      py      :     0.012784
 26 H s       :     0.898055  s :     0.898055
      pz      :     0.041956  p :     0.068394
      px      :     0.013803
      py      :     0.012634
 27 H s       :     0.896426  s :     0.896426
      pz      :     0.015274  p :     0.067799
      px      :     0.019592
      py      :     0.032934


                      *****************************
                      * MAYER POPULATION ANALYSIS *
                      *****************************

  NA   - Mulliken gross atomic population
  ZA   - Total nuclear charge
  QA   - Mulliken gross atomic charge
  VA   - Mayer's total valence
  BVA  - Mayer's bonded valence
  FA   - Mayer's free valence

  ATOM       NA         ZA         QA         VA         BVA        FA
  0 N      7.1691     7.0000    -0.1691     3.4271     3.4271     0.0000
  1 C      5.7762     6.0000     0.2238     3.8673     3.8673    -0.0000
  2 N      7.1691     7.0000    -0.1691     3.4271     3.4271     0.0000
  3 H      0.8747     1.0000     0.1253     0.9968     0.9968     0.0000
  4 C      5.9371     6.0000     0.0629     3.8674     3.8674    -0.0000
  5 C      5.9370     6.0000     0.0630     3.8674     3.8674    -0.0000
  6 C      6.0630     6.0000    -0.0630     4.0786     4.0786     0.0000
  7 C      6.0630     6.0000    -0.0630     4.0786     4.0786     0.0000
  8 C      5.9938     6.0000     0.0062     3.9432     3.9432    -0.0000
  9 H      0.9240     1.0000     0.0760     0.9769     0.9769    -0.0000
 10 C      5.9937     6.0000     0.0063     3.9431     3.9431     0.0000
 11 C      5.9939     6.0000     0.0061     3.9432     3.9432     0.0000
 12 C      5.9936     6.0000     0.0064     3.9431     3.9431     0.0000
 13 H      0.9240     1.0000     0.0760     0.9769     0.9769    -0.0000
 14 H      0.9065     1.0000     0.0935     0.9979     0.9979    -0.0000
 15 H      0.9066     1.0000     0.0934     0.9980     0.9980    -0.0000
 16 H      0.9542     1.0000     0.0458     1.0014     1.0014    -0.0000
 17 H      0.9479     1.0000     0.0521     0.9930     0.9930    -0.0000
 18 H      0.9415     1.0000     0.0585     0.9962     0.9962    -0.0000
 19 H      0.9479     1.0000     0.0521     0.9930     0.9930     0.0000
 20 H      0.9542     1.0000     0.0458     1.0014     1.0014     0.0000
 21 H      0.9415     1.0000     0.0585     0.9962     0.9962     0.0000
 22 H      0.9479     1.0000     0.0521     0.9929     0.9929    -0.0000
 23 H      0.9542     1.0000     0.0458     1.0014     1.0014     0.0000
 24 H      0.9415     1.0000     0.0585     0.9962     0.9962    -0.0000
 25 H      0.9416     1.0000     0.0584     0.9962     0.9962     0.0000
[...]
     29      -0.000104  -0.016278  -0.016842   0.000110   0.000766   0.000660
     30       0.038813  -0.042397  -0.041646   0.000085   0.000056  -0.000004
     31      -0.018590   0.018558   0.018188   0.000031  -0.000096   0.000093
     32      -0.007128   0.012042   0.011911  -0.000018   0.000455  -0.000416
     33      -0.044641  -0.041393   0.042080  -0.000085   0.000055   0.000004
     34       0.021604   0.018358  -0.018621  -0.000031  -0.000092  -0.000089
     35      -0.007988  -0.011571   0.011845  -0.000017  -0.000456  -0.000416
     36       0.044790  -0.041369   0.042056  -0.000084   0.000055   0.000004
     37       0.021391  -0.018070   0.018328   0.000032   0.000095   0.000092
     38       0.008264  -0.011761   0.012039  -0.000018  -0.000454  -0.000415
     39       0.000012  -0.000237   0.000246  -0.001598  -0.001162  -0.001529
     40      -0.000963  -0.000053   0.000057   0.000001   0.000005   0.000000
     41      -0.000157   0.015977  -0.017109   0.000109  -0.000766   0.000660
     42      -0.000005   0.000390  -0.000883   0.042324  -0.458227  -0.460063
     43       0.000177   0.000001  -0.000005   0.000258  -0.002777  -0.002745
     44       0.000010  -0.000374   0.000799  -0.048948   0.534730   0.528707
     45       0.000006   0.000405   0.000877  -0.042361  -0.458360   0.460062
     46      -0.000161  -0.000000  -0.000003   0.000244   0.002629  -0.002596
     47       0.000002   0.000387   0.000792  -0.048978  -0.534746   0.528569
     48      -0.007180  -0.011064  -0.010936  -0.000214  -0.000577   0.000446
     49      -0.001040   0.000321   0.000342   0.000268   0.000261  -0.000137
     50      -0.030610  -0.066633  -0.066129  -0.000664  -0.005005   0.004160
     51       0.144375   0.140133   0.137415   0.000060  -0.000828   0.000680
     52       0.237308   0.229656   0.225207   0.000131  -0.001410   0.001115
     53       0.092331   0.089484   0.087764   0.000097  -0.000509   0.000389
     54       0.330282   0.369722   0.363822   0.000199   0.000731  -0.001074
     55      -0.007795  -0.009090  -0.008984  -0.000232   0.000141  -0.000102
     56      -0.146622  -0.163554  -0.160904   0.000018  -0.000621   0.000667
     57      -0.143030   0.142534   0.139748   0.000058  -0.000833   0.000685
     58       0.235032  -0.233535  -0.228976  -0.000128   0.001417  -0.001121
     59      -0.088909   0.088478   0.086766   0.000091  -0.000498   0.000380
     60       0.007042  -0.011197  -0.011066  -0.000215  -0.000588   0.000459
     61      -0.001324   0.000327   0.000300  -0.000261  -0.000216   0.000101
     62       0.029751  -0.067391  -0.066879  -0.000671  -0.005012   0.004172
     63      -0.325677   0.374675   0.368640   0.000199   0.000734  -0.001078
     64      -0.009630   0.011444   0.011298   0.000232  -0.000134   0.000093
     65       0.144512  -0.165661  -0.162951   0.000018  -0.000627   0.000673
     66       0.164112   0.138831  -0.140868  -0.000058  -0.000830  -0.000682
     67      -0.270417  -0.228088   0.231442   0.000128   0.001415   0.001119
     68      -0.104751  -0.088485   0.089799   0.000095   0.000509   0.000388
     69      -0.008077  -0.010904   0.011152   0.000213  -0.000573  -0.000442
     70       0.001265  -0.000198   0.000227   0.000267  -0.000251  -0.000129
     71       0.034020   0.065548  -0.067321  -0.000665   0.005025   0.004178
     72       0.374970   0.366121  -0.372798  -0.000198   0.000735   0.001077
     73       0.008783   0.008937  -0.009140  -0.000233  -0.000141  -0.000102
     74       0.166351   0.161851  -0.164762   0.000020   0.000622   0.000668
     75      -0.376029   0.365660  -0.372343  -0.000199   0.000732   0.001077
     76       0.011158  -0.011210   0.011454   0.000232   0.000134   0.000093
     77      -0.166817   0.161646  -0.164558   0.000017   0.000625   0.000672
     78       0.008183  -0.010951   0.011200   0.000215  -0.000591  -0.000462
     79       0.001447  -0.000202   0.000182  -0.000262   0.000227   0.000111
     80      -0.034977   0.066120  -0.067904  -0.000670   0.004994   0.004160
     81      -0.164953   0.139045  -0.141092  -0.000060  -0.000832  -0.000684
     82      -0.270463   0.227317  -0.230668  -0.000130  -0.001413  -0.001117
     83       0.102837  -0.086561   0.087853   0.000092   0.000499   0.000382


-----------
IR SPECTRUM
-----------

 Mode   freq       eps      Int      T**2         TX        TY        TZ
       cm**-1   L/(mol*cm) km/mol    a.u.
----------------------------------------------------------------------------
  7:     15.74   0.000000    0.00  0.000000  (-0.000036  0.000019  0.000123)
  8:    110.67   0.000072    0.36  0.000202  ( 0.000022  0.014199  0.000131)
  9:    147.15   0.000000    0.00  0.000001  ( 0.000007  0.000005 -0.000867)
 10:    147.49   0.000069    0.35  0.000145  (-0.000000 -0.000017  0.012054)
 11:    232.10   0.000004    0.02  0.000005  ( 0.000009 -0.002309 -0.000230)
 12:    232.11   0.000002    0.01  0.000003  ( 0.000051  0.001794  0.000200)
 13:    250.00   0.000011    0.05  0.000013  ( 0.003621 -0.000038 -0.000013)
 14:    264.00   0.000032    0.16  0.000038  (-0.000010  0.000158 -0.006142)
 15:    268.78   0.000020    0.10  0.000023  (-0.000009  0.000185 -0.004815)
 16:    290.43   0.000080    0.40  0.000086  (-0.009262  0.000017  0.000008)
 17:    351.31   0.000008    0.04  0.000007  (-0.002603 -0.000010 -0.000001)
 18:    395.43   0.000220    1.11  0.000173  (-0.000024 -0.013167 -0.000015)
 19:    442.28   0.000000    0.00  0.000000  ( 0.000069  0.000002  0.000019)
 20:    451.43   0.000189    0.96  0.000131  ( 0.000001 -0.000033  0.011437)
 21:    550.48   0.000108    0.55  0.000061  ( 0.007828  0.000019  0.000001)
 22:    625.96   0.000037    0.19  0.000019  (-0.000000 -0.000169 -0.004314)
 23:    671.91   0.000871    4.40  0.000405  (-0.020117 -0.000050  0.000002)
 24:    677.42   0.015204   76.83  0.007004  (-0.000006 -0.083688 -0.000416)
 25:    687.43   0.000000    0.00  0.000000  ( 0.000212  0.000005 -0.000013)
 26:    764.15   0.008547   43.19  0.003490  (-0.000014  0.059079  0.000324)
 27:    891.37   0.005681   28.71  0.001989  ( 0.000028 -0.044595 -0.000248)
 28:    910.49   0.000361    1.83  0.000124  ( 0.011127 -0.000000 -0.000001)
 29:    913.30   0.000000    0.00  0.000000  (-0.000007 -0.000012 -0.000002)
 30:    916.72   0.000751    3.80  0.000256  ( 0.000001  0.000053  0.015989)
 31:    940.64   0.000005    0.02  0.000002  ( 0.000014  0.001270  0.000014)
 32:    940.74   0.001263    6.38  0.000419  ( 0.000003  0.020465 -0.000050)
 33:    959.83   0.000000    0.00  0.000000  ( 0.000074  0.000116  0.000023)
 34:    960.03   0.000401    2.03  0.000130  (-0.000011 -0.011413  0.000013)
 35:   1033.45   0.004013   20.28  0.001212  (-0.034811  0.000001  0.000003)
 36:   1042.02   0.000319    1.61  0.000096  ( 0.000003 -0.000124  0.009779)
 37:   1086.42   0.000014    0.07  0.000004  (-0.002027  0.000001 -0.000001)
 38:   1104.78   0.006267   31.67  0.001770  (-0.000004  0.000331 -0.042072)
 39:   1110.26   0.000128    0.65  0.000036  (-0.000001 -0.000129  0.006007)
 40:   1166.94   0.020331  102.75  0.005437  ( 0.073736 -0.000019 -0.000005)
 41:   1171.84   0.000000    0.00  0.000000  ( 0.000003  0.000030  0.000007)
 42:   1173.28   0.004165   21.05  0.001108  ( 0.000113  0.033282  0.000210)
 43:   1194.81   0.000142    0.72  0.000037  (-0.000006 -0.000105  0.006092)
 44:   1217.51   0.028799  145.54  0.007382  ( 0.085917 -0.000013 -0.000005)
 45:   1265.90   0.009136   46.17  0.002252  (-0.047458  0.000002  0.000004)
 46:   1344.92   0.000000    0.00  0.000000  (-0.000054 -0.000016 -0.000036)
 47:   1345.64   0.000102    0.51  0.000024  (-0.000014 -0.004849 -0.000163)
 48:   1347.74   0.001150    5.81  0.000266  (-0.000000 -0.000187  0.016315)
 49:   1363.97   0.010670   53.92  0.002441  (-0.049409  0.000025  0.000001)
 50:   1398.42   0.000610    3.08  0.000136  (-0.000003 -0.000782 -0.011638)
 51:   1400.72   0.000001    0.01  0.000000  ( 0.000528  0.000100 -0.000105)
 52:   1401.15   0.008579   43.36  0.001911  ( 0.000117  0.043712 -0.000027)
 53:   1405.38   0.005076   25.65  0.001127  (-0.033573  0.000140  0.000003)
 54:   1412.02   0.003022   15.27  0.000668  ( 0.000003  0.000025  0.025845)
 55:   1444.26   0.000010    0.05  0.000002  (-0.000113 -0.001408  0.000305)
 56:   1444.27   0.000012    0.06  0.000003  ( 0.000086 -0.001566  0.000323)
 57:   1455.83   0.000000    0.00  0.000000  ( 0.000065 -0.000105 -0.000038)
 58:   1455.88   0.000695    3.51  0.000149  ( 0.000034 -0.012204  0.000156)
 59:   1457.77   0.000953    4.82  0.000204  ( 0.014279  0.000003 -0.000408)
 60:   1457.94   0.007112   35.94  0.001522  (-0.000149  0.000126 -0.039016)
 61:   1464.93   0.002802   14.16  0.000597  (-0.000032  0.000110 -0.024433)
 62:   1466.62   0.000853    4.31  0.000182  ( 0.013474  0.000003 -0.000057)
 63:   1493.79   0.001275    6.44  0.000266  ( 0.016322 -0.000010 -0.000002)
 64:   1510.30   0.000189    0.96  0.000039  ( 0.000000 -0.000041  0.006249)
 65:   1645.31   0.040983  207.11  0.007773  ( 0.088166 -0.000005 -0.000008)
 66:   1649.72   0.002116   10.69  0.000400  ( 0.000015 -0.000105  0.020008)
 67:   3071.87   0.000002    0.01  0.000000  (-0.000100  0.000430 -0.000054)
 68:   3071.88   0.005747   29.04  0.000584  (-0.000064  0.024162  0.000029)
 69:   3073.73   0.001289    6.51  0.000131  ( 0.011437  0.000134  0.000039)
 70:   3073.81   0.001343    6.79  0.000136  (-0.000039  0.000091  0.011676)
 71:   3128.56   0.000025    0.13  0.000003  ( 0.000346  0.000018 -0.001555)
 72:   3128.63   0.001852    9.36  0.000185  (-0.000041  0.000045 -0.013593)
 73:   3174.77   0.001912    9.66  0.000188  ( 0.000021  0.013702  0.000388)
 74:   3174.78   0.000006    0.03  0.000001  (-0.000015  0.000726  0.000175)
 75:   3177.92   0.000015    0.07  0.000001  ( 0.001198 -0.000077  0.000020)
 76:   3177.97   0.009632   48.67  0.000946  ( 0.000003 -0.000270  0.030753)
 77:   3188.95   0.002399   12.13  0.000235  (-0.000103 -0.015322 -0.000052)
 78:   3188.95   0.000011    0.06  0.000001  (-0.000042  0.001036  0.000037)
 79:   3190.78   0.005647   28.54  0.000552  (-0.023500  0.000065  0.000062)
 80:   3190.81   0.000478    2.41  0.000047  ( 0.000202 -0.000022  0.006832)
 81:   3298.95   0.011707   59.16  0.001107  (-0.000003  0.000177 -0.033278)
 82:   3302.53   0.005032   25.43  0.000475  (-0.021805 -0.000003  0.000002)
 83:   3320.16   0.003336   16.86  0.000314  (-0.000001 -0.000098  0.017706)

* The epsilon (eps) is given for a Dirac delta lineshape.
** The dipole moment derivative (T) already includes vibrational overlap.

The first frequency considered to be a vibration is 7
The total number of vibrations considered is 77


--------------------------
THERMOCHEMISTRY AT 298.15K
--------------------------

Temperature         ... 298.15 K
Pressure            ... 1.00 atm
Total Mass          ... 153.25 AMU

Throughout the following assumptions are being made:
  (1) The electronic state is orbitally nondegenerate
  (2) There are no thermally accessible electronically excited states
  (3) Hindered rotations indicated by low frequency modes are not
      treated as such but are treated as vibrations and this may
      cause some error
  (4) All equations used are the standard statistical mechanics
      equations for an ideal gas
  (5) All vibrations are strictly harmonic

freq.      15.74  E(vib)   ...       0.57 
freq.     110.67  E(vib)   ...       0.45 
freq.     147.15  E(vib)   ...       0.41 
freq.     147.49  E(vib)   ...       0.41 
freq.     232.10  E(vib)   ...       0.32 
freq.     232.11  E(vib)   ...       0.32 
freq.     250.00  E(vib)   ...       0.31 
freq.     264.00  E(vib)   ...       0.29 
freq.     268.78  E(vib)   ...       0.29 
freq.     290.43  E(vib)   ...       0.27 
freq.     351.31  E(vib)   ...       0.23 
freq.     395.43  E(vib)   ...       0.20 
freq.     442.28  E(vib)   ...       0.17 
freq.     451.43  E(vib)   ...       0.16 
freq.     550.48  E(vib)   ...       0.12 
freq.     625.96  E(vib)   ...       0.09 
freq.     671.91  E(vib)   ...       0.08 
freq.     677.42  E(vib)   ...       0.08 
freq.     687.43  E(vib)   ...       0.07 
freq.     764.15  E(vib)   ...       0.06 
freq.     891.37  E(vib)   ...       0.04 
freq.     910.49  E(vib)   ...       0.03 
freq.     913.30  E(vib)   ...       0.03 
freq.     916.72  E(vib)   ...       0.03 
freq.     940.64  E(vib)   ...       0.03 
freq.     940.74  E(vib)   ...       0.03 
freq.     959.83  E(vib)   ...       0.03 
freq.     960.03  E(vib)   ...       0.03 
freq.    1033.45  E(vib)   ...       0.02 
freq.    1042.02  E(vib)   ...       0.02 
freq.    1086.42  E(vib)   ...       0.02 
freq.    1104.78  E(vib)   ...       0.02 
freq.    1110.26  E(vib)   ...       0.02 
freq.    1166.94  E(vib)   ...       0.01 
freq.    1171.84  E(vib)   ...       0.01 
freq.    1173.28  E(vib)   ...       0.01 
freq.    1194.81  E(vib)   ...       0.01 
freq.    1217.51  E(vib)   ...       0.01 
freq.    1265.90  E(vib)   ...       0.01 
freq.    1344.92  E(vib)   ...       0.01 
freq.    1345.64  E(vib)   ...       0.01 
freq.    1347.74  E(vib)   ...       0.01 
freq.    1363.97  E(vib)   ...       0.01 
freq.    1398.42  E(vib)   ...       0.00 
freq.    1400.72  E(vib)   ...       0.00 
freq.    1401.15  E(vib)   ...       0.00 
freq.    1405.38  E(vib)   ...       0.00 
freq.    1412.02  E(vib)   ...       0.00 
freq.    1444.26  E(vib)   ...       0.00 
freq.    1444.27  E(vib)   ...       0.00 
freq.    1455.83  E(vib)   ...       0.00 
freq.    1455.88  E(vib)   ...       0.00 
freq.    1457.77  E(vib)   ...       0.00 
freq.    1457.94  E(vib)   ...       0.00 
freq.    1464.93  E(vib)   ...       0.00 
freq.    1466.62  E(vib)   ...       0.00 
freq.    1493.79  E(vib)   ...       0.00 
freq.    1510.30  E(vib)   ...       0.00 
freq.    1645.31  E(vib)   ...       0.00 
freq.    1649.72  E(vib)   ...       0.00 
freq.    3071.87  E(vib)   ...       0.00 
freq.    3071.88  E(vib)   ...       0.00 
freq.    3073.73  E(vib)   ...       0.00 
freq.    3073.81  E(vib)   ...       0.00 
freq.    3128.56  E(vib)   ...       0.00 
freq.    3128.63  E(vib)   ...       0.00 
freq.    3174.77  E(vib)   ...       0.00 
freq.    3174.78  E(vib)   ...       0.00 
freq.    3177.92  E(vib)   ...       0.00 
freq.    3177.97  E(vib)   ...       0.00 
freq.    3188.95  E(vib)   ...       0.00 
freq.    3188.95  E(vib)   ...       0.00 
freq.    3190.78  E(vib)   ...       0.00 
freq.    3190.81  E(vib)   ...       0.00 
freq.    3298.95  E(vib)   ...       0.00 
freq.    3302.53  E(vib)   ...       0.00 
freq.    3320.16  E(vib)   ...       0.00 

------------
INNER ENERGY
------------

The inner energy is: U= E(el) + E(ZPE) + E(vib) + E(rot) + E(trans)
    E(el)   - is the total energy from the electronic structure calculation
              = E(kin-el) + E(nuc-el) + E(el-el) + E(nuc-nuc)
    E(ZPE)  - the the zero temperature vibrational energy from the frequency calculation
    E(vib)  - the the finite temperature correction to E(ZPE) due to population
              of excited vibrational states
    E(rot)  - is the rotational thermal energy
    E(trans)- is the translational thermal energy

Summary of contributions to the inner energy U:
Electronic energy                ...   -462.13671361 Eh
Zero point energy                ...      0.25487739 Eh     159.94 kcal/mol
Thermal vibrational correction   ...      0.00855052 Eh       5.37 kcal/mol
Thermal rotational correction    ...      0.00141627 Eh       0.89 kcal/mol
Thermal translational correction ...      0.00141627 Eh       0.89 kcal/mol
-----------------------------------------------------------------------
Total thermal energy                   -461.87045316 Eh


Summary of corrections to the electronic energy:
(perhaps to be used in another calculation)
Total thermal correction                  0.01138306 Eh       7.14 kcal/mol
Non-thermal (ZPE) correction              0.25487739 Eh     159.94 kcal/mol
-----------------------------------------------------------------------
Total correction                          0.26626045 Eh     167.08 kcal/mol


--------
ENTHALPY
--------

The enthalpy is H = U + kB*T
                kB is Boltzmann's constant
Total free energy                 ...   -461.87045316 Eh 
Thermal Enthalpy correction       ...      0.00094421 Eh       0.59 kcal/mol
-----------------------------------------------------------------------
Total Enthalpy                    ...   -461.86950895 Eh


Note: Only C1 symmetry has been detected, increase convergence thresholds 
      if your molecule has a higher symmetry. Symmetry factor of 1.0 is   
      used for the rotational entropy correction. 
 

Note: Rotational entropy computed according to Herzberg 
Infrared and Raman Spectra, Chapter V,1, Van Nostrand Reinhold, 1945 
Point Group:  C1, Symmetry Number:   1  
Rotational constants in cm-1:     0.089484     0.018393     0.017768 

Vibrational entropy computed according to the QRRHO of S. Grimme
Chem.Eur.J. 2012 18 9955


-------
ENTROPY
-------

The entropy contributions are T*S = T*(S(el)+S(vib)+S(rot)+S(trans))
     S(el)   - electronic entropy
     S(vib)  - vibrational entropy
     S(rot)  - rotational entropy
     S(trans)- translational entropy
The entropies will be listed as multiplied by the temperature to get
units of energy

Electronic entropy                ...      0.00000000 Eh      0.00 kcal/mol
Vibrational entropy               ...      0.01480013 Eh      9.29 kcal/mol
Rotational entropy                ...      0.01443936 Eh      9.06 kcal/mol
Translational entropy             ...      0.01947584 Eh     12.22 kcal/mol
-----------------------------------------------------------------------
Final entropy term                ...      0.04871533 Eh     30.57 kcal/mol

In case the symmetry of your molecule has not been determined correctly
or in case you have a reason to use a different symmetry number we print 
out the resulting rotational entropy values for sn=1,12 :
 --------------------------------------------------------
|  sn= 1 | S(rot)=       0.01443936 Eh      9.06 kcal/mol|
|  sn= 2 | S(rot)=       0.01378490 Eh      8.65 kcal/mol|
|  sn= 3 | S(rot)=       0.01340207 Eh      8.41 kcal/mol|
|  sn= 4 | S(rot)=       0.01313045 Eh      8.24 kcal/mol|
|  sn= 5 | S(rot)=       0.01291976 Eh      8.11 kcal/mol|
|  sn= 6 | S(rot)=       0.01274762 Eh      8.00 kcal/mol|
|  sn= 7 | S(rot)=       0.01260207 Eh      7.91 kcal/mol|
|  sn= 8 | S(rot)=       0.01247599 Eh      7.83 kcal/mol|
|  sn= 9 | S(rot)=       0.01236478 Eh      7.76 kcal/mol|
|  sn=10 | S(rot)=       0.01226530 Eh      7.70 kcal/mol|
|  sn=11 | S(rot)=       0.01217531 Eh      7.64 kcal/mol|
|  sn=12 | S(rot)=       0.01209316 Eh      7.59 kcal/mol|
 --------------------------------------------------------


-------------------
GIBBS FREE ENERGY
-------------------

The Gibbs free energy is G = H - T*S

Total enthalpy                    ...   -461.86950895 Eh 
Total entropy correction          ...     -0.04871533 Eh    -30.57 kcal/mol
-----------------------------------------------------------------------
Final Gibbs free energy         ...   -461.91822428 Eh

For completeness - the Gibbs free energy minus the electronic energy
G-E(el)                           ...      0.21848933 Eh    137.10 kcal/mol


Timings for individual modules:

Sum of individual times         ...     3985.023 sec (=  66.417 min)
GTO integral calculation        ...        2.321 sec (=   0.039 min)   0.1 %
SCF iterations                  ...     1918.080 sec (=  31.968 min)  48.1 %
SCF Gradient evaluation         ...      503.938 sec (=   8.399 min)  12.6 %
Geometry relaxation             ...        0.436 sec (=   0.007 min)   0.0 %
Analytical frequency calculation...     1560.249 sec (=  26.004 min)  39.2 %
                             ****ORCA TERMINATED NORMALLY****
TOTAL RUN TIME: 0 days 1 hours 6 minutes 26 seconds 99 msec
