
                                 *****************
                                 * O   R   C   A *
                                 *****************

                                            #,                                       
                                            ###                                      
                                            ####                                     
                                            #####                                    
                                            ######                                   
                                           ########,                                 
                                     ,,################,,,,,                         
                               ,,#################################,,                 
                          ,,##########################################,,             
                       ,#########################################, ''#####,          
                    ,#############################################,,   '####,        
                  ,##################################################,,,,####,       
                ,###########''''           ''''###############################       
              ,#####''   ,,,,##########,,,,          '''####'''          '####       
            ,##' ,,,,###########################,,,                        '##       
           ' ,,###''''                  '''############,,,                           
         ,,##''                                '''############,,,,        ,,,,,,###''
      ,#''                                            '''#######################'''  
     '                                                          ''''####''''         
             ,#######,   #######,   ,#######,      ##                                
            ,#'     '#,  ##    ##  ,#'     '#,    #''#        ######   ,####,        
            ##       ##  ##   ,#'  ##            #'  '#       #        #'  '#        
            ##       ##  #######   ##           ,######,      #####,   #    #        
            '#,     ,#'  ##    ##  '#,     ,#' ,#      #,         ##   #,  ,#        
             '#######'   ##     ##  '#######'  #'      '#     #####' # '####'        



                  #######################################################
                  #                        -***-                        #
                  #          Department of theory and spectroscopy      #
                  #    Directorship and core code : Frank Neese         #
                  #        Max Planck Institute fuer Kohlenforschung    #
                  #                Kaiser Wilhelm Platz 1               #
                  #                 D-45470 Muelheim/Ruhr               #
                  #                      Germany                        #
                  #                                                     #
                  #                  All rights reserved                #
                  #                        -***-                        #
                  #######################################################


                         Program Version 5.0.4 -  RELEASE  -


 With contributions from (in alphabetic order):
   Daniel Aravena         : Magnetic Suceptibility
   Michael Atanasov       : Ab Initio Ligand Field Theory (pilot matlab implementation)
   Alexander A. Auer      : GIAO ZORA, VPT2 properties, NMR spectrum
   Ute Becker             : Parallelization
   Giovanni Bistoni       : ED, misc. LED, open-shell LED, HFLD
   Martin Brehm           : Molecular dynamics
   Dmytro Bykov           : SCF Hessian
   Vijay G. Chilkuri      : MRCI spin determinant printing, contributions to CSF-ICE
   Dipayan Datta          : RHF DLPNO-CCSD density
   Achintya Kumar Dutta   : EOM-CC, STEOM-CC
   Dmitry Ganyushin       : Spin-Orbit,Spin-Spin,Magnetic field MRCI
   Miquel Garcia          : C-PCM and meta-GGA Hessian, CC/C-PCM, Gaussian charge scheme
   Yang Guo               : DLPNO-NEVPT2, F12-NEVPT2, CIM, IAO-localization
   Andreas Hansen         : Spin unrestricted coupled pair/coupled cluster methods
   Benjamin Helmich-Paris : MC-RPA, TRAH-SCF, COSX integrals
   Lee Huntington         : MR-EOM, pCC
   Robert Izsak           : Overlap fitted RIJCOSX, COSX-SCS-MP3, EOM
   Marcus Kettner         : VPT2
   Christian Kollmar      : KDIIS, OOCD, Brueckner-CCSD(T), CCSD density, CASPT2, CASPT2-K
   Simone Kossmann        : Meta GGA functionals, TD-DFT gradient, OOMP2, MP2 Hessian
   Martin Krupicka        : Initial AUTO-CI
   Lucas Lang             : DCDCAS
   Marvin Lechner         : AUTO-CI (C++ implementation), FIC-MRCC
   Dagmar Lenk            : GEPOL surface, SMD
   Dimitrios Liakos       : Extrapolation schemes; Compound Job, initial MDCI parallelization
   Dimitrios Manganas     : Further ROCIS development; embedding schemes
   Dimitrios Pantazis     : SARC Basis sets
   Anastasios Papadopoulos: AUTO-CI, single reference methods and gradients
   Taras Petrenko         : DFT Hessian,TD-DFT gradient, ASA, ECA, R-Raman, ABS, FL, XAS/XES, NRVS
   Peter Pinski           : DLPNO-MP2, DLPNO-MP2 Gradient
   Christoph Reimann      : Effective Core Potentials
   Marius Retegan         : Local ZFS, SOC
   Christoph Riplinger    : Optimizer, TS searches, QM/MM, DLPNO-CCSD(T), (RO)-DLPNO pert. Triples
   Tobias Risthaus        : Range-separated hybrids, TD-DFT gradient, RPA, STAB
   Michael Roemelt        : Original ROCIS implementation
   Masaaki Saitow         : Open-shell DLPNO-CCSD energy and density
   Barbara Sandhoefer     : DKH picture change effects
   Avijit Sen             : IP-ROCIS
   Kantharuban Sivalingam : CASSCF convergence, NEVPT2, FIC-MRCI
   Bernardo de Souza      : ESD, SOC TD-DFT
   Georgi Stoychev        : AutoAux, RI-MP2 NMR, DLPNO-MP2 response
   Willem Van den Heuvel  : Paramagnetic NMR
   Boris Wezisla          : Elementary symmetry handling
   Frank Wennmohs         : Technical directorship


 We gratefully acknowledge several colleagues who have allowed us to
 interface, adapt or use parts of their codes:
   Stefan Grimme, W. Hujo, H. Kruse, P. Pracht,  : VdW corrections, initial TS optimization,
                  C. Bannwarth, S. Ehlert          DFT functionals, gCP, sTDA/sTD-DF
   Ed Valeev, F. Pavosevic, A. Kumar             : LibInt (2-el integral package), F12 methods
   Garnet Chan, S. Sharma, J. Yang, R. Olivares  : DMRG
   Ulf Ekstrom                                   : XCFun DFT Library
   Mihaly Kallay                                 : mrcc  (arbitrary order and MRCC methods)
   Jiri Pittner, Ondrej Demel                    : Mk-CCSD
   Frank Weinhold                                : gennbo (NPA and NBO analysis)
   Christopher J. Cramer and Donald G. Truhlar   : smd solvation model
   Lars Goerigk                                  : TD-DFT with DH, B97 family of functionals
   V. Asgeirsson, H. Jonsson                     : NEB implementation
   FAccTs GmbH                                   : IRC, NEB, NEB-TS, DLPNO-Multilevel, CI-OPT
                                                   MM, QMMM, 2- and 3-layer-ONIOM, Crystal-QMMM,
                                                   LR-CPCM, SF, NACMEs, symmetry and pop. for TD-DFT,
                                                   nearIR, NL-DFT gradient (VV10), updates on ESD,
                                                   ML-optimized integration grids
   S Lehtola, MJT Oliveira, MAL Marques          : LibXC Library
   Liviu Ungur et al                             : ANISO software


 Your calculation uses the libint2 library for the computation of 2-el integrals
 For citations please refer to: http://libint.valeyev.net

 Your ORCA version has been built with support for libXC version: 5.1.0
 For citations please refer to: https://tddft.org/programs/libxc/

 This ORCA versions uses:
   CBLAS   interface :  Fast vector & matrix operations
   LAPACKE interface :  Fast linear algebra routines
   SCALAPACK package :  Parallel linear algebra routines
   Shared memory     :  Shared parallel matrices
   BLAS/LAPACK       :  OpenBLAS 0.3.15  USE64BITINT DYNAMIC_ARCH NO_AFFINITY SkylakeX SINGLE_THREADED
        Core in use  :  SkylakeX
   Copyright (c) 2011-2014, The OpenBLAS Project




***************************************
The coordinates will be read from file: 4_prot_aq_5.xyz
***************************************


Your calculation utilizes the atom-pairwise dispersion correction
based on tight binding partial charges (D4)
Cite in your paper:
E.Caldeweyher, C.Bannwarth, S.Grimme, J.Chem.Phys., (2017), 147, 034112.
E.Caldeweyher, S.Ehlert, A.Hansen, H.Neugebauer, S.Grimme, J.Chem.Phys., (2018), in progress.
   

XCFun DFT library Copyright 2009-2010 Ulf Ekstrom and contributors.
See http://admol.org/xcfun for more information.
This is free software; see the source code for copying conditions.
There is ABSOLUTELY NO WARRANTY; not even for MERCHANTABILITY or FITNESS FOR A PARTICULAR PURPOSE.
For details see the documentation.
Scientific users of this library should cite U. Ekstrom, L. Visscher, R. Bast, A. J. Thorvaldsen and K. Ruud;
J.Chem.Theor.Comp. 2010, DOI: 10.1021/ct100117s
XCFun Version 0.99 

================================================================================

----- Orbital basis set information -----
Your calculation utilizes the basis: def2-SVP
   F. Weigend and R. Ahlrichs, Phys. Chem. Chem. Phys. 7, 3297 (2005).

----- AuxJ basis set information -----
Your calculation utilizes the auxiliary basis: def2/J
   F. Weigend, Phys. Chem. Chem. Phys. 8, 1057 (2006).

================================================================================
                                        WARNINGS
                       Please study these warnings very carefully!
================================================================================


WARNING: Geometry Optimization
  ===> : Switching off AutoStart
         For restart on a previous wavefunction, please use MOREAD

INFO   : the flag for use of the SHARK integral package has been found!

================================================================================
                                       INPUT FILE
================================================================================
NAME = 4_prot_aq_5.inp
|  1> # ORCA 5.0.4 - /users/bwb16179/postgrad/2024_03/DFT_Crest_Conformers/Opt/prot/4_prot_aq_5.inp # write input file
|  2> # Basic Mode
|  3> #
|  4> ! Opt Freq wB97X Def2-SVP D4 SlowConv TightSCF Defgrid2 Def2/J RIJCOSX CPCM(Water)
|  5> 
|  6> 
|  7> 
|  8> %maxcore 4500
|  9> 
| 10> %geom
| 11> Maxiter 150
| 12> END
| 13> 
| 14> * xyzfile 1 1 4_prot_aq_5.xyz
| 15> 
| 16>                          ****END OF INPUT****
================================================================================

                       *****************************
                       * Geometry Optimization Run *
                       *****************************

Geometry optimization settings:
Update method            Update   .... BFGS
Choice of coordinates    CoordSys .... Z-matrix Internals
Initial Hessian          InHess   .... Almoef's Model

Convergence Tolerances:
Energy Change            TolE     ....  5.0000e-06 Eh
Max. Gradient            TolMAXG  ....  3.0000e-04 Eh/bohr
RMS Gradient             TolRMSG  ....  1.0000e-04 Eh/bohr
Max. Displacement        TolMAXD  ....  4.0000e-03 bohr
RMS Displacement         TolRMSD  ....  2.0000e-03 bohr
Strict Convergence                ....  False
------------------------------------------------------------------------------
                        ORCA OPTIMIZATION COORDINATE SETUP
------------------------------------------------------------------------------

The optimization will be done in new redundant internal coordinates
Making redundant internal coordinates   ...  (new redundants) done
Evaluating the initial hessian          ...  (Almloef) done
Evaluating the coordinates              ...  done
Calculating the B-matrix                .... done
Calculating the G-matrix                .... done
Diagonalizing the G-matrix              .... done
Small eigenvalue found = 1.222e-02
Small eigenvalue found = 2.176e-02
The first mode is                       ....   69
The number of degrees of freedom        ....   78

    -----------------------------------------------------------------
                    Redundant Internal Coordinates


    -----------------------------------------------------------------
         Definition                    Initial Value    Approx d2E/dq
    -----------------------------------------------------------------
      1. B(C   1,N   0)                  1.3296         0.698638   
      2. B(N   2,C   1)                  1.3303         0.696814   
      3. B(H   3,C   1)                  1.0710         0.386203   
      4. B(C   4,N   2)                  1.3599         0.625006   
      5. B(C   5,C   4)                  1.3619         0.692706   
      6. B(C   5,N   0)                  1.3604         0.623926   
      7. B(C   6,N   0)                  1.4600         0.432635   
      8. B(C   7,N   2)                  1.4600         0.432741   
      9. B(C   8,C   6)                  1.5270         0.377685   
     10. B(H   9,C   6)                  1.0944         0.354329   
     11. B(C  10,C   6)                  1.5238         0.382143   
     12. B(C  11,C   7)                  1.5254         0.379924   
     13. B(C  12,C   7)                  1.5256         0.379594   
     14. B(H  13,C   7)                  1.0941         0.354742   
     15. B(H  14,C   4)                  1.0707         0.386577   
     16. B(H  15,C   5)                  1.0708         0.386452   
     17. B(H  16,C   8)                  1.0873         0.363631   
     18. B(H  17,C   8)                  1.0873         0.363628   
     19. B(H  18,C   8)                  1.0856         0.365924   
     20. B(H  19,C  10)                  1.0874         0.363540   
     21. B(H  20,C  10)                  1.0866         0.364590   
     22. B(H  21,C  10)                  1.0859         0.365538   
     23. B(H  22,C  11)                  1.0868         0.364395   
     24. B(H  23,C  11)                  1.0858         0.365739   
     25. B(H  24,C  11)                  1.0874         0.363546   
     26. B(H  25,C  12)                  1.0857         0.365771   
     27. B(H  26,C  12)                  1.0868         0.364310   
     28. B(H  27,C  12)                  1.0874         0.363583   
     29. A(C   1,N   0,C   6)          126.8055         0.410435   
     30. A(C   5,N   0,C   6)          125.2972         0.402311   
     31. A(C   1,N   0,C   5)          107.8434         0.438208   
     32. A(N   0,C   1,H   3)          125.2602         0.362201   
     33. A(N   2,C   1,H   3)          125.1495         0.362040   
     34. A(N   0,C   1,N   2)          109.5898         0.447051   
     35. A(C   1,N   2,C   7)          126.2907         0.410263   
     36. A(C   1,N   2,C   4)          107.8549         0.438138   
     37. A(C   4,N   2,C   7)          125.8529         0.402451   
     38. A(N   2,C   4,H  14)          122.7035         0.355459   
     39. A(C   5,C   4,H  14)          129.9481         0.363997   
     40. A(N   2,C   4,C   5)          107.3483         0.440564   
     41. A(N   0,C   5,C   4)          107.3631         0.440426   
     42. A(N   0,C   5,H  15)          122.6677         0.355335   
     43. A(C   4,C   5,H  15)          129.9690         0.363977   
     44. A(N   0,C   6,C  10)          110.7874         0.371732   
     45. A(C   8,C   6,H   9)          109.3520         0.324041   
     46. A(N   0,C   6,H   9)          106.0560         0.329385   
     47. A(N   0,C   6,C   8)          109.1375         0.370983   
     48. A(H   9,C   6,C  10)          109.3590         0.324666   
     49. A(C   8,C   6,C  10)          111.9681         0.365447   
     50. A(C  12,C   7,H  13)          109.3305         0.324372   
     51. A(C  11,C   7,H  13)          109.3178         0.324418   
     52. A(N   2,C   7,H  13)          106.0849         0.329462   
     53. A(C  11,C   7,C  12)          112.1234         0.365398   
     54. A(N   2,C   7,C  12)          109.8430         0.371320   
     55. A(N   2,C   7,C  11)          109.9566         0.371376   
     56. A(C   6,C   8,H  18)          109.4409         0.325761   
     57. A(H  16,C   8,H  17)          108.8569         0.291733   
     58. A(C   6,C   8,H  17)          111.0021         0.325424   
     59. A(C   6,C   8,H  16)          110.8618         0.325424   
     60. A(H  17,C   8,H  18)          108.2620         0.292021   
     61. A(H  16,C   8,H  18)          108.3398         0.292022   
     62. A(H  19,C  10,H  21)          108.0604         0.291962   
     63. A(C   6,C  10,H  21)          109.0978         0.326333   
     64. A(H  19,C  10,H  20)          109.2273         0.291842   
     65. A(C   6,C  10,H  20)          111.5621         0.326194   
     66. A(H  20,C  10,H  21)          107.7319         0.292094   
     67. A(C   6,C  10,H  19)          111.0410         0.326039   
     68. A(H  23,C  11,H  24)          108.1554         0.291988   
     69. A(H  22,C  11,H  24)          108.9763         0.291819   
     70. A(C   7,C  11,H  24)          110.9268         0.325728   
     71. A(H  22,C  11,H  23)          108.0698         0.292095   
     72. A(C   7,C  11,H  23)          109.2939         0.326050   
     73. A(C   7,C  11,H  22)          111.3222         0.325853   
     74. A(H  26,C  12,H  27)          108.9353         0.291813   
     75. A(H  25,C  12,H  27)          108.1671         0.291996   
     76. A(C   7,C  12,H  27)          110.9262         0.325687   
     77. A(H  25,C  12,H  26)          108.1289         0.292088   
     78. A(C   7,C  12,H  26)          111.2663         0.325794   
     79. A(C   7,C  12,H  25)          109.3239         0.326008   
     80. D(H   3,C   1,N   0,C   5)    179.9968         0.040375   
     81. D(H   3,C   1,N   0,C   6)     -2.5746         0.040375   
     82. D(N   2,C   1,N   0,C   6)    177.6848         0.040375   
     83. D(N   2,C   1,N   0,C   5)      0.2562         0.040375   
     84. D(C   7,N   2,C   1,H   3)     -0.3480         0.040144   
     85. D(C   7,N   2,C   1,N   0)    179.3929         0.040144   
     86. D(C   4,N   2,C   1,H   3)   -179.9268         0.040144   
     87. D(C   4,N   2,C   1,N   0)     -0.1859         0.040144   
     88. D(H  14,C   4,N   2,C   1)    179.9512         0.031672   
     89. D(C   5,C   4,N   2,C   7)   -179.5390         0.031672   
     90. D(H  14,C   4,N   2,C   7)      0.3701         0.031672   
     91. D(C   5,C   4,N   2,C   1)      0.0422         0.031672   
     92. D(H  15,C   5,N   0,C   1)    179.9223         0.031554   
     93. D(C   4,C   5,N   0,C   6)   -177.7023         0.031554   
     94. D(C   4,C   5,N   0,C   1)     -0.2249         0.031554   
     95. D(H  15,C   5,C   4,H  14)      0.0501         0.033736   
     96. D(H  15,C   5,C   4,N   2)    179.9503         0.033736   
     97. D(N   0,C   5,C   4,H  14)   -179.7882         0.033736   
     98. D(N   0,C   5,C   4,N   2)      0.1120         0.033736   
     99. D(H  15,C   5,N   0,C   6)      2.4448         0.031554   
    100. D(C  10,C   6,N   0,C   5)   -138.7481         0.015958   
    101. D(C  10,C   6,N   0,C   1)     44.2513         0.015958   
    102. D(H   9,C   6,N   0,C   5)    -20.1793         0.015958   
    103. D(H   9,C   6,N   0,C   1)    162.8200         0.015958   
    104. D(C   8,C   6,N   0,C   5)     97.5222         0.015958   
    105. D(C   8,C   6,N   0,C   1)    -79.4784         0.015958   
    106. D(C  12,C   7,N   2,C   4)    116.5448         0.015966   
    107. D(C  11,C   7,N   2,C   4)   -119.6075         0.015966   
    108. D(C  11,C   7,N   2,C   1)     60.8871         0.015966   
    109. D(H  13,C   7,N   2,C   1)    178.9852         0.015966   
    110. D(C  12,C   7,N   2,C   1)    -62.9606         0.015966   
    111. D(H  13,C   7,N   2,C   4)     -1.5094         0.015966   
    112. D(H  18,C   8,C   6,C  10)     60.3919         0.011376   
    113. D(H  18,C   8,C   6,H   9)    -60.9749         0.011376   
    114. D(H  18,C   8,C   6,N   0)   -176.5799         0.011376   
    115. D(H  17,C   8,C   6,C  10)    179.8285         0.011376   
    116. D(H  17,C   8,C   6,H   9)     58.4616         0.011376   
    117. D(H  17,C   8,C   6,N   0)    -57.1433         0.011376   
    118. D(H  16,C   8,C   6,C  10)    -59.0538         0.011376   
    119. D(H  16,C   8,C   6,H   9)    179.5794         0.011376   
    120. D(H  16,C   8,C   6,N   0)     63.9745         0.011376   
    121. D(H  21,C  10,C   6,H   9)     53.0603         0.011632   
    122. D(H  21,C  10,C   6,C   8)    -68.3026         0.011632   
    123. D(H  21,C  10,C   6,N   0)    169.6078         0.011632   
    124. D(H  20,C  10,C   6,H   9)    171.9664         0.011632   
    125. D(H  20,C  10,C   6,C   8)     50.6035         0.011632   
    126. D(H  20,C  10,C   6,N   0)    -71.4861         0.011632   
    127. D(H  19,C  10,C   6,H   9)    -65.9330         0.011632   
    128. D(H  19,C  10,C   6,C   8)    172.7041         0.011632   
    129. D(H  19,C  10,C   6,N   0)     50.6145         0.011632   
    130. D(H  24,C  11,C   7,C  12)    176.9543         0.011504   
    131. D(H  24,C  11,C   7,N   2)     54.4443         0.011504   
    132. D(H  23,C  11,C   7,H  13)     57.5284         0.011504   
    133. D(H  23,C  11,C   7,C  12)    -63.8811         0.011504   
    134. D(H  23,C  11,C   7,N   2)    173.6088         0.011504   
    135. D(H  22,C  11,C   7,H  13)    176.8311         0.011504   
    136. D(H  22,C  11,C   7,C  12)     55.4217         0.011504   
    137. D(H  24,C  11,C   7,H  13)    -61.6362         0.011504   
    138. D(H  22,C  11,C   7,N   2)    -67.0884         0.011504   
    139. D(H  26,C  12,C   7,N   2)     66.4037         0.011485   
    140. D(H  25,C  12,C   7,H  13)    -58.2122         0.011485   
    141. D(H  25,C  12,C   7,C  11)     63.1899         0.011485   
    142. D(H  25,C  12,C   7,N   2)   -174.2356         0.011485   
    143. D(H  27,C  12,C   7,H  13)     60.9855         0.011485   
    144. D(H  27,C  12,C   7,C  11)   -177.6124         0.011485   
    145. D(H  27,C  12,C   7,N   2)    -55.0379         0.011485   
    146. D(H  26,C  12,C   7,H  13)   -177.5729         0.011485   
    147. D(H  26,C  12,C   7,C  11)    -56.1708         0.011485   
    -----------------------------------------------------------------

Number of atoms                         .... 28
Number of degrees of freedom            .... 147

         *************************************************************
         *                GEOMETRY OPTIMIZATION CYCLE   1            *
         *************************************************************
---------------------------------
CARTESIAN COORDINATES (ANGSTROEM)
---------------------------------
  N     -1.081621    0.123612    0.397466
  C      0.006664   -0.227502   -0.280894
  N      1.090281    0.196480    0.363871
  H      0.011508   -0.772187   -1.202973
  C      0.680424    0.842627    1.488086
  C     -0.680620    0.798443    1.508516
  C     -2.468990   -0.109601    0.006885
  C      2.475843   -0.002161   -0.051219
  C     -2.881907    0.938771   -1.023750
  H     -3.065163    0.020485    0.915380
  C     -2.651766   -1.528303   -0.518403
  C      2.712765    0.656247   -1.406670
  C      2.801787   -1.492447   -0.071542
  H      3.092675    0.493194    0.704528
  H      1.364595    1.280608    2.185548
  H     -1.370912    1.192331    2.226086
  H     -2.298352    0.836300   -1.935497
  H     -2.748107    1.944229   -0.631996
  H     -3.930414    0.807387   -1.272685
  H     -2.236140   -2.257275    0.173205
  H     -2.189276   -1.655826   -1.493389
  H     -3.712692   -1.733313   -0.626242
  H      2.156746    0.152826   -2.193108
  H      3.768870    0.601047   -1.652622
  H      2.424243    1.704456   -1.385032
  H      3.858641   -1.626247   -0.281309
  H      2.235968   -2.009241   -0.842247
  H      2.586579   -1.950233    0.891012

----------------------------
CARTESIAN COORDINATES (A.U.)
----------------------------
  NO LB      ZA    FRAG     MASS         X           Y           Z
   0 N     7.0000    0    14.007   -2.043968    0.233592    0.751101
   1 C     6.0000    0    12.011    0.012592   -0.429916   -0.530813
   2 N     7.0000    0    14.007    2.060333    0.371293    0.687616
   3 H     1.0000    0     1.008    0.021747   -1.459221   -2.273289
   4 C     6.0000    0    12.011    1.285814    1.592335    2.812076
   5 C     6.0000    0    12.011   -1.286185    1.508839    2.850682
   6 C     6.0000    0    12.011   -4.665715   -0.207117    0.013011
   7 C     6.0000    0    12.011    4.678665   -0.004084   -0.096789
   8 C     6.0000    0    12.011   -5.446014    1.774020   -1.934608
   9 H     1.0000    0     1.008   -5.792318    0.038712    1.729817
  10 C     6.0000    0    12.011   -5.011111   -2.888075   -0.979639
  11 C     6.0000    0    12.011    5.126383    1.240126   -2.658222
  12 C     6.0000    0    12.011    5.294610   -2.820317   -0.135196
  13 H     1.0000    0     1.008    5.844310    0.932002    1.331366
  14 H     1.0000    0     1.008    2.578711    2.419999    4.130088
  15 H     1.0000    0     1.008   -2.590649    2.253180    4.206693
  16 H     1.0000    0     1.008   -4.343257    1.580378   -3.657558
  17 H     1.0000    0     1.008   -5.193170    3.674061   -1.194299
  18 H     1.0000    0     1.008   -7.427406    1.525741   -2.405027
  19 H     1.0000    0     1.008   -4.225692   -4.265631    0.327309
  20 H     1.0000    0     1.008   -4.137131   -3.129057   -2.822097
  21 H     1.0000    0     1.008   -7.015970   -3.275487   -1.183426
  22 H     1.0000    0     1.008    4.075658    0.288800   -4.144373
  23 H     1.0000    0     1.008    7.122133    1.135814   -3.123002
  24 H     1.0000    0     1.008    4.581155    3.220955   -2.617332
  25 H     1.0000    0     1.008    7.291775   -3.073161   -0.531597
  26 H     1.0000    0     1.008    4.225367   -3.796915   -1.591617
  27 H     1.0000    0     1.008    4.887926   -3.685407    1.683769

--------------------------------
INTERNAL COORDINATES (ANGSTROEM)
--------------------------------
 N      0   0   0     0.000000000000     0.00000000     0.00000000
 C      1   0   0     1.329592352788     0.00000000     0.00000000
 N      2   1   0     1.330303987549   109.58977958     0.00000000
 H      2   1   3     1.070950387434   125.26017230   179.74056155
 C      3   2   1     1.359908665183   107.85486362   359.81410104
 C      1   2   3     1.360379523594   107.84338336     0.25619656
 C      1   2   3     1.460046106917   126.80552843   177.68481909
 C      3   2   1     1.459979027917   126.29074232   179.39293717
 C      7   1   2     1.527021038435   109.13753512   280.52156583
 H      7   1   2     1.094398077921   106.05596236   162.82002267
 C      7   1   2     1.523827298349   110.78738192    44.25130168
 C      8   3   2     1.525412394602   109.95658698    60.88714126
 C      8   3   2     1.525649035085   109.84301494   297.03938421
 H      8   3   2     1.094080738995   106.08487080   178.98522474
 H      5   3   2     1.070687184809   122.70353483   179.95123134
 H      6   1   2     1.070774958686   122.66774890   179.92230893
 H      9   7   1     1.087343922375   110.86176721    63.97446095
 H      9   7   1     1.087345941678   111.00208709   302.85667590
 H      9   7   1     1.085632775568   109.44093049   183.42012817
 H     11   7   1     1.087412298340   111.04104092    50.61446070
 H     11   7   1     1.086626839939   111.56206406   288.51390364
 H     11   7   1     1.085919772971   109.09783355   169.60778796
 H     12   8   3     1.086772147937   111.32224838   292.91159081
 H     12   8   3     1.085770056239   109.29385026   173.60881868
 H     12   8   3     1.087407782931   110.92681475    54.44427292
 H     13   8   3     1.085746544234   109.32385165   185.76444192
 H     13   8   3     1.086835966391   111.26629211    66.40372161
 H     13   8   3     1.087379451022   110.92622853   304.96208869

---------------------------
INTERNAL COORDINATES (A.U.)
---------------------------
 N      0   0   0     0.000000000000     0.00000000     0.00000000
 C      1   0   0     2.512565416524     0.00000000     0.00000000
 N      2   1   0     2.513910211331   109.58977958     0.00000000
 H      2   1   3     2.023802935267   125.26017230   179.74056155
 C      3   2   1     2.569854944342   107.85486362   359.81410104
 C      1   2   3     2.570744737788   107.84338336     0.25619656
 C      1   2   3     2.759087284971   126.80552843   177.68481909
 C      3   2   1     2.758960524031   126.29074232   179.39293717
 C      7   1   2     2.885651563379   109.13753512   280.52156583
 H      7   1   2     2.068112648760   106.05596236   162.82002267
 C      7   1   2     2.879616269273   110.78738192    44.25130168
 C      8   3   2     2.882611667087   109.95658698    60.88714126
 C      8   3   2     2.883058852791   109.84301494   297.03938421
 H      8   3   2     2.067512965099   106.08487080   178.98522474
 H      5   3   2     2.023305554388   122.70353483   179.95123134
 H      6   1   2     2.023471422977   122.66774890   179.92230893
 H      9   7   1     2.054782226673   110.86176721    63.97446095
 H      9   7   1     2.054786042603   111.00208709   302.85667590
 H      9   7   1     2.051548627832   109.44093049   183.42012817
 H     11   7   1     2.054911438521   111.04104092    50.61446070
 H     11   7   1     2.053427137253   111.56206406   288.51390364
 H     11   7   1     2.052090974325   109.09783355   169.60778796
 H     12   8   3     2.053701729574   111.32224838   292.91159081
 H     12   8   3     2.051808050705   109.29385026   173.60881868
 H     12   8   3     2.054902905634   110.92681475    54.44427292
 H     13   8   3     2.051763619454   109.32385165   185.76444192
 H     13   8   3     2.053822328975   111.26629211    66.40372161
 H     13   8   3     2.054849366085   110.92622853   304.96208869

---------------------
BASIS SET INFORMATION
---------------------
There are 3 groups of distinct atoms

 Group   1 Type N   : 7s4p1d contracted to 3s2p1d pattern {511/31/1}
 Group   2 Type C   : 7s4p1d contracted to 3s2p1d pattern {511/31/1}
 Group   3 Type H   : 4s1p contracted to 2s1p pattern {31/1}

Atom   0N    basis set group =>   1
Atom   1C    basis set group =>   2
Atom   2N    basis set group =>   1
Atom   3H    basis set group =>   3
Atom   4C    basis set group =>   2
Atom   5C    basis set group =>   2
Atom   6C    basis set group =>   2
Atom   7C    basis set group =>   2
Atom   8C    basis set group =>   2
Atom   9H    basis set group =>   3
Atom  10C    basis set group =>   2
Atom  11C    basis set group =>   2
Atom  12C    basis set group =>   2
Atom  13H    basis set group =>   3
Atom  14H    basis set group =>   3
Atom  15H    basis set group =>   3
Atom  16H    basis set group =>   3
Atom  17H    basis set group =>   3
Atom  18H    basis set group =>   3
Atom  19H    basis set group =>   3
Atom  20H    basis set group =>   3
Atom  21H    basis set group =>   3
Atom  22H    basis set group =>   3
Atom  23H    basis set group =>   3
Atom  24H    basis set group =>   3
Atom  25H    basis set group =>   3
Atom  26H    basis set group =>   3
Atom  27H    basis set group =>   3
---------------------------------
AUXILIARY/J BASIS SET INFORMATION
---------------------------------
There are 3 groups of distinct atoms

 Group   1 Type N   : 12s5p4d2f1g contracted to 6s4p3d1f1g pattern {711111/2111/211/2/1}
 Group   2 Type C   : 12s5p4d2f1g contracted to 6s4p3d1f1g pattern {711111/2111/211/2/1}
 Group   3 Type H   : 5s2p1d contracted to 3s1p1d pattern {311/2/1}

Atom   0N    basis set group =>   1
Atom   1C    basis set group =>   2
Atom   2N    basis set group =>   1
Atom   3H    basis set group =>   3
Atom   4C    basis set group =>   2
Atom   5C    basis set group =>   2
Atom   6C    basis set group =>   2
Atom   7C    basis set group =>   2
Atom   8C    basis set group =>   2
Atom   9H    basis set group =>   3
Atom  10C    basis set group =>   2
Atom  11C    basis set group =>   2
Atom  12C    basis set group =>   2
Atom  13H    basis set group =>   3
Atom  14H    basis set group =>   3
Atom  15H    basis set group =>   3
Atom  16H    basis set group =>   3
Atom  17H    basis set group =>   3
Atom  18H    basis set group =>   3
Atom  19H    basis set group =>   3
Atom  20H    basis set group =>   3
Atom  21H    basis set group =>   3
Atom  22H    basis set group =>   3
Atom  23H    basis set group =>   3
Atom  24H    basis set group =>   3
Atom  25H    basis set group =>   3
Atom  26H    basis set group =>   3
Atom  27H    basis set group =>   3
------------------------------------------------------------------------------
                           ORCA GTO INTEGRAL CALCULATION
                           -- RI-GTO INTEGRALS CHOSEN --
------------------------------------------------------------------------------
------------------------------------------------------------------------------
                   ___                                                        
                  /   \      - P O W E R E D   B Y -                         
                 /     \                                                     
                 |  |  |   _    _      __       _____    __    __             
                 |  |  |  | |  | |    /  \     |  _  \  |  |  /  |          
                  \  \/   | |  | |   /    \    | | | |  |  | /  /          
                 / \  \   | |__| |  /  /\  \   | |_| |  |  |/  /          
                |  |  |   |  __  | /  /__\  \  |    /   |      \           
                |  |  |   | |  | | |   __   |  |    \   |  |\   \          
                \     /   | |  | | |  |  |  |  | |\  \  |  | \   \       
                 \___/    |_|  |_| |__|  |__|  |_| \__\ |__|  \__/        
                                                                              
                      - O R C A' S   B I G   F R I E N D -                    
                                      &                                       
                       - I N T E G R A L  F E E D E R -                       
                                                                              
 v1 FN, 2020, v2 2021                                                         
------------------------------------------------------------------------------


Reading SHARK input file 4_prot_aq_5.SHARKINP.tmp ... ok
----------------------
SHARK INTEGRAL PACKAGE
----------------------

Number of atoms                             ...     28
Number of basis functions                   ...    239
Number of shells                            ...    117
Maximum angular momentum                    ...      2
Integral batch strategy                     ... SHARK/LIBINT Hybrid
RI-J (if used) integral strategy            ... SPLIT-RIJ (Revised 2003 algorithm where possible)
Printlevel                                  ...      1
Contraction scheme used                     ... SEGMENTED contraction
Coulomb Range Separation                    ... NOT USED
Exchange Range Separation                   ... Long Range
   Mu parameter                             ...  0.300000
   Scaling (regular/separated)              ...  0.157706  0.842294
Finite Nucleus Model                        ... NOT USED
Auxiliary Coulomb fitting basis             ... AVAILABLE
   # of basis functions in Aux-J            ...    726
   # of shells in Aux-J                     ...    250
   Maximum angular momentum in Aux-J        ...      4
Auxiliary J/K fitting basis                 ... NOT available
Auxiliary Correlation fitting basis         ... NOT available
Auxiliary 'external' fitting basis          ... NOT available
Integral threshold                          ...     2.500000e-11
Primitive cut-off                           ...     2.500000e-12
Primitive pair pre-selection threshold      ...     2.500000e-12

Calculating pre-screening integrals         ... done (  0.0 sec) Dimension = 117
Organizing shell pair data                  ... done (  0.0 sec)
Shell pair information
Total number of shell pairs                 ...      6903
Shell pairs after pre-screening             ...      6094
Total number of primitive shell pairs       ...     23847
Primitive shell pairs kept                  ...     14930
          la=0 lb=0:   2069 shell pairs
          la=1 lb=0:   2302 shell pairs
          la=1 lb=1:    664 shell pairs
          la=2 lb=0:    644 shell pairs
          la=2 lb=1:    358 shell pairs
          la=2 lb=2:     57 shell pairs

Calculating one electron integrals          ... done (  0.0 sec)
Calculating RI/J V-Matrix + Cholesky decomp.... done (  0.0 sec)
Calculating Nuclear repulsion               ... done (  0.0 sec) ENN=    655.798093064802 Eh

SHARK setup successfully completed in   0.3 seconds

Maximum memory used throughout the entire GTOINT-calculation: 36.7 MB
-------------------------------------------------------------------------------
                                 ORCA SCF
-------------------------------------------------------------------------------

------------
SCF SETTINGS
------------
Hamiltonian:
 Density Functional     Method          .... DFT(GTOs)
 Exchange Functional    Exchange        .... WB97X
 Correlation Functional Correlation     .... WB97X
 Gradients option       PostSCFGGA      .... off
 Hybrid DFT is turned on
   Fraction HF Exchange ScalHFX         ....  0.157706
   Scaling of DF-GGA-X  ScalDFX         ....  0.000000
   Scaling of DF-GGA-C  ScalDFC         ....  1.000000
   Scaling of DF-LDA-C  ScalLDAC        ....  1.000000
   Perturbative correction              ....  0.000000
   Density functional embedding theory  .... OFF
 Long-range corrected/Screened/Range-Separated Hybrid DFT is turned on
   Amount of maximum screened exact exchange              ....  0.842294
   Range separation parameter mu (erf(mu*r12)/r12)        ....  0.300000
 RI-approximation to the Coulomb term is turned on
   Number of AuxJ basis functions       .... 726
   RIJ-COSX (HFX calculated with COS-X)).... on


General Settings:
 Integral files         IntName         .... 4_prot_aq_5
 Hartree-Fock type      HFTyp           .... RHF
 Total Charge           Charge          ....    1
 Multiplicity           Mult            ....    1
 Number of Electrons    NEL             ....   84
 Basis Dimension        Dim             ....  239
 Nuclear Repulsion      ENuc            ....    655.7980930648 Eh

Convergence Acceleration:
 DIIS                   CNVDIIS         .... on
   Start iteration      DIISMaxIt       ....     0
   Startup error        DIISStart       ....  0.200000
   # of expansion vecs  DIISMaxEq       ....     5
   Bias factor          DIISBfac        ....   1.050
   Max. coefficient     DIISMaxC        ....  10.000
 Trust-Rad. Augm. Hess. CNVTRAH         .... auto
   Auto Start mean grad. ratio tolernc. ....  1.125000
   Auto Start start iteration           ....    20
   Auto Start num. interpolation iter.  ....    10
   Max. Number of Micro iterations      ....    16
   Max. Number of Macro iterations      .... Maxiter - #DIIS iter
   Number of Davidson start vectors     ....     2
   Converg. threshold I  (grad. norm)   ....   1.000e-05
   Converg. threshold II (energy diff.) ....   1.000e-08
   Grad. Scal. Fac. for Micro threshold ....   0.100
   Minimum threshold for Micro iter.    ....   0.010
   NR start threshold (gradient norm)   ....   0.001
   Initial trust radius                 ....   0.400
   Minimum AH scaling param. (alpha)    ....   1.000
   Maximum AH scaling param. (alpha)    .... 1000.000
   Orbital update algorithm             .... Taylor
   White noise on init. David. guess    .... on
   Maximum white noise                  ....   0.010
   Quad. conv. algorithm                .... NR
 SOSCF                  CNVSOSCF        .... on
   Start iteration      SOSCFMaxIt      ....   150
   Startup grad/error   SOSCFStart      ....  0.001000
 Level Shifting         CNVShift        .... on
   Level shift para.    LevelShift      ....    0.2500
   Turn off err/grad.   ShiftErr        ....    0.0000
 Zerner damping         CNVZerner       .... off
 Static damping         CNVDamp         .... on
   Fraction old density DampFac         ....    0.8500
   Max. Damping (<1)    DampMax         ....    0.9800
   Min. Damping (>=0)   DampMin         ....    0.0000
   Turn off err/grad.   DampErr         ....    0.0300
 Fernandez-Rico         CNVRico         .... off

SCF Procedure:
 Maximum # iterations   MaxIter         ....   125
 SCF integral mode      SCFMode         .... Direct
   Integral package                     .... SHARK and LIBINT hybrid scheme
 Reset frequency        DirectResetFreq ....    20
 Integral Threshold     Thresh          ....  2.500e-11 Eh
 Primitive CutOff       TCut            ....  2.500e-12 Eh

Convergence Tolerance:
 Convergence Check Mode ConvCheckMode   .... Total+1el-Energy
 Convergence forced     ConvForced      .... 0
 Energy Change          TolE            ....  1.000e-08 Eh
 1-El. energy change                    ....  1.000e-05 Eh
 Orbital Gradient       TolG            ....  1.000e-05
 Orbital Rotation angle TolX            ....  1.000e-05
 DIIS Error             TolErr          ....  5.000e-07


Diagonalization of the overlap matrix:
Smallest eigenvalue                        ... 1.466e-03
Time for diagonalization                   ...    0.010 sec
Threshold for overlap eigenvalues          ... 1.000e-08
Number of eigenvalues below threshold      ... 0
Time for construction of square roots      ...    0.005 sec
Total time needed                          ...    0.014 sec

Time for model grid setup =    0.479 sec

------------------------------
INITIAL GUESS: MODEL POTENTIAL
------------------------------
Loading Hartree-Fock densities                     ... done
Calculating cut-offs                               ... done
Initializing the effective Hamiltonian             ... done
Setting up the integral package (SHARK)            ... done
Starting the Coulomb interaction                   ... done (   0.5 sec)
Reading the grid                                   ... done
Mapping shells                                     ... done
Starting the XC term evaluation                    ... done (   0.6 sec)
  promolecular density results
     # of electrons  =     84.990506702
     EX              =    -64.260500147
     EC              =     -2.820901515
     EX+EC           =    -67.081401662
Transforming the Hamiltonian                       ... done (   0.0 sec)
Diagonalizing the Hamiltonian                      ... done (   0.0 sec)
Back transforming the eigenvectors                 ... done (   0.0 sec)
Now organizing SCF variables                       ... done
                      ------------------
                      INITIAL GUESS DONE (   1.5 sec)
                      ------------------
-------------------
DFT GRID GENERATION
-------------------

General Integration Accuracy     IntAcc      ... 4.388
Radial Grid Type                 RadialGrid  ... OptM3 with GC (2021)
Angular Grid (max. ang.)         AngularGrid ... 4 (Lebedev-302)
Angular grid pruning method      GridPruning ... 4 (adaptive)
Weight generation scheme         WeightScheme... Becke
Basis function cutoff            BFCut       ... 1.0000e-11
Integration weight cutoff        WCut        ... 1.0000e-14
Angular grids for H and He will be reduced by one unit
Partially contracted basis set               ... off
Rotationally invariant grid construction     ... off

Total number of grid points                  ...   120006
Total number of batches                      ...     1888
Average number of points per batch           ...       63
Average number of grid points per atom       ...     4286
Time for grid setup =    1.807 sec

--------------------
COSX GRID GENERATION
--------------------

GRIDX 1
-------
General Integration Accuracy     IntAcc      ... 3.816
Radial Grid Type                 RadialGrid  ... OptM3 with GC (2021)
Angular Grid (max. ang.)         AngularGrid ... 1 (Lebedev-50)
Angular grid pruning method      GridPruning ... 4 (adaptive)
Weight generation scheme         WeightScheme... Becke
Basis function cutoff            BFCut       ... 1.0000e-11
Integration weight cutoff        WCut        ... 1.0000e-14
Angular grids for H and He will be reduced by one unit
Partially contracted basis set               ... on
Rotationally invariant grid construction     ... off

Total number of grid points                  ...    15381
Total number of batches                      ...      254
Average number of points per batch           ...       60
Average number of grid points per atom       ...      549
UseSFitting                                  ... on

GRIDX 2
-------
General Integration Accuracy     IntAcc      ... 4.020
Radial Grid Type                 RadialGrid  ... OptM3 with GC (2021)
Angular Grid (max. ang.)         AngularGrid ... 2 (Lebedev-110)
Angular grid pruning method      GridPruning ... 4 (adaptive)
Weight generation scheme         WeightScheme... Becke
Basis function cutoff            BFCut       ... 1.0000e-11
Integration weight cutoff        WCut        ... 1.0000e-14
Angular grids for H and He will be reduced by one unit
Partially contracted basis set               ... on
Rotationally invariant grid construction     ... off

Total number of grid points                  ...    32118
Total number of batches                      ...      516
Average number of points per batch           ...       62
Average number of grid points per atom       ...     1147
UseSFitting                                  ... on

GRIDX 3
-------
General Integration Accuracy     IntAcc      ... 4.338
Radial Grid Type                 RadialGrid  ... OptM3 with GC (2021)
Angular Grid (max. ang.)         AngularGrid ... 3 (Lebedev-194)
Angular grid pruning method      GridPruning ... 4 (adaptive)
Weight generation scheme         WeightScheme... Becke
Basis function cutoff            BFCut       ... 1.0000e-11
Integration weight cutoff        WCut        ... 1.0000e-14
Angular grids for H and He will be reduced by one unit
Partially contracted basis set               ... on
Rotationally invariant grid construction     ... off

Total number of grid points                  ...    69871
Total number of batches                      ...     1106
Average number of points per batch           ...       63
Average number of grid points per atom       ...     2495
UseSFitting                                  ... on

Time for X-Grid setup             =    2.321 sec


--------------------
CPCM SOLVATION MODEL
--------------------
CPCM parameters:
  Epsilon                                         ...      80.4000
  Refrac                                          ...       1.3300
  Rsolv                                           ...       1.3000
  Surface type                                    ... GAUSSIAN VDW
  Epsilon function type                           ...         CPCM
Radii:
 Radius for N  used is    3.5149 Bohr (=   1.8600 Ang.)
 Radius for C  used is    3.8550 Bohr (=   2.0400 Ang.)
 Radius for H  used is    2.4944 Bohr (=   1.3200 Ang.)
Calculating surface                               ...        done! (  0.0s)
GEPOL surface points                              ...         1513
GEPOL Volume                                      ...    1435.8116
GEPOL Surface-area                                ...     799.0402
Calculating surface distance matrix               ...        done! (  0.0s)
Performing Cholesky decomposition & store         ...        done! (  0.1s)
Overall time for CPCM initialization              ...                 0.1s
--------------
SCF ITERATIONS
--------------
ITER       Energy         Delta-E        Max-DP      RMS-DP      [F,P]     Damp
               ***  Starting incremental Fock matrix formation  ***
  0   -461.9126126408   0.000000000000 0.03346247  0.00064406  0.1526871 0.8500
  1   -461.9571486856  -0.044536044719 0.03010812  0.00060350  0.1229871 0.8500
                               ***Turning on DIIS***
  2   -461.9910123196  -0.033863634048 0.02358026  0.00049180  0.0944231 0.8500
  3   -462.0161557228  -0.025143403235 0.01474344  0.00035005  0.0715869 0.8500
  4   -462.0355183318  -0.019362608981 0.00991512  0.00026809  0.0570097 0.8500
  5   -462.0507411843  -0.015222852438 0.00754154  0.00021971  0.0471494 0.8500
  6   -462.0630915434  -0.012350359127 0.00611017  0.00018515  0.0396633 0.8500
  7   -462.0732952016  -0.010203658237 0.00520690  0.00015910  0.0335962 0.8500
  8   -462.0818177234  -0.008522521766 0.02959603  0.00091144  0.0284167 0.0000
  9   -462.1275140333  -0.045696309882 0.00139612  0.00003181  0.0012150 0.0000
                      *** Initiating the SOSCF procedure ***
                           *** Shutting down DIIS ***
                      *** Re-Reading the Fockian *** 
                      *** Removing any level shift *** 
ITER      Energy       Delta-E        Grad      Rot      Max-DP    RMS-DP
 10   -462.12753040  -0.0000163711  0.000137  0.000137  0.000552  0.000013
               *** Restarting incremental Fock matrix formation ***
 11   -462.12751238   0.0000180204  0.000055  0.000093  0.000364  0.000009
 12   -462.12751266  -0.0000002769  0.000043  0.000113  0.000178  0.000005
 13   -462.12751270  -0.0000000375  0.000020  0.000021  0.000052  0.000001
 14   -462.12751271  -0.0000000158  0.000003  0.000006  0.000007  0.000000
                  ***Gradient check signals convergence***
              ***Rediagonalizing the Fockian in SOSCF/NRSCF***

               *****************************************************
               *                     SUCCESS                       *
               *           SCF CONVERGED AFTER  15 CYCLES          *
               *****************************************************

Old exchange energy                            =    -21.420405304 Eh
New exchange energy                            =    -21.420443331 Eh
Exchange energy change after final integration =     -0.000038026 Eh
Total energy after final integration           =   -462.127550743 Eh
Final COS-X integration done in                =    60.530 sec

----------------
TOTAL SCF ENERGY
----------------

Total Energy       :         -462.12755074 Eh          -12575.12996 eV

Components:
Nuclear Repulsion  :          655.79809306 Eh           17845.17334 eV
Electronic Energy  :        -1117.92564381 Eh          -30420.30331 eV
One Electron Energy:        -1907.90932359 Eh          -51916.85210 eV
Two Electron Energy:          789.98367978 Eh           21496.54879 eV
Max COSX asymmetry :            0.00000217 Eh               0.00006 eV
CPCM Dielectric    :           -0.07840936 Eh              -2.13363 eV

Virial components:
Potential Energy   :         -918.97002649 Eh          -25006.44572 eV
Kinetic Energy     :          456.84247574 Eh           12431.31576 eV
Virial Ratio       :            2.01156870


DFT components:
N(Alpha)           :       42.000002571998 electrons
N(Beta)            :       42.000002571998 electrons
N(Total)           :       84.000005143997 electrons
E(XC)              :      -47.266058625815 Eh       
DFET-embed. en.    :        0.000000000000 Eh       
CPCM Solvation Model Properties:
Surface-charge          :           -1.02088759
Charge-correction       :            0.00286854 Eh               0.07806 eV
Free-energy (cav+disp)  :  This term is not implemented in the current solvation scheme

---------------
SCF CONVERGENCE
---------------

  Last Energy change         ...   -2.4993e-09  Tolerance :   1.0000e-08
  Last MAX-Density change    ...    3.5527e-15  Tolerance :   1.0000e-07
  Last RMS-Density change    ...    4.0105e-17  Tolerance :   5.0000e-09
  Last Orbital Gradient      ...    1.2526e-06  Tolerance :   1.0000e-05
  Last Orbital Rotation      ...    2.9006e-06  Tolerance :   1.0000e-05

             **** THE GBW FILE WAS UPDATED (4_prot_aq_5.gbw) ****
             **** DENSITY 4_prot_aq_5.scfp WAS UPDATED ****
             **** ENERGY FILE WAS UPDATED (4_prot_aq_5.en.tmp) ****
             **** THE GBW FILE WAS UPDATED (4_prot_aq_5.gbw) ****
             **** DENSITY 4_prot_aq_5.scfp WAS UPDATED ****
----------------
ORBITAL ENERGIES
----------------

  NO   OCC          E(Eh)            E(eV) 
   0   2.0000     -14.511555      -394.8795 
   1   2.0000     -14.511021      -394.8650 
   2   2.0000     -10.380357      -282.4639 
   3   2.0000     -10.335877      -281.2535 
   4   2.0000     -10.335603      -281.2460 
   5   2.0000     -10.330755      -281.1141 
   6   2.0000     -10.329976      -281.0929 
   7   2.0000     -10.271825      -279.5106 
   8   2.0000     -10.270671      -279.4792 
   9   2.0000     -10.270610      -279.4775 
  10   2.0000     -10.270197      -279.4663 
  11   2.0000      -1.223017       -33.2800 
  12   2.0000      -1.104632       -30.0586 
  13   2.0000      -0.970933       -26.4204 
  14   2.0000      -0.917774       -24.9739 
  15   2.0000      -0.917075       -24.9549 
  16   2.0000      -0.825783       -22.4707 
  17   2.0000      -0.824352       -22.4318 
  18   2.0000      -0.813442       -22.1349 
  19   2.0000      -0.781244       -21.2587 
  20   2.0000      -0.737694       -20.0737 
  21   2.0000      -0.730224       -19.8704 
  22   2.0000      -0.653698       -17.7880 
  23   2.0000      -0.633824       -17.2472 
  24   2.0000      -0.608670       -16.5627 
  25   2.0000      -0.607419       -16.5287 
  26   2.0000      -0.590187       -16.0598 
  27   2.0000      -0.580480       -15.7957 
  28   2.0000      -0.566800       -15.4234 
  29   2.0000      -0.560215       -15.2442 
  30   2.0000      -0.555287       -15.1101 
  31   2.0000      -0.520168       -14.1545 
  32   2.0000      -0.505149       -13.7458 
  33   2.0000      -0.500258       -13.6127 
  34   2.0000      -0.498397       -13.5621 
  35   2.0000      -0.495547       -13.4845 
  36   2.0000      -0.474974       -12.9247 
  37   2.0000      -0.462842       -12.5946 
  38   2.0000      -0.461993       -12.5715 
  39   2.0000      -0.459939       -12.5156 
  40   2.0000      -0.415679       -11.3112 
  41   2.0000      -0.372346       -10.1321 
  42   0.0000       0.057808         1.5730 
  43   0.0000       0.098740         2.6869 
  44   0.0000       0.138038         3.7562 
  45   0.0000       0.151506         4.1227 
  46   0.0000       0.158146         4.3034 
  47   0.0000       0.174685         4.7534 
  48   0.0000       0.187373         5.0987 
  49   0.0000       0.192007         5.2248 
  50   0.0000       0.206033         5.6064 
  51   0.0000       0.208655         5.6778 
  52   0.0000       0.211752         5.7621 
  53   0.0000       0.225501         6.1362 
  54   0.0000       0.226807         6.1717 
  55   0.0000       0.242793         6.6067 
  56   0.0000       0.244936         6.6651 
  57   0.0000       0.248624         6.7654 
  58   0.0000       0.255163         6.9433 
  59   0.0000       0.261572         7.1177 
  60   0.0000       0.265509         7.2249 
  61   0.0000       0.268724         7.3124 
  62   0.0000       0.275376         7.4934 
  63   0.0000       0.284668         7.7462 
  64   0.0000       0.299456         8.1486 
  65   0.0000       0.309406         8.4194 
  66   0.0000       0.318168         8.6578 
  67   0.0000       0.336850         9.1661 
  68   0.0000       0.347831         9.4650 
  69   0.0000       0.360178         9.8009 
  70   0.0000       0.394554        10.7364 
  71   0.0000       0.436941        11.8898 
  72   0.0000       0.454367        12.3640 
  73   0.0000       0.481828        13.1112 
  74   0.0000       0.485253        13.2044 
  75   0.0000       0.494510        13.4563 
  76   0.0000       0.500608        13.6222 
  77   0.0000       0.508115        13.8265 
  78   0.0000       0.514226        13.9928 
  79   0.0000       0.542190        14.7537 
  80   0.0000       0.552558        15.0359 
  81   0.0000       0.571881        15.5617 
  82   0.0000       0.585507        15.9324 
  83   0.0000       0.605528        16.4772 
  84   0.0000       0.612039        16.6544 
  85   0.0000       0.654433        17.8080 
  86   0.0000       0.663543        18.0559 
  87   0.0000       0.671262        18.2660 
  88   0.0000       0.681725        18.5507 
  89   0.0000       0.685925        18.6650 
  90   0.0000       0.694193        18.8900 
  91   0.0000       0.717122        19.5139 
  92   0.0000       0.730514        19.8783 
  93   0.0000       0.736088        20.0300 
  94   0.0000       0.743508        20.2319 
  95   0.0000       0.750084        20.4108 
  96   0.0000       0.754357        20.5271 
  97   0.0000       0.760289        20.6885 
  98   0.0000       0.762934        20.7605 
  99   0.0000       0.772027        21.0079 
 100   0.0000       0.780071        21.2268 
 101   0.0000       0.784156        21.3380 
 102   0.0000       0.789649        21.4875 
 103   0.0000       0.790523        21.5112 
 104   0.0000       0.795209        21.6387 
 105   0.0000       0.798010        21.7150 
 106   0.0000       0.800337        21.7783 
 107   0.0000       0.802410        21.8347 
 108   0.0000       0.811293        22.0764 
 109   0.0000       0.818908        22.2836 
 110   0.0000       0.830729        22.6053 
 111   0.0000       0.832497        22.6534 
 112   0.0000       0.834936        22.7198 
 113   0.0000       0.845566        23.0090 
 114   0.0000       0.856490        23.3063 
 115   0.0000       0.862859        23.4796 
 116   0.0000       0.874647        23.8003 
 117   0.0000       0.952338        25.9144 
 118   0.0000       0.977231        26.5918 
 119   0.0000       1.023376        27.8475 
 120   0.0000       1.041517        28.3411 
 121   0.0000       1.046162        28.4675 
 122   0.0000       1.079312        29.3696 
 123   0.0000       1.133619        30.8473 
 124   0.0000       1.148837        31.2615 
 125   0.0000       1.168594        31.7991 
 126   0.0000       1.177432        32.0395 
 127   0.0000       1.195700        32.5366 
 128   0.0000       1.213361        33.0172 
 129   0.0000       1.228964        33.4418 
 130   0.0000       1.271224        34.5918 
 131   0.0000       1.282651        34.9027 
 132   0.0000       1.305134        35.5145 
 133   0.0000       1.319633        35.9090 
 134   0.0000       1.337348        36.3911 
 135   0.0000       1.385129        37.6913 
 136   0.0000       1.395136        37.9636 
 137   0.0000       1.409649        38.3585 
 138   0.0000       1.446847        39.3707 
 139   0.0000       1.468045        39.9475 
 140   0.0000       1.478852        40.2416 
 141   0.0000       1.520784        41.3826 
 142   0.0000       1.534872        41.7660 
 143   0.0000       1.626097        44.2484 
 144   0.0000       1.644088        44.7379 
 145   0.0000       1.649352        44.8812 
 146   0.0000       1.650793        44.9204 
 147   0.0000       1.654373        45.0178 
 148   0.0000       1.659320        45.1524 
 149   0.0000       1.701188        46.2917 
 150   0.0000       1.734396        47.1953 
 151   0.0000       1.785567        48.5878 
 152   0.0000       1.793905        48.8146 
 153   0.0000       1.802752        49.0554 
 154   0.0000       1.812976        49.3336 
 155   0.0000       1.823767        49.6272 
 156   0.0000       1.829477        49.7826 
 157   0.0000       1.862699        50.6866 
 158   0.0000       1.867518        50.8177 
 159   0.0000       1.884581        51.2820 
 160   0.0000       1.889684        51.4209 
 161   0.0000       1.902351        51.7656 
 162   0.0000       1.904368        51.8205 
 163   0.0000       1.916675        52.1554 
 164   0.0000       1.920641        52.2633 
 165   0.0000       1.921491        52.2864 
 166   0.0000       1.943378        52.8820 
 167   0.0000       1.947386        52.9911 
 168   0.0000       1.957125        53.2561 
 169   0.0000       1.960490        53.3477 
 170   0.0000       1.968001        53.5520 
 171   0.0000       1.969750        53.5996 
 172   0.0000       1.981058        53.9073 
 173   0.0000       1.984772        54.0084 
 174   0.0000       1.997722        54.3608 
 175   0.0000       2.009471        54.6805 
 176   0.0000       2.021200        54.9996 
 177   0.0000       2.033730        55.3406 
 178   0.0000       2.038771        55.4778 
 179   0.0000       2.059611        56.0449 
 180   0.0000       2.074755        56.4570 
 181   0.0000       2.082494        56.6675 
 182   0.0000       2.090989        56.8987 
 183   0.0000       2.134566        58.0845 
 184   0.0000       2.153712        58.6055 
 185   0.0000       2.175290        59.1927 
 186   0.0000       2.181408        59.3591 
 187   0.0000       2.225209        60.5510 
 188   0.0000       2.254235        61.3409 
 189   0.0000       2.261388        61.5355 
 190   0.0000       2.294414        62.4342 
 191   0.0000       2.362577        64.2890 
 192   0.0000       2.371708        64.5375 
 193   0.0000       2.373968        64.5990 
 194   0.0000       2.387023        64.9542 
 195   0.0000       2.415049        65.7168 
 196   0.0000       2.458993        66.9126 
 197   0.0000       2.478294        67.4378 
 198   0.0000       2.493430        67.8497 
 199   0.0000       2.497302        67.9550 
 200   0.0000       2.512551        68.3700 
 201   0.0000       2.521987        68.6268 
 202   0.0000       2.541856        69.1674 
 203   0.0000       2.564964        69.7962 
 204   0.0000       2.597149        70.6720 
 205   0.0000       2.602884        70.8281 
 206   0.0000       2.608928        70.9925 
 207   0.0000       2.627414        71.4956 
 208   0.0000       2.664440        72.5031 
 209   0.0000       2.677010        72.8451 
 210   0.0000       2.691304        73.2341 
 211   0.0000       2.699675        73.4619 
 212   0.0000       2.792993        76.0012 
 213   0.0000       2.800751        76.2123 
 214   0.0000       2.814678        76.5913 
 215   0.0000       2.835393        77.1550 
 216   0.0000       2.856907        77.7404 
 217   0.0000       2.880459        78.3813 
 218   0.0000       2.915874        79.3450 
 219   0.0000       2.941050        80.0300 
 220   0.0000       2.948853        80.2424 
 221   0.0000       2.961266        80.5802 
 222   0.0000       2.984777        81.2199 
 223   0.0000       2.989663        81.3529 
 224   0.0000       3.013383        81.9983 
 225   0.0000       3.030407        82.4616 
 226   0.0000       3.032611        82.5215 
 227   0.0000       3.039081        82.6976 
 228   0.0000       3.062184        83.3263 
 229   0.0000       3.083153        83.8969 
 230   0.0000       3.115605        84.7799 
 231   0.0000       3.143727        85.5452 
 232   0.0000       3.146492        85.6204 
 233   0.0000       3.152167        85.7748 
 234   0.0000       3.174660        86.3869 
 235   0.0000       3.295650        89.6792 
 236   0.0000       3.483216        94.7831 
 237   0.0000       3.607230        98.1577 
 238   0.0000       3.630800        98.7991 

                    ********************************
                    * MULLIKEN POPULATION ANALYSIS *
                    ********************************

-----------------------
MULLIKEN ATOMIC CHARGES
-----------------------
   0 N :   -0.171148
   1 C :    0.214247
   2 N :   -0.169294
   3 H :    0.124020
   4 C :    0.068874
   5 C :    0.065712
   6 C :   -0.057634
   7 C :   -0.058231
   8 C :    0.018758
   9 H :    0.077613
  10 C :   -0.017162
  11 C :    0.001241
  12 C :    0.004454
  13 H :    0.076918
  14 H :    0.092789
  15 H :    0.092079
  16 H :    0.044668
  17 H :    0.049419
  18 H :    0.056652
  19 H :    0.057232
  20 H :    0.050906
  21 H :    0.061896
  22 H :    0.047005
  23 H :    0.058452
  24 H :    0.053410
  25 H :    0.058085
  26 H :    0.046317
  27 H :    0.052721
Sum of atomic charges:    1.0000000

--------------------------------
MULLIKEN REDUCED ORBITAL CHARGES
--------------------------------
  0 N s       :     3.382510  s :     3.382510
      pz      :     1.217927  p :     3.754639
      px      :     1.161062
      py      :     1.375650
      dz2     :     0.007180  d :     0.033999
      dxz     :     0.009618
      dyz     :     0.004365
      dx2y2   :     0.006204
      dxy     :     0.006631
  1 C s       :     3.099251  s :     3.099251
      pz      :     0.916081  p :     2.619456
      px      :     0.769892
      py      :     0.933484
      dz2     :     0.010536  d :     0.067046
      dxz     :     0.020646
      dyz     :     0.006928
      dx2y2   :     0.011153
      dxy     :     0.017784
  2 N s       :     3.380841  s :     3.380841
      pz      :     1.221042  p :     3.754512
      px      :     1.162255
      py      :     1.371215
      dz2     :     0.007407  d :     0.033940
      dxz     :     0.009366
      dyz     :     0.004103
      dx2y2   :     0.006209
      dxy     :     0.006855
  3 H s       :     0.850760  s :     0.850760
      pz      :     0.015523  p :     0.025220
      px      :     0.001381
      py      :     0.008316
  4 C s       :     3.138819  s :     3.138819
      pz      :     0.855275  p :     2.743710
      px      :     0.912684
      py      :     0.975751
      dz2     :     0.011783  d :     0.048597
      dxz     :     0.011518
      dyz     :     0.008918
      dx2y2   :     0.007372
      dxy     :     0.009006
  5 C s       :     3.142785  s :     3.142785
      pz      :     0.863256  p :     2.743080
      px      :     0.910234
      py      :     0.969590
      dz2     :     0.011476  d :     0.048423
      dxz     :     0.011583
      dyz     :     0.008891
      dx2y2   :     0.007743
      dxy     :     0.008729
  6 C s       :     3.114899  s :     3.114899
      pz      :     1.066156  p :     2.886503
      px      :     0.773974
      py      :     1.046373
      dz2     :     0.009773  d :     0.056233
      dxz     :     0.010954
      dyz     :     0.009399
      dx2y2   :     0.016692
      dxy     :     0.009416
  7 C s       :     3.120888  s :     3.120888
      pz      :     1.053021  p :     2.881112
      px      :     0.777139
      py      :     1.050953
      dz2     :     0.010079  d :     0.056230
      dxz     :     0.010910
      dyz     :     0.010209
      dx2y2   :     0.015639
      dxy     :     0.009394
  8 C s       :     2.987832  s :     2.987832
      pz      :     0.978377  p :     2.966984
      px      :     1.017565
      py      :     0.971042
      dz2     :     0.005448  d :     0.026426
      dxz     :     0.005269
      dyz     :     0.006026
      dx2y2   :     0.007899
      dxy     :     0.001785
  9 H s       :     0.901071  s :     0.901071
      pz      :     0.011552  p :     0.021316
      px      :     0.006378
      py      :     0.003386
 10 C s       :     3.001100  s :     3.001100
      pz      :     1.020428  p :     2.989805
      px      :     1.044258
      py      :     0.925119
      dz2     :     0.005479  d :     0.026257
      dxz     :     0.003934
      dyz     :     0.006636
      dx2y2   :     0.007390
      dxy     :     0.002818
 11 C s       :     2.995369  s :     2.995369
      pz      :     0.942188  p :     2.977015
      px      :     1.033058
      py      :     1.001769
      dz2     :     0.007086  d :     0.026375
      dxz     :     0.004406
      dyz     :     0.005436
      dx2y2   :     0.006996
      dxy     :     0.002451
 12 C s       :     2.994002  s :     2.994002
      pz      :     1.028619  p :     2.975164
      px      :     1.027981
      py      :     0.918564
      dz2     :     0.005397  d :     0.026380
      dxz     :     0.003522
      dyz     :     0.006621
      dx2y2   :     0.007568
      dxy     :     0.003271
 13 H s       :     0.901727  s :     0.901727
      pz      :     0.008865  p :     0.021355
      px      :     0.006693
      py      :     0.005797
 14 H s       :     0.882067  s :     0.882067
      pz      :     0.009641  p :     0.025144
      px      :     0.008645
      py      :     0.006858
 15 H s       :     0.882778  s :     0.882778
      pz      :     0.010062  p :     0.025143
      px      :     0.008748
      py      :     0.006334
 16 H s       :     0.930905  s :     0.930905
      pz      :     0.012237  p :     0.024427
      px      :     0.007853
      py      :     0.004337
 17 H s       :     0.926266  s :     0.926266
      pz      :     0.005621  p :     0.024315
      px      :     0.004976
      py      :     0.013719
 18 H s       :     0.918588  s :     0.918588
      pz      :     0.005141  p :     0.024760
      px      :     0.015018
      py      :     0.004601
 19 H s       :     0.918448  s :     0.918448
      pz      :     0.009018  p :     0.024319
      px      :     0.006426
      py      :     0.008875
 20 H s       :     0.924473  s :     0.924473
      pz      :     0.013731  p :     0.024621
      px      :     0.006893
      py      :     0.003996
 21 H s       :     0.913356  s :     0.913356
      pz      :     0.005059  p :     0.024748
      px      :     0.015212
      py      :     0.004477
 22 H s       :     0.928419  s :     0.928419
      pz      :     0.010004  p :     0.024576
      px      :     0.007705
      py      :     0.006866
 23 H s       :     0.916800  s :     0.916800
      pz      :     0.004748  p :     0.024748
      px      :     0.015146
      py      :     0.004854
 24 H s       :     0.922334  s :     0.922334
      pz      :     0.003910  p :     0.024256
      px      :     0.005603
      py      :     0.014743
 25 H s       :     0.917165  s :     0.917165
      pz      :     0.005446  p :     0.024750
      px      :     0.015173
      py      :     0.004131
 26 H s       :     0.929121  s :     0.929121
      pz      :     0.010389  p :     0.024562
      px      :     0.007751
      py      :     0.006422
 27 H s       :     0.923013  s :     0.923013
      pz      :     0.013282  p :     0.024266
      px      :     0.005238
      py      :     0.005746


                     *******************************
                     * LOEWDIN POPULATION ANALYSIS *
                     *******************************

----------------------
LOEWDIN ATOMIC CHARGES
----------------------
   0 N :    0.113749
   1 C :    0.123542
   2 N :    0.113186
   3 H :    0.058782
   4 C :    0.020884
   5 C :    0.019055
   6 C :    0.041763
   7 C :    0.041906
   8 C :   -0.047408
   9 H :    0.049251
  10 C :   -0.050521
  11 C :   -0.049148
  12 C :   -0.048901
  13 H :    0.049344
  14 H :    0.056298
  15 H :    0.056200
  16 H :    0.033303
  17 H :    0.034706
  18 H :    0.041774
  19 H :    0.036954
  20 H :    0.034484
  21 H :    0.045602
  22 H :    0.033676
  23 H :    0.043125
  24 H :    0.036081
  25 H :    0.042900
  26 H :    0.033527
  27 H :    0.035888

-------------------------------
LOEWDIN REDUCED ORBITAL CHARGES
-------------------------------
  0 N s       :     3.043651  s :     3.043651
      pz      :     1.243433  p :     3.764510
      px      :     1.192743
      py      :     1.328333
      dz2     :     0.016553  d :     0.078090
      dxz     :     0.023637
      dyz     :     0.009739
      dx2y2   :     0.014328
      dxy     :     0.013834
  1 C s       :     2.827879  s :     2.827879
      pz      :     1.012341  p :     2.891394
      px      :     0.898866
      py      :     0.980187
      dz2     :     0.023008  d :     0.157185
      dxz     :     0.052619
      dyz     :     0.013590
      dx2y2   :     0.028016
      dxy     :     0.039952
  2 N s       :     3.043468  s :     3.043468
      pz      :     1.244854  p :     3.765350
      px      :     1.192888
      py      :     1.327608
      dz2     :     0.016939  d :     0.077997
      dxz     :     0.023202
      dyz     :     0.009268
      dx2y2   :     0.014215
      dxy     :     0.014372
  3 H s       :     0.863648  s :     0.863648
      pz      :     0.044140  p :     0.077571
      px      :     0.008250
      py      :     0.025180
  4 C s       :     2.847867  s :     2.847867
      pz      :     0.955484  p :     3.011078
      px      :     1.050631
      py      :     1.004964
      dz2     :     0.028683  d :     0.120171
      dxz     :     0.030506
      dyz     :     0.020184
      dx2y2   :     0.020242
      dxy     :     0.020556
  5 C s       :     2.847763  s :     2.847763
      pz      :     0.959725  p :     3.013346
      px      :     1.051091
      py      :     1.002531
      dz2     :     0.027731  d :     0.119836
      dxz     :     0.030658
      dyz     :     0.020256
      dx2y2   :     0.021307
      dxy     :     0.019885
  6 C s       :     2.831884  s :     2.831884
      pz      :     1.072154  p :     2.996790
      px      :     0.860887
      py      :     1.063749
      dz2     :     0.021042  d :     0.129564
      dxz     :     0.027284
      dyz     :     0.022288
      dx2y2   :     0.039510
      dxy     :     0.019441
  7 C s       :     2.832042  s :     2.832042
      pz      :     1.065122  p :     2.996458
      px      :     0.862019
      py      :     1.069317
      dz2     :     0.023983  d :     0.129594
      dxz     :     0.025834
      dyz     :     0.021903
      dx2y2   :     0.037302
      dxy     :     0.020572
  8 C s       :     2.829939  s :     2.829939
      pz      :     1.038425  p :     3.146887
      px      :     1.073691
      py      :     1.034772
      dz2     :     0.013331  d :     0.070582
      dxz     :     0.014087
      dyz     :     0.017094
      dx2y2   :     0.021497
      dxy     :     0.004574
  9 H s       :     0.883628  s :     0.883628
      pz      :     0.033832  p :     0.067121
      px      :     0.019228
      py      :     0.014060
 10 C s       :     2.827833  s :     2.827833
      pz      :     1.065966  p :     3.152294
      px      :     1.082537
      py      :     1.003791
      dz2     :     0.014582  d :     0.070394
      dxz     :     0.010201
      dyz     :     0.017431
      dx2y2   :     0.020824
      dxy     :     0.007356
 11 C s       :     2.829007  s :     2.829007
      pz      :     1.012922  p :     3.149566
      px      :     1.079331
      py      :     1.057312
      dz2     :     0.018828  d :     0.070576
      dxz     :     0.011499
      dyz     :     0.015166
      dx2y2   :     0.018785
      dxy     :     0.006298
 12 C s       :     2.829125  s :     2.829125
      pz      :     1.073843  p :     3.149191
      px      :     1.077170
      py      :     0.998178
      dz2     :     0.014835  d :     0.070584
      dxz     :     0.009141
      dyz     :     0.016698
      dx2y2   :     0.021324
      dxy     :     0.008586
 13 H s       :     0.883542  s :     0.883542
      pz      :     0.027298  p :     0.067114
      px      :     0.019978
      py      :     0.019839
 14 H s       :     0.868864  s :     0.868864
      pz      :     0.028473  p :     0.074837
      px      :     0.025105
      py      :     0.021260
 15 H s       :     0.868875  s :     0.868875
      pz      :     0.029599  p :     0.074925
      px      :     0.025371
      py      :     0.019954
 16 H s       :     0.898670  s :     0.898670
      pz      :     0.034239  p :     0.068027
      px      :     0.020966
      py      :     0.012822
 17 H s       :     0.897487  s :     0.897487
      pz      :     0.016094  p :     0.067807
      px      :     0.013462
      py      :     0.038251
 18 H s       :     0.890308  s :     0.890308
      pz      :     0.014565  p :     0.067919
      px      :     0.040165
      py      :     0.013188
 19 H s       :     0.895031  s :     0.895031
      pz      :     0.024285  p :     0.068015
      px      :     0.017194
      py      :     0.026536
 20 H s       :     0.897009  s :     0.897009
      pz      :     0.037062  p :     0.068508
      px      :     0.018453
      py      :     0.012992
 21 H s       :     0.886357  s :     0.886357
      pz      :     0.013495  p :     0.068042
      px      :     0.040708
      py      :     0.013839
 22 H s       :     0.898032  s :     0.898032
      pz      :     0.029034  p :     0.068292
      px      :     0.020472
      py      :     0.018785
 23 H s       :     0.888926  s :     0.888926
      pz      :     0.014399  p :     0.067948
      px      :     0.040426
      py      :     0.013123
 24 H s       :     0.896094  s :     0.896094
      pz      :     0.012561  p :     0.067825
      px      :     0.015009
      py      :     0.040254
 25 H s       :     0.889157  s :     0.889157
      pz      :     0.014270  p :     0.067943
      px      :     0.040526
      py      :     0.013147
 26 H s       :     0.898213  s :     0.898213
      pz      :     0.027741  p :     0.068260
      px      :     0.020658
      py      :     0.019861
 27 H s       :     0.896294  s :     0.896294
      pz      :     0.035447  p :     0.067818
      px      :     0.014131
      py      :     0.018240


                      *****************************
                      * MAYER POPULATION ANALYSIS *
                      *****************************

  NA   - Mulliken gross atomic population
  ZA   - Total nuclear charge
  QA   - Mulliken gross atomic charge
  VA   - Mayer's total valence
  BVA  - Mayer's bonded valence
  FA   - Mayer's free valence

  ATOM       NA         ZA         QA         VA         BVA        FA
  0 N      7.1711     7.0000    -0.1711     3.4392     3.4392     0.0000
  1 C      5.7858     6.0000     0.2142     3.8579     3.8579     0.0000
  2 N      7.1693     7.0000    -0.1693     3.4331     3.4331    -0.0000
  3 H      0.8760     1.0000     0.1240     1.0012     1.0012     0.0000
  4 C      5.9311     6.0000     0.0689     3.8559     3.8559     0.0000
  5 C      5.9343     6.0000     0.0657     3.8558     3.8558    -0.0000
  6 C      6.0576     6.0000    -0.0576     4.0644     4.0644    -0.0000
  7 C      6.0582     6.0000    -0.0582     4.0630     4.0630     0.0000
  8 C      5.9812     6.0000     0.0188     3.9426     3.9426    -0.0000
  9 H      0.9224     1.0000     0.0776     0.9762     0.9762    -0.0000
 10 C      6.0172     6.0000    -0.0172     3.9641     3.9641     0.0000
 11 C      5.9988     6.0000     0.0012     3.9510     3.9510     0.0000
 12 C      5.9955     6.0000     0.0045     3.9498     3.9498     0.0000
 13 H      0.9231     1.0000     0.0769     0.9773     0.9773    -0.0000
 14 H      0.9072     1.0000     0.0928     0.9975     0.9975     0.0000
 15 H      0.9079     1.0000     0.0921     0.9978     0.9978    -0.0000
 16 H      0.9553     1.0000     0.0447     1.0011     1.0011    -0.0000
 17 H      0.9506     1.0000     0.0494     0.9949     0.9949    -0.0000
 18 H      0.9433     1.0000     0.0567     0.9961     0.9961    -0.0000
 19 H      0.9428     1.0000     0.0572     0.9912     0.9912    -0.0000
 20 H      0.9491     1.0000     0.0509     0.9976     0.9976    -0.0000
 21 H      0.9381     1.0000     0.0619     0.9956     0.9956     0.0000
 22 H      0.9530     1.0000     0.0470     1.0002     1.0002     0.0000
 23 H      0.9415     1.0000     0.0585     0.9961     0.9961     0.0000
 24 H      0.9466     1.0000     0.0534     0.9922     0.9922    -0.0000
 25 H      0.9419     1.0000     0.0581     0.9962     0.9962     0.0000
 26 H      0.9537     1.0000     0.0463     1.0006     1.0006    -0.0000
[...]
     29       0.000356   0.000534   0.018354  -0.003851  -0.001952  -0.001519
     30      -0.000340   0.005108   0.079219   0.000027  -0.001046   0.000271
     31       0.000150  -0.001675  -0.024959  -0.000002  -0.000261   0.000032
     32      -0.000226   0.002403   0.035430  -0.000005   0.001916  -0.000236
     33       0.028441   0.073193  -0.004608   0.000012   0.000462  -0.000168
     34      -0.024982  -0.045168   0.002731   0.000011   0.000659  -0.000086
     35      -0.005374  -0.006864   0.000400   0.000005   0.000481  -0.000054
     36      -0.067215   0.031360  -0.002269  -0.000010   0.000225  -0.000098
     37      -0.011786   0.005853  -0.000417  -0.000019   0.000080   0.000004
     38       0.052897  -0.019930   0.001370   0.000013   0.000287  -0.000064
     39       0.007489  -0.011534   0.001284   0.003492   0.000609  -0.002416
     40       0.008020  -0.009713   0.001124   0.002152  -0.001219  -0.000912
     41       0.007839  -0.011879   0.001332   0.001971  -0.001562  -0.000481
     42      -0.000394   0.000540   0.000688   0.451939  -0.065658  -0.464683
     43      -0.000231   0.000243   0.000402   0.281192  -0.040435  -0.284813
     44      -0.000312   0.000328   0.000719   0.445290  -0.064141  -0.450358
     45      -0.000205   0.000711   0.000267   0.471249   0.059178   0.457648
     46       0.000136  -0.000372  -0.000005  -0.249399  -0.030944  -0.238074
     47       0.000177  -0.000711  -0.000128  -0.475497  -0.059049  -0.454613
     48      -0.000302  -0.001782  -0.035009   0.000276   0.000355  -0.000001
     49       0.000006   0.000032   0.000739   0.000126   0.000204   0.000031
     50       0.000560   0.003239   0.063654  -0.000746  -0.000966  -0.000054
     51      -0.000157  -0.000670  -0.012951   0.000128  -0.000024   0.000108
     52      -0.001471  -0.005663  -0.110854  -0.000057  -0.000885   0.000228
     53      -0.000773  -0.002963  -0.057727   0.000264  -0.000368   0.000311
     54      -0.002680  -0.011422  -0.226896   0.000611   0.000610  -0.000283
     55      -0.000337  -0.001495  -0.029297  -0.000167   0.000135  -0.000134
     56      -0.000581  -0.002392  -0.047712   0.000170   0.000029   0.000004
     57       0.001109  -0.013309  -0.200443  -0.000004  -0.002236   0.000159
     58      -0.002346   0.028260   0.426106  -0.000142   0.003551  -0.000242
     59       0.001972  -0.023655  -0.356862   0.000062  -0.002496   0.000090
     60      -0.000216  -0.000696  -0.017377   0.000096   0.012943  -0.001708
     61       0.000028  -0.000034   0.000304  -0.000247  -0.001071  -0.000064
     62       0.000322   0.002610   0.052920  -0.000433  -0.022648   0.002847
     63       0.003062  -0.046785  -0.727266   0.000802   0.005703  -0.001181
     64       0.000524  -0.008094  -0.126137   0.000445   0.000578   0.000090
     65       0.000488  -0.007554  -0.117765   0.000301   0.000834  -0.000071
     66       0.013779  -0.031105   0.002319   0.000075  -0.006851   0.000958
     67       0.008411  -0.045146   0.003211   0.000103  -0.005631   0.000848
     68       0.013488  -0.051925   0.003759   0.000474  -0.006189   0.000659
     69      -0.273727  -0.689310   0.043468   0.000813  -0.002393   0.000621
     70       0.015985   0.040891  -0.002573   0.000075   0.000138  -0.000104
     71       0.063645   0.162602  -0.010291  -0.000477   0.000357   0.000082
     72      -0.077711  -0.153241   0.009367   0.000003   0.001018  -0.000092
     73       0.275533   0.543460  -0.033261  -0.000170  -0.002993   0.000331
     74      -0.015749  -0.030234   0.001842   0.000007   0.000261  -0.000034
     75       0.684665  -0.313476   0.022743   0.000864  -0.001315   0.000314
     76      -0.075626   0.035377  -0.002589  -0.000361  -0.000033   0.000136
     77      -0.143874   0.065940  -0.004782  -0.000092   0.000169  -0.000071
     78       0.028832  -0.027579   0.002245   0.000156  -0.001622   0.000292
     79       0.037463  -0.032855   0.002648   0.000490  -0.002215   0.000210
     80       0.049010  -0.039558   0.003168   0.000303  -0.002182   0.000355
     81       0.087234  -0.034574   0.002393   0.000038   0.000231  -0.000069
     82       0.182875  -0.071519   0.004970   0.000010   0.000565  -0.000142
     83      -0.536759   0.210694  -0.014625  -0.000310  -0.001479   0.000511


-----------
IR SPECTRUM
-----------

 Mode   freq       eps      Int      T**2         TX        TY        TZ
       cm**-1   L/(mol*cm) km/mol    a.u.
----------------------------------------------------------------------------
  7:     39.05   0.000060    0.30  0.000482  (-0.002673 -0.021488  0.003572)
  8:     91.36   0.000027    0.14  0.000092  (-0.004267  0.007089 -0.004824)
  9:    132.16   0.000005    0.03  0.000012  (-0.000421 -0.000920 -0.003275)
 10:    163.10   0.000000    0.00  0.000000  (-0.000085  0.000257 -0.000408)
 11:    236.27   0.000011    0.05  0.000014  ( 0.003392  0.001022 -0.001293)
 12:    246.03   0.000008    0.04  0.000011  ( 0.002138  0.000959  0.002297)
 13:    273.93   0.000015    0.07  0.000017  ( 0.000914  0.003357  0.002121)
 14:    282.76   0.000026    0.13  0.000029  ( 0.000719 -0.000028  0.005358)
 15:    305.38   0.000111    0.56  0.000113  (-0.010603  0.000577 -0.000808)
 16:    315.95   0.000027    0.13  0.000026  ( 0.002273 -0.001939 -0.004156)
 17:    339.66   0.000027    0.14  0.000025  ( 0.004191  0.002624 -0.000893)
 18:    398.44   0.000103    0.52  0.000081  (-0.002787 -0.007904  0.003241)
 19:    451.32   0.000031    0.16  0.000022  ( 0.002446  0.002052  0.003391)
 20:    475.35   0.000001    0.00  0.000001  ( 0.000380  0.000624 -0.000336)
 21:    515.76   0.000220    1.11  0.000133  ( 0.011096  0.003060 -0.000775)
 22:    605.63   0.000505    2.55  0.000260  (-0.000200 -0.004921 -0.015365)
 23:    679.01   0.013987   70.68  0.006428  (-0.002389 -0.070191  0.038674)
 24:    682.55   0.000023    0.12  0.000011  ( 0.001159  0.001008  0.002892)
 25:    697.18   0.000491    2.48  0.000220  (-0.012058  0.008078 -0.003047)
 26:    775.97   0.010320   52.15  0.004150  (-0.004559  0.055390 -0.032580)
 27:    893.45   0.005131   25.93  0.001792  (-0.004383  0.035954 -0.021915)
 28:    911.38   0.000225    1.14  0.000077  ( 0.001657  0.002031  0.008373)
 29:    918.15   0.000538    2.72  0.000183  ( 0.012669  0.004191 -0.002191)
 30:    920.19   0.000020    0.10  0.000007  ( 0.001750  0.001177  0.001543)
 31:    939.41   0.000550    2.78  0.000183  (-0.000769 -0.011204  0.007524)
 32:    941.81   0.000776    3.92  0.000257  ( 0.000936 -0.015797  0.002566)
 33:    962.65   0.000152    0.77  0.000049  (-0.000536 -0.004482  0.005381)
 34:    964.65   0.000253    1.28  0.000082  (-0.000351 -0.009016  0.000617)
 35:   1026.59   0.003485   17.61  0.001059  (-0.032519 -0.000786  0.001144)
 36:   1036.43   0.000053    0.27  0.000016  (-0.000867 -0.002383 -0.003091)
 37:   1107.26   0.003621   18.30  0.001020  ( 0.000916 -0.016813 -0.027145)
 38:   1123.78   0.000206    1.04  0.000057  ( 0.006765 -0.001697  0.002940)
 39:   1136.81   0.000611    3.09  0.000168  (-0.001661 -0.005790 -0.011471)
 40:   1169.34   0.018003   90.98  0.004804  (-0.069254 -0.001838  0.002211)
 41:   1174.42   0.001910    9.65  0.000508  (-0.019428 -0.011405  0.000227)
 42:   1176.42   0.003934   19.88  0.001044  ( 0.008723  0.027286 -0.014930)
 43:   1191.31   0.001288    6.51  0.000337  (-0.001817 -0.006085 -0.017238)
 44:   1214.60   0.032852  166.02  0.008440  ( 0.091864 -0.000986 -0.000710)
 45:   1267.97   0.006076   30.70  0.001495  (-0.038599  0.002205 -0.000775)
 46:   1338.65   0.000027    0.13  0.000006  (-0.000166  0.002480 -0.000050)
 47:   1347.54   0.000222    1.12  0.000051  ( 0.006674  0.001691 -0.002010)
 48:   1352.38   0.000144    0.73  0.000033  (-0.004912  0.000274  0.003002)
 49:   1368.91   0.008375   42.32  0.001909  ( 0.043480 -0.003163  0.002943)
 50:   1395.52   0.002718   13.73  0.000608  (-0.000922 -0.000924 -0.024617)
 51:   1401.37   0.003584   18.11  0.000798  ( 0.006206 -0.025215  0.011125)
 52:   1404.46   0.004478   22.63  0.000995  (-0.000436  0.031106 -0.005216)
 53:   1407.18   0.004219   21.32  0.000936  ( 0.016159  0.008227  0.024635)
 54:   1408.60   0.006084   30.75  0.001348  ( 0.010997 -0.017907 -0.030104)
 55:   1444.25   0.000019    0.09  0.000004  ( 0.000731 -0.000105  0.001861)
 56:   1446.73   0.000068    0.34  0.000015  (-0.000210  0.001492  0.003524)
 57:   1451.87   0.000313    1.58  0.000067  ( 0.003037  0.006890 -0.003269)
 58:   1455.68   0.002443   12.35  0.000524  (-0.001785 -0.008730 -0.021081)
 59:   1461.71   0.005281   26.69  0.001127  ( 0.025915  0.004658 -0.020838)
 60:   1462.42   0.005506   27.82  0.001175  ( 0.014991  0.018646  0.024544)
 61:   1465.44   0.001030    5.20  0.000219  ( 0.011157 -0.007555  0.006138)
 62:   1474.25   0.000326    1.65  0.000069  ( 0.004800 -0.001500 -0.006613)
 63:   1486.39   0.000566    2.86  0.000119  (-0.010804  0.001422 -0.000324)
 64:   1512.17   0.000479    2.42  0.000099  ( 0.000433 -0.004540 -0.008831)
 65:   1645.20   0.016538   83.57  0.003137  ( 0.054992  0.005556  0.009050)
 66:   1648.10   0.013894   70.22  0.002631  (-0.049527  0.007805  0.010818)
 67:   3070.17   0.002521   12.74  0.000256  ( 0.002389 -0.015354  0.003852)
 68:   3070.42   0.002195   11.09  0.000223  ( 0.003800 -0.012521  0.007204)
 69:   3074.68   0.001741    8.80  0.000177  ( 0.000882  0.002255 -0.013069)
 70:   3074.89   0.001733    8.76  0.000176  (-0.000609  0.010058  0.008622)
 71:   3135.63   0.000757    3.83  0.000075  ( 0.005444  0.000695 -0.006725)
 72:   3139.82   0.000729    3.69  0.000072  ( 0.005268  0.004597  0.004858)
 73:   3174.22   0.001623    8.20  0.000160  ( 0.006607 -0.002116  0.010554)
 74:   3175.07   0.001148    5.80  0.000113  (-0.003370  0.009210  0.004083)
 75:   3178.36   0.004835   24.43  0.000475  (-0.010906 -0.000522  0.018855)
 76:   3179.72   0.004708   23.79  0.000462  (-0.012390 -0.013529 -0.011204)
 77:   3187.81   0.001925    9.73  0.000188  ( 0.009486  0.009924  0.000067)
 78:   3188.62   0.001531    7.74  0.000150  (-0.005939 -0.007055  0.008049)
 79:   3190.65   0.003054   15.43  0.000299  ( 0.015911 -0.006139 -0.002804)
 80:   3190.88   0.002100   10.61  0.000205  ( 0.013059 -0.002438  0.005379)
 81:   3299.63   0.005565   28.12  0.000526  ( 0.022913  0.000594 -0.000955)
 82:   3303.43   0.012411   62.72  0.001172  (-0.000534 -0.017287 -0.029551)
 83:   3317.56   0.002579   13.03  0.000243  (-0.000051 -0.007608 -0.013590)

* The epsilon (eps) is given for a Dirac delta lineshape.
** The dipole moment derivative (T) already includes vibrational overlap.

The first frequency considered to be a vibration is 7
The total number of vibrations considered is 77


--------------------------
THERMOCHEMISTRY AT 298.15K
--------------------------

Temperature         ... 298.15 K
Pressure            ... 1.00 atm
Total Mass          ... 153.25 AMU

Throughout the following assumptions are being made:
  (1) The electronic state is orbitally nondegenerate
  (2) There are no thermally accessible electronically excited states
  (3) Hindered rotations indicated by low frequency modes are not
      treated as such but are treated as vibrations and this may
      cause some error
  (4) All equations used are the standard statistical mechanics
      equations for an ideal gas
  (5) All vibrations are strictly harmonic

freq.      39.05  E(vib)   ...       0.54 
freq.      91.36  E(vib)   ...       0.47 
freq.     132.16  E(vib)   ...       0.42 
freq.     163.10  E(vib)   ...       0.39 
freq.     236.27  E(vib)   ...       0.32 
freq.     246.03  E(vib)   ...       0.31 
freq.     273.93  E(vib)   ...       0.28 
freq.     282.76  E(vib)   ...       0.28 
freq.     305.38  E(vib)   ...       0.26 
freq.     315.95  E(vib)   ...       0.25 
freq.     339.66  E(vib)   ...       0.23 
freq.     398.44  E(vib)   ...       0.20 
freq.     451.32  E(vib)   ...       0.16 
freq.     475.35  E(vib)   ...       0.15 
freq.     515.76  E(vib)   ...       0.13 
freq.     605.63  E(vib)   ...       0.10 
freq.     679.01  E(vib)   ...       0.08 
freq.     682.55  E(vib)   ...       0.08 
freq.     697.18  E(vib)   ...       0.07 
freq.     775.97  E(vib)   ...       0.05 
freq.     893.45  E(vib)   ...       0.03 
freq.     911.38  E(vib)   ...       0.03 
freq.     918.15  E(vib)   ...       0.03 
freq.     920.19  E(vib)   ...       0.03 
freq.     939.41  E(vib)   ...       0.03 
freq.     941.81  E(vib)   ...       0.03 
freq.     962.65  E(vib)   ...       0.03 
freq.     964.65  E(vib)   ...       0.03 
freq.    1026.59  E(vib)   ...       0.02 
freq.    1036.43  E(vib)   ...       0.02 
freq.    1107.26  E(vib)   ...       0.02 
freq.    1123.78  E(vib)   ...       0.01 
freq.    1136.81  E(vib)   ...       0.01 
freq.    1169.34  E(vib)   ...       0.01 
freq.    1174.42  E(vib)   ...       0.01 
freq.    1176.42  E(vib)   ...       0.01 
freq.    1191.31  E(vib)   ...       0.01 
freq.    1214.60  E(vib)   ...       0.01 
freq.    1267.97  E(vib)   ...       0.01 
freq.    1338.65  E(vib)   ...       0.01 
freq.    1347.54  E(vib)   ...       0.01 
freq.    1352.38  E(vib)   ...       0.01 
freq.    1368.91  E(vib)   ...       0.01 
freq.    1395.52  E(vib)   ...       0.00 
freq.    1401.37  E(vib)   ...       0.00 
freq.    1404.46  E(vib)   ...       0.00 
freq.    1407.18  E(vib)   ...       0.00 
freq.    1408.60  E(vib)   ...       0.00 
freq.    1444.25  E(vib)   ...       0.00 
freq.    1446.73  E(vib)   ...       0.00 
freq.    1451.87  E(vib)   ...       0.00 
freq.    1455.68  E(vib)   ...       0.00 
freq.    1461.71  E(vib)   ...       0.00 
freq.    1462.42  E(vib)   ...       0.00 
freq.    1465.44  E(vib)   ...       0.00 
freq.    1474.25  E(vib)   ...       0.00 
freq.    1486.39  E(vib)   ...       0.00 
freq.    1512.17  E(vib)   ...       0.00 
freq.    1645.20  E(vib)   ...       0.00 
freq.    1648.10  E(vib)   ...       0.00 
freq.    3070.17  E(vib)   ...       0.00 
freq.    3070.42  E(vib)   ...       0.00 
freq.    3074.68  E(vib)   ...       0.00 
freq.    3074.89  E(vib)   ...       0.00 
freq.    3135.63  E(vib)   ...       0.00 
freq.    3139.82  E(vib)   ...       0.00 
freq.    3174.22  E(vib)   ...       0.00 
freq.    3175.07  E(vib)   ...       0.00 
freq.    3178.36  E(vib)   ...       0.00 
freq.    3179.72  E(vib)   ...       0.00 
freq.    3187.81  E(vib)   ...       0.00 
freq.    3188.62  E(vib)   ...       0.00 
freq.    3190.65  E(vib)   ...       0.00 
freq.    3190.88  E(vib)   ...       0.00 
freq.    3299.63  E(vib)   ...       0.00 
freq.    3303.43  E(vib)   ...       0.00 
freq.    3317.56  E(vib)   ...       0.00 

------------
INNER ENERGY
------------

The inner energy is: U= E(el) + E(ZPE) + E(vib) + E(rot) + E(trans)
    E(el)   - is the total energy from the electronic structure calculation
              = E(kin-el) + E(nuc-el) + E(el-el) + E(nuc-nuc)
    E(ZPE)  - the the zero temperature vibrational energy from the frequency calculation
    E(vib)  - the the finite temperature correction to E(ZPE) due to population
              of excited vibrational states
    E(rot)  - is the rotational thermal energy
    E(trans)- is the translational thermal energy

Summary of contributions to the inner energy U:
Electronic energy                ...   -462.13545367 Eh
Zero point energy                ...      0.25541422 Eh     160.27 kcal/mol
Thermal vibrational correction   ...      0.00836871 Eh       5.25 kcal/mol
Thermal rotational correction    ...      0.00141627 Eh       0.89 kcal/mol
Thermal translational correction ...      0.00141627 Eh       0.89 kcal/mol
-----------------------------------------------------------------------
Total thermal energy                   -461.86883821 Eh


Summary of corrections to the electronic energy:
(perhaps to be used in another calculation)
Total thermal correction                  0.01120125 Eh       7.03 kcal/mol
Non-thermal (ZPE) correction              0.25541422 Eh     160.27 kcal/mol
-----------------------------------------------------------------------
Total correction                          0.26661547 Eh     167.30 kcal/mol


--------
ENTHALPY
--------

The enthalpy is H = U + kB*T
                kB is Boltzmann's constant
Total free energy                 ...   -461.86883821 Eh 
Thermal Enthalpy correction       ...      0.00094421 Eh       0.59 kcal/mol
-----------------------------------------------------------------------
Total Enthalpy                    ...   -461.86789400 Eh


Note: Only C1 symmetry has been detected, increase convergence thresholds 
      if your molecule has a higher symmetry. Symmetry factor of 1.0 is   
      used for the rotational entropy correction. 
 

Note: Rotational entropy computed according to Herzberg 
Infrared and Raman Spectra, Chapter V,1, Van Nostrand Reinhold, 1945 
Point Group:  C1, Symmetry Number:   1  
Rotational constants in cm-1:     0.066806     0.021047     0.019756 

Vibrational entropy computed according to the QRRHO of S. Grimme
Chem.Eur.J. 2012 18 9955


-------
ENTROPY
-------

The entropy contributions are T*S = T*(S(el)+S(vib)+S(rot)+S(trans))
     S(el)   - electronic entropy
     S(vib)  - vibrational entropy
     S(rot)  - rotational entropy
     S(trans)- translational entropy
The entropies will be listed as multiplied by the temperature to get
units of energy

Electronic entropy                ...      0.00000000 Eh      0.00 kcal/mol
Vibrational entropy               ...      0.01409660 Eh      8.85 kcal/mol
Rotational entropy                ...      0.01446364 Eh      9.08 kcal/mol
Translational entropy             ...      0.01947584 Eh     12.22 kcal/mol
-----------------------------------------------------------------------
Final entropy term                ...      0.04803608 Eh     30.14 kcal/mol

In case the symmetry of your molecule has not been determined correctly
or in case you have a reason to use a different symmetry number we print 
out the resulting rotational entropy values for sn=1,12 :
 --------------------------------------------------------
|  sn= 1 | S(rot)=       0.01446364 Eh      9.08 kcal/mol|
|  sn= 2 | S(rot)=       0.01380918 Eh      8.67 kcal/mol|
|  sn= 3 | S(rot)=       0.01342635 Eh      8.43 kcal/mol|
|  sn= 4 | S(rot)=       0.01315473 Eh      8.25 kcal/mol|
|  sn= 5 | S(rot)=       0.01294404 Eh      8.12 kcal/mol|
|  sn= 6 | S(rot)=       0.01277190 Eh      8.01 kcal/mol|
|  sn= 7 | S(rot)=       0.01262635 Eh      7.92 kcal/mol|
|  sn= 8 | S(rot)=       0.01250027 Eh      7.84 kcal/mol|
|  sn= 9 | S(rot)=       0.01238906 Eh      7.77 kcal/mol|
|  sn=10 | S(rot)=       0.01228958 Eh      7.71 kcal/mol|
|  sn=11 | S(rot)=       0.01219959 Eh      7.66 kcal/mol|
|  sn=12 | S(rot)=       0.01211744 Eh      7.60 kcal/mol|
 --------------------------------------------------------


-------------------
GIBBS FREE ENERGY
-------------------

The Gibbs free energy is G = H - T*S

Total enthalpy                    ...   -461.86789400 Eh 
Total entropy correction          ...     -0.04803608 Eh    -30.14 kcal/mol
-----------------------------------------------------------------------
Final Gibbs free energy         ...   -461.91593008 Eh

For completeness - the Gibbs free energy minus the electronic energy
G-E(el)                           ...      0.21952359 Eh    137.75 kcal/mol


Timings for individual modules:

Sum of individual times         ...     5786.251 sec (=  96.438 min)
GTO integral calculation        ...        3.894 sec (=   0.065 min)   0.1 %
SCF iterations                  ...     3265.988 sec (=  54.433 min)  56.4 %
SCF Gradient evaluation         ...      934.280 sec (=  15.571 min)  16.1 %
Geometry relaxation             ...        0.779 sec (=   0.013 min)   0.0 %
Analytical frequency calculation...     1581.309 sec (=  26.355 min)  27.3 %
                             ****ORCA TERMINATED NORMALLY****
TOTAL RUN TIME: 0 days 1 hours 36 minutes 27 seconds 842 msec
