
                                 *****************
                                 * O   R   C   A *
                                 *****************

                                            #,                                       
                                            ###                                      
                                            ####                                     
                                            #####                                    
                                            ######                                   
                                           ########,                                 
                                     ,,################,,,,,                         
                               ,,#################################,,                 
                          ,,##########################################,,             
                       ,#########################################, ''#####,          
                    ,#############################################,,   '####,        
                  ,##################################################,,,,####,       
                ,###########''''           ''''###############################       
              ,#####''   ,,,,##########,,,,          '''####'''          '####       
            ,##' ,,,,###########################,,,                        '##       
           ' ,,###''''                  '''############,,,                           
         ,,##''                                '''############,,,,        ,,,,,,###''
      ,#''                                            '''#######################'''  
     '                                                          ''''####''''         
             ,#######,   #######,   ,#######,      ##                                
            ,#'     '#,  ##    ##  ,#'     '#,    #''#        ######   ,####,        
            ##       ##  ##   ,#'  ##            #'  '#       #        #'  '#        
            ##       ##  #######   ##           ,######,      #####,   #    #        
            '#,     ,#'  ##    ##  '#,     ,#' ,#      #,         ##   #,  ,#        
             '#######'   ##     ##  '#######'  #'      '#     #####' # '####'        



                  #######################################################
                  #                        -***-                        #
                  #          Department of theory and spectroscopy      #
                  #    Directorship and core code : Frank Neese         #
                  #        Max Planck Institute fuer Kohlenforschung    #
                  #                Kaiser Wilhelm Platz 1               #
                  #                 D-45470 Muelheim/Ruhr               #
                  #                      Germany                        #
                  #                                                     #
                  #                  All rights reserved                #
                  #                        -***-                        #
                  #######################################################


                         Program Version 5.0.4 -  RELEASE  -


 With contributions from (in alphabetic order):
   Daniel Aravena         : Magnetic Suceptibility
   Michael Atanasov       : Ab Initio Ligand Field Theory (pilot matlab implementation)
   Alexander A. Auer      : GIAO ZORA, VPT2 properties, NMR spectrum
   Ute Becker             : Parallelization
   Giovanni Bistoni       : ED, misc. LED, open-shell LED, HFLD
   Martin Brehm           : Molecular dynamics
   Dmytro Bykov           : SCF Hessian
   Vijay G. Chilkuri      : MRCI spin determinant printing, contributions to CSF-ICE
   Dipayan Datta          : RHF DLPNO-CCSD density
   Achintya Kumar Dutta   : EOM-CC, STEOM-CC
   Dmitry Ganyushin       : Spin-Orbit,Spin-Spin,Magnetic field MRCI
   Miquel Garcia          : C-PCM and meta-GGA Hessian, CC/C-PCM, Gaussian charge scheme
   Yang Guo               : DLPNO-NEVPT2, F12-NEVPT2, CIM, IAO-localization
   Andreas Hansen         : Spin unrestricted coupled pair/coupled cluster methods
   Benjamin Helmich-Paris : MC-RPA, TRAH-SCF, COSX integrals
   Lee Huntington         : MR-EOM, pCC
   Robert Izsak           : Overlap fitted RIJCOSX, COSX-SCS-MP3, EOM
   Marcus Kettner         : VPT2
   Christian Kollmar      : KDIIS, OOCD, Brueckner-CCSD(T), CCSD density, CASPT2, CASPT2-K
   Simone Kossmann        : Meta GGA functionals, TD-DFT gradient, OOMP2, MP2 Hessian
   Martin Krupicka        : Initial AUTO-CI
   Lucas Lang             : DCDCAS
   Marvin Lechner         : AUTO-CI (C++ implementation), FIC-MRCC
   Dagmar Lenk            : GEPOL surface, SMD
   Dimitrios Liakos       : Extrapolation schemes; Compound Job, initial MDCI parallelization
   Dimitrios Manganas     : Further ROCIS development; embedding schemes
   Dimitrios Pantazis     : SARC Basis sets
   Anastasios Papadopoulos: AUTO-CI, single reference methods and gradients
   Taras Petrenko         : DFT Hessian,TD-DFT gradient, ASA, ECA, R-Raman, ABS, FL, XAS/XES, NRVS
   Peter Pinski           : DLPNO-MP2, DLPNO-MP2 Gradient
   Christoph Reimann      : Effective Core Potentials
   Marius Retegan         : Local ZFS, SOC
   Christoph Riplinger    : Optimizer, TS searches, QM/MM, DLPNO-CCSD(T), (RO)-DLPNO pert. Triples
   Tobias Risthaus        : Range-separated hybrids, TD-DFT gradient, RPA, STAB
   Michael Roemelt        : Original ROCIS implementation
   Masaaki Saitow         : Open-shell DLPNO-CCSD energy and density
   Barbara Sandhoefer     : DKH picture change effects
   Avijit Sen             : IP-ROCIS
   Kantharuban Sivalingam : CASSCF convergence, NEVPT2, FIC-MRCI
   Bernardo de Souza      : ESD, SOC TD-DFT
   Georgi Stoychev        : AutoAux, RI-MP2 NMR, DLPNO-MP2 response
   Willem Van den Heuvel  : Paramagnetic NMR
   Boris Wezisla          : Elementary symmetry handling
   Frank Wennmohs         : Technical directorship


 We gratefully acknowledge several colleagues who have allowed us to
 interface, adapt or use parts of their codes:
   Stefan Grimme, W. Hujo, H. Kruse, P. Pracht,  : VdW corrections, initial TS optimization,
                  C. Bannwarth, S. Ehlert          DFT functionals, gCP, sTDA/sTD-DF
   Ed Valeev, F. Pavosevic, A. Kumar             : LibInt (2-el integral package), F12 methods
   Garnet Chan, S. Sharma, J. Yang, R. Olivares  : DMRG
   Ulf Ekstrom                                   : XCFun DFT Library
   Mihaly Kallay                                 : mrcc  (arbitrary order and MRCC methods)
   Jiri Pittner, Ondrej Demel                    : Mk-CCSD
   Frank Weinhold                                : gennbo (NPA and NBO analysis)
   Christopher J. Cramer and Donald G. Truhlar   : smd solvation model
   Lars Goerigk                                  : TD-DFT with DH, B97 family of functionals
   V. Asgeirsson, H. Jonsson                     : NEB implementation
   FAccTs GmbH                                   : IRC, NEB, NEB-TS, DLPNO-Multilevel, CI-OPT
                                                   MM, QMMM, 2- and 3-layer-ONIOM, Crystal-QMMM,
                                                   LR-CPCM, SF, NACMEs, symmetry and pop. for TD-DFT,
                                                   nearIR, NL-DFT gradient (VV10), updates on ESD,
                                                   ML-optimized integration grids
   S Lehtola, MJT Oliveira, MAL Marques          : LibXC Library
   Liviu Ungur et al                             : ANISO software


 Your calculation uses the libint2 library for the computation of 2-el integrals
 For citations please refer to: http://libint.valeyev.net

 Your ORCA version has been built with support for libXC version: 5.1.0
 For citations please refer to: https://tddft.org/programs/libxc/

 This ORCA versions uses:
   CBLAS   interface :  Fast vector & matrix operations
   LAPACKE interface :  Fast linear algebra routines
   SCALAPACK package :  Parallel linear algebra routines
   Shared memory     :  Shared parallel matrices
   BLAS/LAPACK       :  OpenBLAS 0.3.15  USE64BITINT DYNAMIC_ARCH NO_AFFINITY SkylakeX SINGLE_THREADED
        Core in use  :  SkylakeX
   Copyright (c) 2011-2014, The OpenBLAS Project




***************************************
The coordinates will be read from file: 4_prot_aq_6.xyz
***************************************


Your calculation utilizes the atom-pairwise dispersion correction
based on tight binding partial charges (D4)
Cite in your paper:
E.Caldeweyher, C.Bannwarth, S.Grimme, J.Chem.Phys., (2017), 147, 034112.
E.Caldeweyher, S.Ehlert, A.Hansen, H.Neugebauer, S.Grimme, J.Chem.Phys., (2018), in progress.
   

XCFun DFT library Copyright 2009-2010 Ulf Ekstrom and contributors.
See http://admol.org/xcfun for more information.
This is free software; see the source code for copying conditions.
There is ABSOLUTELY NO WARRANTY; not even for MERCHANTABILITY or FITNESS FOR A PARTICULAR PURPOSE.
For details see the documentation.
Scientific users of this library should cite U. Ekstrom, L. Visscher, R. Bast, A. J. Thorvaldsen and K. Ruud;
J.Chem.Theor.Comp. 2010, DOI: 10.1021/ct100117s
XCFun Version 0.99 

================================================================================

----- Orbital basis set information -----
Your calculation utilizes the basis: def2-SVP
   F. Weigend and R. Ahlrichs, Phys. Chem. Chem. Phys. 7, 3297 (2005).

----- AuxJ basis set information -----
Your calculation utilizes the auxiliary basis: def2/J
   F. Weigend, Phys. Chem. Chem. Phys. 8, 1057 (2006).

================================================================================
                                        WARNINGS
                       Please study these warnings very carefully!
================================================================================


WARNING: Geometry Optimization
  ===> : Switching off AutoStart
         For restart on a previous wavefunction, please use MOREAD

INFO   : the flag for use of the SHARK integral package has been found!

================================================================================
                                       INPUT FILE
================================================================================
NAME = 4_prot_aq_6.inp
|  1> # ORCA 5.0.4 - /users/bwb16179/postgrad/2024_03/DFT_Crest_Conformers/Opt/prot/4_prot_aq_6.inp # write input file
|  2> # Basic Mode
|  3> #
|  4> ! Opt Freq wB97X Def2-SVP D4 SlowConv TightSCF Defgrid2 Def2/J RIJCOSX CPCM(Water)
|  5> 
|  6> 
|  7> 
|  8> %maxcore 4500
|  9> 
| 10> %geom
| 11> Maxiter 150
| 12> END
| 13> 
| 14> * xyzfile 1 1 4_prot_aq_6.xyz
| 15> 
| 16>                          ****END OF INPUT****
================================================================================

                       *****************************
                       * Geometry Optimization Run *
                       *****************************

Geometry optimization settings:
Update method            Update   .... BFGS
Choice of coordinates    CoordSys .... Z-matrix Internals
Initial Hessian          InHess   .... Almoef's Model

Convergence Tolerances:
Energy Change            TolE     ....  5.0000e-06 Eh
Max. Gradient            TolMAXG  ....  3.0000e-04 Eh/bohr
RMS Gradient             TolRMSG  ....  1.0000e-04 Eh/bohr
Max. Displacement        TolMAXD  ....  4.0000e-03 bohr
RMS Displacement         TolRMSD  ....  2.0000e-03 bohr
Strict Convergence                ....  False
------------------------------------------------------------------------------
                        ORCA OPTIMIZATION COORDINATE SETUP
------------------------------------------------------------------------------

The optimization will be done in new redundant internal coordinates
Making redundant internal coordinates   ...  (new redundants) done
Evaluating the initial hessian          ...  (Almloef) done
Evaluating the coordinates              ...  done
Calculating the B-matrix                .... done
Calculating the G-matrix                .... done
Diagonalizing the G-matrix              .... done
Small eigenvalue found = 1.207e-02
Small eigenvalue found = 2.201e-02
The first mode is                       ....   69
The number of degrees of freedom        ....   78

    -----------------------------------------------------------------
                    Redundant Internal Coordinates


    -----------------------------------------------------------------
         Definition                    Initial Value    Approx d2E/dq
    -----------------------------------------------------------------
      1. B(C   1,N   0)                  1.3302         0.697079   
      2. B(N   2,C   1)                  1.3296         0.698495   
      3. B(H   3,C   1)                  1.0709         0.386341   
      4. B(C   4,N   2)                  1.3606         0.623316   
      5. B(C   5,C   4)                  1.3617         0.693345   
      6. B(C   5,N   0)                  1.3602         0.624369   
      7. B(C   6,N   0)                  1.4600         0.432695   
      8. B(C   7,N   2)                  1.4600         0.432635   
      9. B(C   8,C   6)                  1.5265         0.378355   
     10. B(H   9,C   6)                  1.0942         0.354568   
     11. B(C  10,C   6)                  1.5244         0.381313   
     12. B(C  11,C   7)                  1.5236         0.382524   
     13. B(C  12,C   7)                  1.5272         0.377438   
     14. B(H  13,C   7)                  1.0945         0.354177   
     15. B(H  14,C   4)                  1.0707         0.386534   
     16. B(H  15,C   5)                  1.0707         0.386511   
     17. B(H  16,C   8)                  1.0857         0.365887   
     18. B(H  17,C   8)                  1.0872         0.363831   
     19. B(H  18,C   8)                  1.0874         0.363598   
     20. B(H  19,C  10)                  1.0866         0.364630   
     21. B(H  20,C  10)                  1.0859         0.365616   
     22. B(H  21,C  10)                  1.0874         0.363567   
     23. B(H  22,C  11)                  1.0867         0.364539   
     24. B(H  23,C  11)                  1.0859         0.365500   
     25. B(H  24,C  11)                  1.0874         0.363516   
     26. B(H  25,C  12)                  1.0873         0.363660   
     27. B(H  26,C  12)                  1.0856         0.365925   
     28. B(H  27,C  12)                  1.0874         0.363554   
     29. A(C   1,N   0,C   6)          126.5213         0.410283   
     30. A(C   5,N   0,C   6)          125.5877         0.402371   
     31. A(C   1,N   0,C   5)          107.8541         0.438087   
     32. A(N   0,C   1,H   3)          125.1618         0.362085   
     33. A(N   2,C   1,H   3)          125.2496         0.362211   
     34. A(N   0,C   1,N   2)          109.5885         0.447065   
     35. A(C   1,N   2,C   7)          126.9230         0.410421   
     36. A(C   1,N   2,C   4)          107.8444         0.438114   
     37. A(C   4,N   2,C   7)          125.1647         0.402242   
     38. A(N   2,C   4,H  14)          122.6338         0.355289   
     39. A(C   5,C   4,H  14)          130.0071         0.364048   
     40. A(N   2,C   4,C   5)          107.3589         0.440422   
     41. A(N   0,C   5,C   4)          107.3537         0.440556   
     42. A(N   0,C   5,H  15)          122.6781         0.355387   
     43. A(C   4,C   5,H  15)          129.9683         0.364044   
     44. A(N   0,C   6,C  10)          110.5222         0.371602   
     45. A(C   8,C   6,H   9)          109.3554         0.324172   
     46. A(N   0,C   6,H   9)          106.0615         0.329430   
     47. A(N   0,C   6,C   8)          109.3542         0.371105   
     48. A(H   9,C   6,C  10)          109.3303         0.324586   
     49. A(C   8,C   6,C  10)          112.0348         0.365422   
     50. A(C  12,C   7,H  13)          109.3453         0.323984   
     51. A(C  11,C   7,H  13)          109.3689         0.324697   
     52. A(N   2,C   7,H  13)          106.0571         0.329362   
     53. A(C  11,C   7,C  12)          111.9258         0.365468   
     54. A(N   2,C   7,C  12)          109.0751         0.370941   
     55. A(N   2,C   7,C  11)          110.8893         0.371796   
     56. A(C   6,C   8,H  18)          110.9648         0.325514   
     57. A(H  16,C   8,H  17)          108.2934         0.292042   
     58. A(C   6,C   8,H  17)          110.9811         0.325548   
     59. A(C   6,C   8,H  16)          109.4163         0.325850   
     60. A(H  17,C   8,H  18)          108.8743         0.291754   
     61. A(H  16,C   8,H  18)          108.2297         0.292013   
     62. A(H  19,C  10,H  21)          109.1328         0.291851   
     63. A(C   6,C  10,H  21)          110.9848         0.325927   
     64. A(H  19,C  10,H  20)          107.8355         0.292109   
     65. A(C   6,C  10,H  20)          109.1657         0.326228   
     66. A(H  20,C  10,H  21)          108.0911         0.291975   
     67. A(C   6,C  10,H  19)          111.5184         0.326083   
     68. A(H  23,C  11,H  24)          108.0430         0.291954   
     69. A(H  22,C  11,H  24)          109.2849         0.291833   
     70. A(C   7,C  11,H  24)          111.0670         0.326089   
     71. A(H  22,C  11,H  23)          107.6922         0.292083   
     72. A(C   7,C  11,H  23)          109.0724         0.326381   
     73. A(C   7,C  11,H  22)          111.5582         0.326240   
     74. A(H  26,C  12,H  27)          108.3529         0.292012   
     75. A(H  25,C  12,H  27)          108.8537         0.291727   
     76. A(C   7,C  12,H  27)          110.8183         0.325378   
     77. A(H  25,C  12,H  26)          108.2699         0.292025   
     78. A(C   7,C  12,H  26)          109.4401         0.325726   
     79. A(C   7,C  12,H  25)          111.0295         0.325393   
     80. D(H   3,C   1,N   0,C   5)   -179.8837         0.040177   
     81. D(H   3,C   1,N   0,C   6)     -2.0036         0.040177   
     82. D(N   2,C   1,N   0,C   6)    177.8797         0.040177   
     83. D(N   2,C   1,N   0,C   5)     -0.0004         0.040177   
     84. D(C   7,N   2,C   1,H   3)     -2.8626         0.040357   
     85. D(C   7,N   2,C   1,N   0)    177.2542         0.040357   
     86. D(C   4,N   2,C   1,H   3)   -179.9715         0.040357   
     87. D(C   4,N   2,C   1,N   0)      0.1453         0.040357   
     88. D(H  14,C   4,N   2,C   1)    179.9166         0.031487   
     89. D(C   5,C   4,N   2,C   7)   -177.4050         0.031487   
     90. D(H  14,C   4,N   2,C   7)      2.7437         0.031487   
     91. D(C   5,C   4,N   2,C   1)     -0.2321         0.031487   
     92. D(H  15,C   5,N   0,C   1)    179.8705         0.031602   
     93. D(C   4,C   5,N   0,C   6)   -178.0492         0.031602   
     94. D(C   4,C   5,N   0,C   1)     -0.1441         0.031602   
     95. D(H  15,C   5,C   4,H  14)      0.0511         0.033804   
     96. D(H  15,C   5,C   4,N   2)   -179.7855         0.033804   
     97. D(N   0,C   5,C   4,H  14)   -179.9329         0.033804   
     98. D(N   0,C   5,C   4,N   2)      0.2306         0.033804   
     99. D(H  15,C   5,N   0,C   6)      1.9654         0.031602   
    100. D(C  10,C   6,N   0,C   5)   -132.0853         0.015963   
    101. D(C  10,C   6,N   0,C   1)     50.3962         0.015963   
    102. D(H   9,C   6,N   0,C   5)    -13.6887         0.015963   
    103. D(H   9,C   6,N   0,C   1)    168.7928         0.015963   
    104. D(C   8,C   6,N   0,C   5)    104.1301         0.015963   
    105. D(C   8,C   6,N   0,C   1)    -73.3884         0.015963   
    106. D(C  12,C   7,N   2,C   4)     94.5272         0.015958   
    107. D(C  11,C   7,N   2,C   4)   -141.7712         0.015958   
    108. D(C  11,C   7,N   2,C   1)     41.5956         0.015958   
    109. D(H  13,C   7,N   2,C   1)    160.2314         0.015958   
    110. D(C  12,C   7,N   2,C   1)    -82.1060         0.015958   
    111. D(H  13,C   7,N   2,C   4)    -23.1354         0.015958   
    112. D(H  18,C   8,C   6,C  10)   -179.5931         0.011414   
    113. D(H  18,C   8,C   6,H   9)     59.0301         0.011414   
    114. D(H  18,C   8,C   6,N   0)    -56.7041         0.011414   
    115. D(H  17,C   8,C   6,C  10)    -58.3975         0.011414   
    116. D(H  17,C   8,C   6,H   9)   -179.7742         0.011414   
    117. D(H  17,C   8,C   6,N   0)     64.4915         0.011414   
    118. D(H  16,C   8,C   6,C  10)     61.0492         0.011414   
    119. D(H  16,C   8,C   6,H   9)    -60.3276         0.011414   
    120. D(H  16,C   8,C   6,N   0)   -176.0618         0.011414   
    121. D(H  21,C  10,C   6,H   9)    -64.5671         0.011584   
    122. D(H  21,C  10,C   6,C   8)    174.0417         0.011584   
    123. D(H  21,C  10,C   6,N   0)     51.8163         0.011584   
    124. D(H  20,C  10,C   6,H   9)     54.4726         0.011584   
    125. D(H  20,C  10,C   6,C   8)    -66.9186         0.011584   
    126. D(H  20,C  10,C   6,N   0)    170.8560         0.011584   
    127. D(H  19,C  10,C   6,H   9)    173.5238         0.011584   
    128. D(H  19,C  10,C   6,C   8)     52.1326         0.011584   
    129. D(H  19,C  10,C   6,N   0)    -70.0928         0.011584   
    130. D(H  24,C  11,C   7,C  12)    172.5416         0.011654   
    131. D(H  24,C  11,C   7,N   2)     50.4893         0.011654   
    132. D(H  23,C  11,C   7,H  13)     52.8466         0.011654   
    133. D(H  23,C  11,C   7,C  12)    -68.4868         0.011654   
    134. D(H  23,C  11,C   7,N   2)    169.4609         0.011654   
    135. D(H  22,C  11,C   7,H  13)    171.6848         0.011654   
    136. D(H  22,C  11,C   7,C  12)     50.3514         0.011654   
    137. D(H  24,C  11,C   7,H  13)    -66.1251         0.011654   
    138. D(H  22,C  11,C   7,N   2)    -71.7009         0.011654   
    139. D(H  26,C  12,C   7,N   2)   -176.6914         0.011362   
    140. D(H  25,C  12,C   7,H  13)     58.3392         0.011362   
    141. D(H  25,C  12,C   7,C  11)    179.6862         0.011362   
    142. D(H  25,C  12,C   7,N   2)    -57.2287         0.011362   
    143. D(H  27,C  12,C   7,H  13)    179.4420         0.011362   
    144. D(H  27,C  12,C   7,C  11)    -59.2110         0.011362   
    145. D(H  27,C  12,C   7,N   2)     63.8742         0.011362   
    146. D(H  26,C  12,C   7,H  13)    -61.1236         0.011362   
    147. D(H  26,C  12,C   7,C  11)     60.2234         0.011362   
    -----------------------------------------------------------------

Number of atoms                         .... 28
Number of degrees of freedom            .... 147

         *************************************************************
         *                GEOMETRY OPTIMIZATION CYCLE   1            *
         *************************************************************
---------------------------------
CARTESIAN COORDINATES (ANGSTROEM)
---------------------------------
  N     -1.088414   -0.160745    0.371794
  C     -0.005276    0.134616   -0.341653
  N      1.080864   -0.032847    0.406825
  H     -0.008615    0.459452   -1.362043
  C      0.678733   -0.451786    1.637328
  C     -0.680588   -0.528728    1.616131
  C     -2.475430   -0.062976   -0.073459
  C      2.469504    0.130511   -0.013564
  C     -2.883130    1.406624   -0.139615
  H     -3.074399   -0.571566    0.688038
  C     -2.657731   -0.767914   -1.412743
  C      2.627700    1.359341   -0.900228
  C      2.931101   -1.143805   -0.717400
  H      3.049512    0.268126    0.904377
  H      1.367733   -0.660745    2.429825
  H     -1.365409   -0.814896    2.387882
  H     -3.933913    1.478144   -0.403052
  H     -2.305666    1.937294   -0.892552
  H     -2.739556    1.893863    0.821819
  H     -2.168826   -0.226389   -2.217985
  H     -3.717021   -0.823984   -1.644811
  H     -2.266046   -1.781637   -1.375727
  H      2.187065    1.203295   -1.881213
  H      3.685330    1.560994   -1.041791
  H      2.176679    2.234793   -0.439069
  H      2.817102   -2.010130   -0.070287
  H      3.980258   -1.051371   -0.980688
  H      2.362507   -1.309196   -1.629425

----------------------------
CARTESIAN COORDINATES (A.U.)
----------------------------
  NO LB      ZA    FRAG     MASS         X           Y           Z
   0 N     7.0000    0    14.007   -2.056804   -0.303764    0.702590
   1 C     6.0000    0    12.011   -0.009970    0.254388   -0.645630
   2 N     7.0000    0    14.007    2.042537   -0.062072    0.768789
   3 H     1.0000    0     1.008   -0.016279    0.868238   -2.573889
   4 C     6.0000    0    12.011    1.282620   -0.853752    3.094102
   5 C     6.0000    0    12.011   -1.286126   -0.999151    3.054046
   6 C     6.0000    0    12.011   -4.677885   -0.119007   -0.138816
   7 C     6.0000    0    12.011    4.666686    0.246629   -0.025632
   8 C     6.0000    0    12.011   -5.448326    2.658135   -0.263833
   9 H     1.0000    0     1.008   -5.809772   -1.080103    1.300203
  10 C     6.0000    0    12.011   -5.022384   -1.451148   -2.669697
  11 C     6.0000    0    12.011    4.965633    2.568782   -1.701184
  12 C     6.0000    0    12.011    5.538978   -2.161478   -1.355690
  13 H     1.0000    0     1.008    5.762743    0.506685    1.709024
  14 H     1.0000    0     1.008    2.584641   -1.248628    4.591703
  15 H     1.0000    0     1.008   -2.580249   -1.539930    4.512442
  16 H     1.0000    0     1.008   -7.434018    2.793287   -0.761659
  17 H     1.0000    0     1.008   -4.357077    3.660955   -1.686679
  18 H     1.0000    0     1.008   -5.177010    3.578882    1.553013
  19 H     1.0000    0     1.008   -4.098488   -0.427814   -4.191384
  20 H     1.0000    0     1.008   -7.024152   -1.557104   -3.108242
  21 H     1.0000    0     1.008   -4.282206   -3.366806   -2.599748
  22 H     1.0000    0     1.008    4.132954    2.273898   -3.554977
  23 H     1.0000    0     1.008    6.964264    2.949852   -1.968699
  24 H     1.0000    0     1.008    4.113326    4.223146   -0.829720
  25 H     1.0000    0     1.008    5.323551   -3.798594   -0.132824
  26 H     1.0000    0     1.008    7.521598   -1.986804   -1.853232
  27 H     1.0000    0     1.008    4.464490   -2.474021   -3.079166

--------------------------------
INTERNAL COORDINATES (ANGSTROEM)
--------------------------------
 N      0   0   0     0.000000000000     0.00000000     0.00000000
 C      1   0   0     1.330200427733     0.00000000     0.00000000
 N      2   1   0     1.329647993141   109.58846559     0.00000000
 H      2   1   3     1.070852933242   125.16179850   180.11669012
 C      3   2   1     1.360645711753   107.84435319     0.14528072
 C      1   2   3     1.360186492159   107.85405649     0.00000000
 C      1   2   3     1.460008182323   126.52132096   177.87966980
 C      3   2   1     1.460045705432   126.92304629   177.25424388
 C      7   1   2     1.526538648972   109.35415802   286.61158759
 H      7   1   2     1.094214025725   106.06152705   168.79278716
 C      7   1   2     1.524419297985   110.52223227    50.39616975
 C      8   3   2     1.523555957453   110.88926656    41.59558768
 C      8   3   2     1.527199224543   109.07507514   277.89399963
 H      8   3   2     1.094514766459   106.05708653   160.23142147
 H      5   3   2     1.070717158811   122.63382932   179.91657760
 H      6   1   2     1.070733219811   122.67806263   179.87052670
 H      9   7   1     1.085660235015   109.41631930   183.93820771
 H      9   7   1     1.087193992053   110.98107702    64.49152928
 H      9   7   1     1.087368284165   110.96477659   303.29588447
 H     11   7   1     1.086596746063   111.51840929   289.90724784
 H     11   7   1     1.085861569337   109.16572441   170.85603748
 H     11   7   1     1.087391849045   110.98476000    51.81631510
 H     12   8   3     1.086665242286   111.55821457   288.29906711
 H     12   8   3     1.085948552329   109.07237879   169.46087346
 H     12   8   3     1.087429782823   111.06703612    50.48925295
 H     13   8   3     1.087321987097   111.02947347   302.77134747
 H     13   8   3     1.085631739583   109.44010684   183.30856116
 H     13   8   3     1.087401347247   110.81830928    63.87417046

---------------------------
INTERNAL COORDINATES (A.U.)
---------------------------
 N      0   0   0     0.000000000000     0.00000000     0.00000000
 C      1   0   0     2.513714511641     0.00000000     0.00000000
 N      2   1   0     2.512670561555   109.58846559     0.00000000
 H      2   1   3     2.023618773533   125.16179850   180.11669012
 C      3   2   1     2.571247760508   107.84435319     0.14528072
 C      1   2   3     2.570379961240   107.85405649     0.00000000
 C      1   2   3     2.759015617875   126.52132096   177.87966980
 C      3   2   1     2.759086526274   126.92304629   177.25424388
 C      7   1   2     2.884739979403   109.35415802   286.61158759
 H      7   1   2     2.067764840516   106.06152705   168.79278716
 C      7   1   2     2.880734986456   110.52223227    50.39616975
 C      8   3   2     2.879103509290   110.88926656    41.59558768
 C      8   3   2     2.885988286323   109.07507514   277.89399963
 H      8   3   2     2.068333158141   106.05708653   160.23142147
 H      5   3   2     2.023362197043   122.63382932   179.91657760
 H      6   1   2     2.023392547934   122.67806263   179.87052670
 H      9   7   1     2.051600518666   109.41631930   183.93820771
 H      9   7   1     2.054498899424   110.98107702    64.49152928
 H      9   7   1     2.054828263784   110.96477659   303.29588447
 H     11   7   1     2.053370268068   111.51840929   289.90724784
 H     11   7   1     2.051980985397   109.16572441   170.85603748
 H     11   7   1     2.054872794952   110.98476000    51.81631510
 H     12   8   3     2.053499707172   111.55821457   288.29906711
 H     12   8   3     2.052145359429   109.07237879   169.46087346
 H     12   8   3     2.054944479405   111.06703612    50.48925295
 H     13   8   3     2.054740775005   111.02947347   302.77134747
 H     13   8   3     2.051546670104   109.44010684   183.30856116
 H     13   8   3     2.054890743954   110.81830928    63.87417046

---------------------
BASIS SET INFORMATION
---------------------
There are 3 groups of distinct atoms

 Group   1 Type N   : 7s4p1d contracted to 3s2p1d pattern {511/31/1}
 Group   2 Type C   : 7s4p1d contracted to 3s2p1d pattern {511/31/1}
 Group   3 Type H   : 4s1p contracted to 2s1p pattern {31/1}

Atom   0N    basis set group =>   1
Atom   1C    basis set group =>   2
Atom   2N    basis set group =>   1
Atom   3H    basis set group =>   3
Atom   4C    basis set group =>   2
Atom   5C    basis set group =>   2
Atom   6C    basis set group =>   2
Atom   7C    basis set group =>   2
Atom   8C    basis set group =>   2
Atom   9H    basis set group =>   3
Atom  10C    basis set group =>   2
Atom  11C    basis set group =>   2
Atom  12C    basis set group =>   2
Atom  13H    basis set group =>   3
Atom  14H    basis set group =>   3
Atom  15H    basis set group =>   3
Atom  16H    basis set group =>   3
Atom  17H    basis set group =>   3
Atom  18H    basis set group =>   3
Atom  19H    basis set group =>   3
Atom  20H    basis set group =>   3
Atom  21H    basis set group =>   3
Atom  22H    basis set group =>   3
Atom  23H    basis set group =>   3
Atom  24H    basis set group =>   3
Atom  25H    basis set group =>   3
Atom  26H    basis set group =>   3
Atom  27H    basis set group =>   3
---------------------------------
AUXILIARY/J BASIS SET INFORMATION
---------------------------------
There are 3 groups of distinct atoms

 Group   1 Type N   : 12s5p4d2f1g contracted to 6s4p3d1f1g pattern {711111/2111/211/2/1}
 Group   2 Type C   : 12s5p4d2f1g contracted to 6s4p3d1f1g pattern {711111/2111/211/2/1}
 Group   3 Type H   : 5s2p1d contracted to 3s1p1d pattern {311/2/1}

Atom   0N    basis set group =>   1
Atom   1C    basis set group =>   2
Atom   2N    basis set group =>   1
Atom   3H    basis set group =>   3
Atom   4C    basis set group =>   2
Atom   5C    basis set group =>   2
Atom   6C    basis set group =>   2
Atom   7C    basis set group =>   2
Atom   8C    basis set group =>   2
Atom   9H    basis set group =>   3
Atom  10C    basis set group =>   2
Atom  11C    basis set group =>   2
Atom  12C    basis set group =>   2
Atom  13H    basis set group =>   3
Atom  14H    basis set group =>   3
Atom  15H    basis set group =>   3
Atom  16H    basis set group =>   3
Atom  17H    basis set group =>   3
Atom  18H    basis set group =>   3
Atom  19H    basis set group =>   3
Atom  20H    basis set group =>   3
Atom  21H    basis set group =>   3
Atom  22H    basis set group =>   3
Atom  23H    basis set group =>   3
Atom  24H    basis set group =>   3
Atom  25H    basis set group =>   3
Atom  26H    basis set group =>   3
Atom  27H    basis set group =>   3
------------------------------------------------------------------------------
                           ORCA GTO INTEGRAL CALCULATION
                           -- RI-GTO INTEGRALS CHOSEN --
------------------------------------------------------------------------------
------------------------------------------------------------------------------
                   ___                                                        
                  /   \      - P O W E R E D   B Y -                         
                 /     \                                                     
                 |  |  |   _    _      __       _____    __    __             
                 |  |  |  | |  | |    /  \     |  _  \  |  |  /  |          
                  \  \/   | |  | |   /    \    | | | |  |  | /  /          
                 / \  \   | |__| |  /  /\  \   | |_| |  |  |/  /          
                |  |  |   |  __  | /  /__\  \  |    /   |      \           
                |  |  |   | |  | | |   __   |  |    \   |  |\   \          
                \     /   | |  | | |  |  |  |  | |\  \  |  | \   \       
                 \___/    |_|  |_| |__|  |__|  |_| \__\ |__|  \__/        
                                                                              
                      - O R C A' S   B I G   F R I E N D -                    
                                      &                                       
                       - I N T E G R A L  F E E D E R -                       
                                                                              
 v1 FN, 2020, v2 2021                                                         
------------------------------------------------------------------------------


Reading SHARK input file 4_prot_aq_6.SHARKINP.tmp ... ok
----------------------
SHARK INTEGRAL PACKAGE
----------------------

Number of atoms                             ...     28
Number of basis functions                   ...    239
Number of shells                            ...    117
Maximum angular momentum                    ...      2
Integral batch strategy                     ... SHARK/LIBINT Hybrid
RI-J (if used) integral strategy            ... SPLIT-RIJ (Revised 2003 algorithm where possible)
Printlevel                                  ...      1
Contraction scheme used                     ... SEGMENTED contraction
Coulomb Range Separation                    ... NOT USED
Exchange Range Separation                   ... Long Range
   Mu parameter                             ...  0.300000
   Scaling (regular/separated)              ...  0.157706  0.842294
Finite Nucleus Model                        ... NOT USED
Auxiliary Coulomb fitting basis             ... AVAILABLE
   # of basis functions in Aux-J            ...    726
   # of shells in Aux-J                     ...    250
   Maximum angular momentum in Aux-J        ...      4
Auxiliary J/K fitting basis                 ... NOT available
Auxiliary Correlation fitting basis         ... NOT available
Auxiliary 'external' fitting basis          ... NOT available
Integral threshold                          ...     2.500000e-11
Primitive cut-off                           ...     2.500000e-12
Primitive pair pre-selection threshold      ...     2.500000e-12

Calculating pre-screening integrals         ... done (  0.1 sec) Dimension = 117
Organizing shell pair data                  ... done (  0.0 sec)
Shell pair information
Total number of shell pairs                 ...      6903
Shell pairs after pre-screening             ...      6086
Total number of primitive shell pairs       ...     23847
Primitive shell pairs kept                  ...     14937
          la=0 lb=0:   2071 shell pairs
          la=1 lb=0:   2303 shell pairs
          la=1 lb=1:    658 shell pairs
          la=2 lb=0:    640 shell pairs
          la=2 lb=1:    357 shell pairs
          la=2 lb=2:     57 shell pairs

Calculating one electron integrals          ... done (  0.0 sec)
Calculating RI/J V-Matrix + Cholesky decomp.... done (  0.0 sec)
Calculating Nuclear repulsion               ... done (  0.0 sec) ENN=    655.703035979642 Eh

SHARK setup successfully completed in   0.3 seconds

Maximum memory used throughout the entire GTOINT-calculation: 36.7 MB
-------------------------------------------------------------------------------
                                 ORCA SCF
-------------------------------------------------------------------------------

------------
SCF SETTINGS
------------
Hamiltonian:
 Density Functional     Method          .... DFT(GTOs)
 Exchange Functional    Exchange        .... WB97X
 Correlation Functional Correlation     .... WB97X
 Gradients option       PostSCFGGA      .... off
 Hybrid DFT is turned on
   Fraction HF Exchange ScalHFX         ....  0.157706
   Scaling of DF-GGA-X  ScalDFX         ....  0.000000
   Scaling of DF-GGA-C  ScalDFC         ....  1.000000
   Scaling of DF-LDA-C  ScalLDAC        ....  1.000000
   Perturbative correction              ....  0.000000
   Density functional embedding theory  .... OFF
 Long-range corrected/Screened/Range-Separated Hybrid DFT is turned on
   Amount of maximum screened exact exchange              ....  0.842294
   Range separation parameter mu (erf(mu*r12)/r12)        ....  0.300000
 RI-approximation to the Coulomb term is turned on
   Number of AuxJ basis functions       .... 726
   RIJ-COSX (HFX calculated with COS-X)).... on


General Settings:
 Integral files         IntName         .... 4_prot_aq_6
 Hartree-Fock type      HFTyp           .... RHF
 Total Charge           Charge          ....    1
 Multiplicity           Mult            ....    1
 Number of Electrons    NEL             ....   84
 Basis Dimension        Dim             ....  239
 Nuclear Repulsion      ENuc            ....    655.7030359796 Eh

Convergence Acceleration:
 DIIS                   CNVDIIS         .... on
   Start iteration      DIISMaxIt       ....     0
   Startup error        DIISStart       ....  0.200000
   # of expansion vecs  DIISMaxEq       ....     5
   Bias factor          DIISBfac        ....   1.050
   Max. coefficient     DIISMaxC        ....  10.000
 Trust-Rad. Augm. Hess. CNVTRAH         .... auto
   Auto Start mean grad. ratio tolernc. ....  1.125000
   Auto Start start iteration           ....    20
   Auto Start num. interpolation iter.  ....    10
   Max. Number of Micro iterations      ....    16
   Max. Number of Macro iterations      .... Maxiter - #DIIS iter
   Number of Davidson start vectors     ....     2
   Converg. threshold I  (grad. norm)   ....   1.000e-05
   Converg. threshold II (energy diff.) ....   1.000e-08
   Grad. Scal. Fac. for Micro threshold ....   0.100
   Minimum threshold for Micro iter.    ....   0.010
   NR start threshold (gradient norm)   ....   0.001
   Initial trust radius                 ....   0.400
   Minimum AH scaling param. (alpha)    ....   1.000
   Maximum AH scaling param. (alpha)    .... 1000.000
   Orbital update algorithm             .... Taylor
   White noise on init. David. guess    .... on
   Maximum white noise                  ....   0.010
   Quad. conv. algorithm                .... NR
 SOSCF                  CNVSOSCF        .... on
   Start iteration      SOSCFMaxIt      ....   150
   Startup grad/error   SOSCFStart      ....  0.001000
 Level Shifting         CNVShift        .... on
   Level shift para.    LevelShift      ....    0.2500
   Turn off err/grad.   ShiftErr        ....    0.0000
 Zerner damping         CNVZerner       .... off
 Static damping         CNVDamp         .... on
   Fraction old density DampFac         ....    0.8500
   Max. Damping (<1)    DampMax         ....    0.9800
   Min. Damping (>=0)   DampMin         ....    0.0000
   Turn off err/grad.   DampErr         ....    0.0300
 Fernandez-Rico         CNVRico         .... off

SCF Procedure:
 Maximum # iterations   MaxIter         ....   125
 SCF integral mode      SCFMode         .... Direct
   Integral package                     .... SHARK and LIBINT hybrid scheme
 Reset frequency        DirectResetFreq ....    20
 Integral Threshold     Thresh          ....  2.500e-11 Eh
 Primitive CutOff       TCut            ....  2.500e-12 Eh

Convergence Tolerance:
 Convergence Check Mode ConvCheckMode   .... Total+1el-Energy
 Convergence forced     ConvForced      .... 0
 Energy Change          TolE            ....  1.000e-08 Eh
 1-El. energy change                    ....  1.000e-05 Eh
 Orbital Gradient       TolG            ....  1.000e-05
 Orbital Rotation angle TolX            ....  1.000e-05
 DIIS Error             TolErr          ....  5.000e-07


Diagonalization of the overlap matrix:
Smallest eigenvalue                        ... 1.442e-03
Time for diagonalization                   ...    0.010 sec
Threshold for overlap eigenvalues          ... 1.000e-08
Number of eigenvalues below threshold      ... 0
Time for construction of square roots      ...    0.005 sec
Total time needed                          ...    0.015 sec

Time for model grid setup =    0.480 sec

------------------------------
INITIAL GUESS: MODEL POTENTIAL
------------------------------
Loading Hartree-Fock densities                     ... done
Calculating cut-offs                               ... done
Initializing the effective Hamiltonian             ... done
Setting up the integral package (SHARK)            ... done
Starting the Coulomb interaction                   ... done (   0.5 sec)
Reading the grid                                   ... done
Mapping shells                                     ... done
Starting the XC term evaluation                    ... done (   0.6 sec)
  promolecular density results
     # of electrons  =     84.988594545
     EX              =    -64.260242033
     EC              =     -2.820915498
     EX+EC           =    -67.081157531
Transforming the Hamiltonian                       ... done (   0.0 sec)
Diagonalizing the Hamiltonian                      ... done (   0.0 sec)
Back transforming the eigenvectors                 ... done (   0.0 sec)
Now organizing SCF variables                       ... done
                      ------------------
                      INITIAL GUESS DONE (   1.5 sec)
                      ------------------
-------------------
DFT GRID GENERATION
-------------------

General Integration Accuracy     IntAcc      ... 4.388
Radial Grid Type                 RadialGrid  ... OptM3 with GC (2021)
Angular Grid (max. ang.)         AngularGrid ... 4 (Lebedev-302)
Angular grid pruning method      GridPruning ... 4 (adaptive)
Weight generation scheme         WeightScheme... Becke
Basis function cutoff            BFCut       ... 1.0000e-11
Integration weight cutoff        WCut        ... 1.0000e-14
Angular grids for H and He will be reduced by one unit
Partially contracted basis set               ... off
Rotationally invariant grid construction     ... off

Total number of grid points                  ...   120017
Total number of batches                      ...     1888
Average number of points per batch           ...       63
Average number of grid points per atom       ...     4286
Time for grid setup =    1.787 sec

--------------------
COSX GRID GENERATION
--------------------

GRIDX 1
-------
General Integration Accuracy     IntAcc      ... 3.816
Radial Grid Type                 RadialGrid  ... OptM3 with GC (2021)
Angular Grid (max. ang.)         AngularGrid ... 1 (Lebedev-50)
Angular grid pruning method      GridPruning ... 4 (adaptive)
Weight generation scheme         WeightScheme... Becke
Basis function cutoff            BFCut       ... 1.0000e-11
Integration weight cutoff        WCut        ... 1.0000e-14
Angular grids for H and He will be reduced by one unit
Partially contracted basis set               ... on
Rotationally invariant grid construction     ... off

Total number of grid points                  ...    15372
Total number of batches                      ...      256
Average number of points per batch           ...       60
Average number of grid points per atom       ...      549
UseSFitting                                  ... on

GRIDX 2
-------
General Integration Accuracy     IntAcc      ... 4.020
Radial Grid Type                 RadialGrid  ... OptM3 with GC (2021)
Angular Grid (max. ang.)         AngularGrid ... 2 (Lebedev-110)
Angular grid pruning method      GridPruning ... 4 (adaptive)
Weight generation scheme         WeightScheme... Becke
Basis function cutoff            BFCut       ... 1.0000e-11
Integration weight cutoff        WCut        ... 1.0000e-14
Angular grids for H and He will be reduced by one unit
Partially contracted basis set               ... on
Rotationally invariant grid construction     ... off

Total number of grid points                  ...    32095
Total number of batches                      ...      516
Average number of points per batch           ...       62
Average number of grid points per atom       ...     1146
UseSFitting                                  ... on

GRIDX 3
-------
General Integration Accuracy     IntAcc      ... 4.338
Radial Grid Type                 RadialGrid  ... OptM3 with GC (2021)
Angular Grid (max. ang.)         AngularGrid ... 3 (Lebedev-194)
Angular grid pruning method      GridPruning ... 4 (adaptive)
Weight generation scheme         WeightScheme... Becke
Basis function cutoff            BFCut       ... 1.0000e-11
Integration weight cutoff        WCut        ... 1.0000e-14
Angular grids for H and He will be reduced by one unit
Partially contracted basis set               ... on
Rotationally invariant grid construction     ... off

Total number of grid points                  ...    69829
Total number of batches                      ...     1106
Average number of points per batch           ...       63
Average number of grid points per atom       ...     2494
UseSFitting                                  ... on

Time for X-Grid setup             =    2.315 sec


--------------------
CPCM SOLVATION MODEL
--------------------
CPCM parameters:
  Epsilon                                         ...      80.4000
  Refrac                                          ...       1.3300
  Rsolv                                           ...       1.3000
  Surface type                                    ... GAUSSIAN VDW
  Epsilon function type                           ...         CPCM
Radii:
 Radius for N  used is    3.5149 Bohr (=   1.8600 Ang.)
 Radius for C  used is    3.8550 Bohr (=   2.0400 Ang.)
 Radius for H  used is    2.4944 Bohr (=   1.3200 Ang.)
Calculating surface                               ...        done! (  0.0s)
GEPOL surface points                              ...         1515
GEPOL Volume                                      ...    1438.7196
GEPOL Surface-area                                ...     804.0538
Calculating surface distance matrix               ...        done! (  0.0s)
Performing Cholesky decomposition & store         ...        done! (  0.1s)
Overall time for CPCM initialization              ...                 0.1s
--------------
SCF ITERATIONS
--------------
ITER       Energy         Delta-E        Max-DP      RMS-DP      [F,P]     Damp
               ***  Starting incremental Fock matrix formation  ***
  0   -461.9126904044   0.000000000000 0.03352222  0.00064509  0.1531441 0.8500
  1   -461.9572128082  -0.044522403850 0.03016006  0.00060444  0.1233142 0.8500
                               ***Turning on DIIS***
  2   -461.9910646562  -0.033851847938 0.02360732  0.00049256  0.0946249 0.8500
  3   -462.0161990850  -0.025134428827 0.01476941  0.00035061  0.0716958 0.8500
  4   -462.0355551613  -0.019356076293 0.00994816  0.00026850  0.0570812 0.8500
  5   -462.0507731623  -0.015218001000 0.00757076  0.00022003  0.0472076 0.8500
  6   -462.0631197907  -0.012346628356 0.00613550  0.00018540  0.0397140 0.8500
  7   -462.0733205024  -0.010200711786 0.00522866  0.00015931  0.0336402 0.8500
  8   -462.0818406538  -0.008520151351 0.02972097  0.00091261  0.0284527 0.0000
  9   -462.1275254085  -0.045684754742 0.00139686  0.00003171  0.0012132 0.0000
                      *** Initiating the SOSCF procedure ***
                           *** Shutting down DIIS ***
                      *** Re-Reading the Fockian *** 
                      *** Removing any level shift *** 
ITER      Energy       Delta-E        Grad      Rot      Max-DP    RMS-DP
 10   -462.12754188  -0.0000164671  0.000141  0.000141  0.000554  0.000013
               *** Restarting incremental Fock matrix formation ***
 11   -462.12754394  -0.0000020690  0.000053  0.000097  0.000348  0.000009
 12   -462.12754422  -0.0000002748  0.000044  0.000113  0.000188  0.000005
 13   -462.12754426  -0.0000000389  0.000020  0.000021  0.000049  0.000001
 14   -462.12754427  -0.0000000120  0.000003  0.000005  0.000007  0.000000
                  ***Gradient check signals convergence***
              ***Rediagonalizing the Fockian in SOSCF/NRSCF***

               *****************************************************
               *                     SUCCESS                       *
               *           SCF CONVERGED AFTER  15 CYCLES          *
               *****************************************************

Old exchange energy                            =    -21.420330910 Eh
New exchange energy                            =    -21.420353533 Eh
Exchange energy change after final integration =     -0.000022622 Eh
Total energy after final integration           =   -462.127566899 Eh
Final COS-X integration done in                =    60.418 sec

----------------
TOTAL SCF ENERGY
----------------

Total Energy       :         -462.12756690 Eh          -12575.13040 eV

Components:
Nuclear Repulsion  :          655.70303598 Eh           17842.58671 eV
Electronic Energy  :        -1117.83060288 Eh          -30417.71711 eV
One Electron Energy:        -1907.72108381 Eh          -51911.72983 eV
Two Electron Energy:          789.89048093 Eh           21494.01272 eV
Max COSX asymmetry :            0.00000335 Eh               0.00009 eV
CPCM Dielectric    :           -0.07831781 Eh              -2.13114 eV

Virial components:
Potential Energy   :         -918.96914039 Eh          -25006.42161 eV
Kinetic Energy     :          456.84157349 Eh           12431.29121 eV
Virial Ratio       :            2.01157074


DFT components:
N(Alpha)           :       42.000007967351 electrons
N(Beta)            :       42.000007967351 electrons
N(Total)           :       84.000015934701 electrons
E(XC)              :      -47.266016410004 Eh       
DFET-embed. en.    :        0.000000000000 Eh       
CPCM Solvation Model Properties:
Surface-charge          :           -1.02105811
Charge-correction       :            0.00288239 Eh               0.07843 eV
Free-energy (cav+disp)  :  This term is not implemented in the current solvation scheme

---------------
SCF CONVERGENCE
---------------

  Last Energy change         ...   -6.0457e-09  Tolerance :   1.0000e-08
  Last MAX-Density change    ...    3.5527e-15  Tolerance :   1.0000e-07
  Last RMS-Density change    ...    3.5167e-17  Tolerance :   5.0000e-09
  Last Orbital Gradient      ...    1.2329e-06  Tolerance :   1.0000e-05
  Last Orbital Rotation      ...    2.7849e-06  Tolerance :   1.0000e-05

             **** THE GBW FILE WAS UPDATED (4_prot_aq_6.gbw) ****
             **** DENSITY 4_prot_aq_6.scfp WAS UPDATED ****
             **** ENERGY FILE WAS UPDATED (4_prot_aq_6.en.tmp) ****
             **** THE GBW FILE WAS UPDATED (4_prot_aq_6.gbw) ****
             **** DENSITY 4_prot_aq_6.scfp WAS UPDATED ****
----------------
ORBITAL ENERGIES
----------------

  NO   OCC          E(Eh)            E(eV) 
   0   2.0000     -14.511422      -394.8759 
   1   2.0000     -14.510965      -394.8634 
   2   2.0000     -10.380527      -282.4685 
   3   2.0000     -10.335878      -281.2535 
   4   2.0000     -10.335567      -281.2451 
   5   2.0000     -10.330616      -281.1104 
   6   2.0000     -10.329908      -281.0911 
   7   2.0000     -10.272043      -279.5165 
   8   2.0000     -10.271258      -279.4951 
   9   2.0000     -10.270168      -279.4655 
  10   2.0000     -10.270111      -279.4639 
  11   2.0000      -1.222917       -33.2773 
  12   2.0000      -1.104547       -30.0562 
  13   2.0000      -0.970818       -26.4173 
  14   2.0000      -0.917830       -24.9754 
  15   2.0000      -0.917237       -24.9593 
  16   2.0000      -0.826124       -22.4800 
  17   2.0000      -0.824706       -22.4414 
  18   2.0000      -0.813003       -22.1229 
  19   2.0000      -0.780602       -21.2413 
  20   2.0000      -0.737707       -20.0740 
  21   2.0000      -0.730048       -19.8656 
  22   2.0000      -0.653881       -17.7930 
  23   2.0000      -0.635342       -17.2885 
  24   2.0000      -0.608911       -16.5693 
  25   2.0000      -0.606341       -16.4994 
  26   2.0000      -0.589916       -16.0524 
  27   2.0000      -0.581157       -15.8141 
  28   2.0000      -0.565735       -15.3944 
  29   2.0000      -0.562080       -15.2950 
  30   2.0000      -0.553384       -15.0583 
  31   2.0000      -0.520126       -14.1534 
  32   2.0000      -0.504676       -13.7329 
  33   2.0000      -0.500323       -13.6145 
  34   2.0000      -0.498427       -13.5629 
  35   2.0000      -0.495431       -13.4814 
  36   2.0000      -0.475566       -12.9408 
  37   2.0000      -0.462893       -12.5960 
  38   2.0000      -0.461953       -12.5704 
  39   2.0000      -0.460488       -12.5305 
  40   2.0000      -0.415070       -11.2946 
  41   2.0000      -0.372586       -10.1386 
  42   0.0000       0.058111         1.5813 
  43   0.0000       0.098034         2.6676 
  44   0.0000       0.138183         3.7602 
  45   0.0000       0.151505         4.1227 
  46   0.0000       0.159015         4.3270 
  47   0.0000       0.175345         4.7714 
  48   0.0000       0.187123         5.0919 
  49   0.0000       0.192341         5.2339 
  50   0.0000       0.204908         5.5758 
  51   0.0000       0.208893         5.6843 
  52   0.0000       0.211452         5.7539 
  53   0.0000       0.226434         6.1616 
  54   0.0000       0.227240         6.1835 
  55   0.0000       0.242834         6.6079 
  56   0.0000       0.244606         6.6561 
  57   0.0000       0.249257         6.7826 
  58   0.0000       0.254305         6.9200 
  59   0.0000       0.261471         7.1150 
  60   0.0000       0.263527         7.1709 
  61   0.0000       0.271550         7.3893 
  62   0.0000       0.274195         7.4612 
  63   0.0000       0.283059         7.7024 
  64   0.0000       0.299997         8.1633 
  65   0.0000       0.306392         8.3374 
  66   0.0000       0.315468         8.5843 
  67   0.0000       0.334524         9.1028 
  68   0.0000       0.351522         9.5654 
  69   0.0000       0.361729         9.8432 
  70   0.0000       0.395125        10.7519 
  71   0.0000       0.440009        11.9733 
  72   0.0000       0.457601        12.4520 
  73   0.0000       0.481213        13.0945 
  74   0.0000       0.484947        13.1961 
  75   0.0000       0.494112        13.4455 
  76   0.0000       0.501048        13.6342 
  77   0.0000       0.510004        13.8779 
  78   0.0000       0.516612        14.0577 
  79   0.0000       0.543018        14.7763 
  80   0.0000       0.555609        15.1189 
  81   0.0000       0.571294        15.5457 
  82   0.0000       0.580147        15.7866 
  83   0.0000       0.609217        16.5776 
  84   0.0000       0.611672        16.6444 
  85   0.0000       0.649545        17.6750 
  86   0.0000       0.664342        18.0777 
  87   0.0000       0.673069        18.3151 
  88   0.0000       0.680623        18.5207 
  89   0.0000       0.691107        18.8060 
  90   0.0000       0.696435        18.9510 
  91   0.0000       0.717305        19.5189 
  92   0.0000       0.729913        19.8619 
  93   0.0000       0.739503        20.1229 
  94   0.0000       0.741231        20.1699 
  95   0.0000       0.750579        20.4243 
  96   0.0000       0.753705        20.5094 
  97   0.0000       0.758862        20.6497 
  98   0.0000       0.763567        20.7777 
  99   0.0000       0.773483        21.0475 
 100   0.0000       0.775869        21.1125 
 101   0.0000       0.783458        21.3190 
 102   0.0000       0.788754        21.4631 
 103   0.0000       0.791485        21.5374 
 104   0.0000       0.793937        21.6041 
 105   0.0000       0.799667        21.7601 
 106   0.0000       0.804959        21.9041 
 107   0.0000       0.806302        21.9406 
 108   0.0000       0.807483        21.9727 
 109   0.0000       0.823040        22.3960 
 110   0.0000       0.830845        22.6085 
 111   0.0000       0.832072        22.6418 
 112   0.0000       0.835175        22.7263 
 113   0.0000       0.848844        23.0982 
 114   0.0000       0.854572        23.2541 
 115   0.0000       0.859531        23.3890 
 116   0.0000       0.874567        23.7982 
 117   0.0000       0.956759        26.0347 
 118   0.0000       0.972867        26.4731 
 119   0.0000       1.018311        27.7096 
 120   0.0000       1.042756        28.3748 
 121   0.0000       1.051519        28.6133 
 122   0.0000       1.066936        29.0328 
 123   0.0000       1.136286        30.9199 
 124   0.0000       1.152194        31.3528 
 125   0.0000       1.166727        31.7483 
 126   0.0000       1.182544        32.1787 
 127   0.0000       1.197786        32.5934 
 128   0.0000       1.223935        33.3050 
 129   0.0000       1.239814        33.7371 
 130   0.0000       1.269293        34.5392 
 131   0.0000       1.281629        34.8749 
 132   0.0000       1.302765        35.4500 
 133   0.0000       1.320218        35.9249 
 134   0.0000       1.341314        36.4990 
 135   0.0000       1.383099        37.6360 
 136   0.0000       1.400650        38.1136 
 137   0.0000       1.414857        38.5002 
 138   0.0000       1.442282        39.2465 
 139   0.0000       1.459051        39.7028 
 140   0.0000       1.480363        40.2827 
 141   0.0000       1.528271        41.5864 
 142   0.0000       1.538461        41.8637 
 143   0.0000       1.626527        44.2600 
 144   0.0000       1.641861        44.6773 
 145   0.0000       1.649328        44.8805 
 146   0.0000       1.652750        44.9736 
 147   0.0000       1.655776        45.0560 
 148   0.0000       1.658424        45.1280 
 149   0.0000       1.699774        46.2532 
 150   0.0000       1.732496        47.1436 
 151   0.0000       1.787599        48.6430 
 152   0.0000       1.793107        48.7929 
 153   0.0000       1.807792        49.1925 
 154   0.0000       1.811860        49.3032 
 155   0.0000       1.823691        49.6252 
 156   0.0000       1.827901        49.7397 
 157   0.0000       1.862965        50.6939 
 158   0.0000       1.868182        50.8358 
 159   0.0000       1.882168        51.2164 
 160   0.0000       1.885723        51.3131 
 161   0.0000       1.901488        51.7421 
 162   0.0000       1.902117        51.7592 
 163   0.0000       1.914603        52.0990 
 164   0.0000       1.917506        52.1780 
 165   0.0000       1.922902        52.3248 
 166   0.0000       1.940527        52.8044 
 167   0.0000       1.945420        52.9376 
 168   0.0000       1.955822        53.2206 
 169   0.0000       1.964322        53.4519 
 170   0.0000       1.969558        53.5944 
 171   0.0000       1.978355        53.8338 
 172   0.0000       1.980338        53.8877 
 173   0.0000       1.983265        53.9674 
 174   0.0000       1.993311        54.2407 
 175   0.0000       2.010059        54.6965 
 176   0.0000       2.016895        54.8825 
 177   0.0000       2.031852        55.2895 
 178   0.0000       2.042115        55.5688 
 179   0.0000       2.053924        55.8901 
 180   0.0000       2.077542        56.5328 
 181   0.0000       2.083648        56.6989 
 182   0.0000       2.093233        56.9598 
 183   0.0000       2.135446        58.1084 
 184   0.0000       2.153228        58.5923 
 185   0.0000       2.176573        59.2276 
 186   0.0000       2.180095        59.3234 
 187   0.0000       2.226680        60.5910 
 188   0.0000       2.255427        61.3733 
 189   0.0000       2.262432        61.5639 
 190   0.0000       2.293383        62.4061 
 191   0.0000       2.359075        64.1937 
 192   0.0000       2.370866        64.5145 
 193   0.0000       2.375158        64.6313 
 194   0.0000       2.389149        65.0120 
 195   0.0000       2.415070        65.7174 
 196   0.0000       2.462253        67.0013 
 197   0.0000       2.476267        67.3827 
 198   0.0000       2.493098        67.8406 
 199   0.0000       2.496751        67.9400 
 200   0.0000       2.514387        68.4199 
 201   0.0000       2.522937        68.6526 
 202   0.0000       2.545647        69.2706 
 203   0.0000       2.565573        69.8128 
 204   0.0000       2.597753        70.6885 
 205   0.0000       2.603122        70.8345 
 206   0.0000       2.609464        71.0071 
 207   0.0000       2.625461        71.4424 
 208   0.0000       2.664061        72.4928 
 209   0.0000       2.678477        72.8851 
 210   0.0000       2.686149        73.0938 
 211   0.0000       2.699447        73.4557 
 212   0.0000       2.791158        75.9513 
 213   0.0000       2.800764        76.2127 
 214   0.0000       2.816384        76.6377 
 215   0.0000       2.832238        77.0691 
 216   0.0000       2.857671        77.7612 
 217   0.0000       2.879567        78.3570 
 218   0.0000       2.917684        79.3942 
 219   0.0000       2.942519        80.0700 
 220   0.0000       2.947494        80.2054 
 221   0.0000       2.962180        80.6050 
 222   0.0000       2.983379        81.1819 
 223   0.0000       2.989042        81.3360 
 224   0.0000       3.012107        81.9636 
 225   0.0000       3.029855        82.4466 
 226   0.0000       3.034180        82.5642 
 227   0.0000       3.039366        82.7053 
 228   0.0000       3.062305        83.3296 
 229   0.0000       3.084765        83.9407 
 230   0.0000       3.114265        84.7435 
 231   0.0000       3.144293        85.5606 
 232   0.0000       3.148858        85.6848 
 233   0.0000       3.152888        85.7945 
 234   0.0000       3.175157        86.4004 
 235   0.0000       3.295548        89.6764 
 236   0.0000       3.483750        94.7977 
 237   0.0000       3.606210        98.1300 
 238   0.0000       3.629599        98.7664 

                    ********************************
                    * MULLIKEN POPULATION ANALYSIS *
                    ********************************

-----------------------
MULLIKEN ATOMIC CHARGES
-----------------------
   0 N :   -0.170368
   1 C :    0.217181
   2 N :   -0.171785
   3 H :    0.120431
   4 C :    0.067223
   5 C :    0.069032
   6 C :   -0.057563
   7 C :   -0.056337
   8 C :    0.014490
   9 H :    0.077397
  10 C :   -0.010933
  11 C :   -0.019483
  12 C :    0.019076
  13 H :    0.077439
  14 H :    0.091840
  15 H :    0.092429
  16 H :    0.056719
  17 H :    0.045122
  18 H :    0.050352
  19 H :    0.049305
  20 H :    0.060452
  21 H :    0.055902
  22 H :    0.051723
  23 H :    0.062501
  24 H :    0.057747
  25 H :    0.049270
  26 H :    0.056509
  27 H :    0.044327
Sum of atomic charges:    1.0000000

--------------------------------
MULLIKEN REDUCED ORBITAL CHARGES
--------------------------------
  0 N s       :     3.381312  s :     3.381312
      pz      :     1.171137  p :     3.755130
      px      :     1.161933
      py      :     1.422060
      dz2     :     0.007013  d :     0.033926
      dxz     :     0.010112
      dyz     :     0.005560
      dx2y2   :     0.005127
      dxy     :     0.006113
  1 C s       :     3.097256  s :     3.097256
      pz      :     0.910585  p :     2.618476
      px      :     0.771143
      py      :     0.936748
      dz2     :     0.011997  d :     0.067088
      dxz     :     0.021596
      dyz     :     0.006726
      dx2y2   :     0.009983
      dxy     :     0.016785
  2 N s       :     3.382747  s :     3.382747
      pz      :     1.167621  p :     3.755069
      px      :     1.161131
      py      :     1.426316
      dz2     :     0.006688  d :     0.033969
      dxz     :     0.010366
      dyz     :     0.005951
      dx2y2   :     0.005079
      dxy     :     0.005885
  3 H s       :     0.854267  s :     0.854267
      pz      :     0.017993  p :     0.025303
      px      :     0.001426
      py      :     0.005883
  4 C s       :     3.143707  s :     3.143707
      pz      :     0.822699  p :     2.740658
      px      :     0.908986
      py      :     1.008973
      dz2     :     0.013598  d :     0.048412
      dxz     :     0.012511
      dyz     :     0.008439
      dx2y2   :     0.006072
      dxy     :     0.007792
  5 C s       :     3.141011  s :     3.141011
      pz      :     0.814739  p :     2.741393
      px      :     0.910930
      py      :     1.015723
      dz2     :     0.013913  d :     0.048564
      dxz     :     0.012398
      dyz     :     0.008532
      dx2y2   :     0.005663
      dxy     :     0.008058
  6 C s       :     3.117693  s :     3.117693
      pz      :     1.052147  p :     2.883629
      px      :     0.774969
      py      :     1.056512
      dz2     :     0.009708  d :     0.056240
      dxz     :     0.010865
      dyz     :     0.010399
      dx2y2   :     0.015800
      dxy     :     0.009468
  7 C s       :     3.112816  s :     3.112816
      pz      :     1.064764  p :     2.887279
      px      :     0.772461
      py      :     1.050054
      dz2     :     0.009418  d :     0.056242
      dxz     :     0.010803
      dyz     :     0.009657
      dx2y2   :     0.016796
      dxy     :     0.009569
  8 C s       :     2.989985  s :     2.989985
      pz      :     1.028294  p :     2.969097
      px      :     1.019154
      py      :     0.921649
      dz2     :     0.005158  d :     0.026428
      dxz     :     0.003561
      dyz     :     0.006932
      dx2y2   :     0.007340
      dxy     :     0.003437
  9 H s       :     0.901271  s :     0.901271
      pz      :     0.008851  p :     0.021332
      px      :     0.006423
      py      :     0.006058
 10 C s       :     2.999468  s :     2.999468
      pz      :     0.947715  p :     2.985161
      px      :     1.040872
      py      :     0.996574
      dz2     :     0.007094  d :     0.026304
      dxz     :     0.003802
      dyz     :     0.006066
      dx2y2   :     0.006320
      dxy     :     0.003023
 11 C s       :     3.001541  s :     3.001541
      pz      :     0.999310  p :     2.991697
      px      :     1.045923
      py      :     0.946463
      dz2     :     0.006141  d :     0.026245
      dxz     :     0.003713
      dyz     :     0.006594
      dx2y2   :     0.006658
      dxy     :     0.003140
 12 C s       :     2.987812  s :     2.987812
      pz      :     1.005717  p :     2.966687
      px      :     1.014439
      py      :     0.946530
      dz2     :     0.004145  d :     0.026425
      dxz     :     0.004772
      dyz     :     0.007693
      dx2y2   :     0.007502
      dxy     :     0.002313
 13 H s       :     0.901252  s :     0.901252
      pz      :     0.011621  p :     0.021309
      px      :     0.006146
      py      :     0.003542
 14 H s       :     0.883025  s :     0.883025
      pz      :     0.011186  p :     0.025136
      px      :     0.008728
      py      :     0.005222
 15 H s       :     0.882438  s :     0.882438
      pz      :     0.010715  p :     0.025133
      px      :     0.008670
      py      :     0.005748
 16 H s       :     0.918520  s :     0.918520
      pz      :     0.005672  p :     0.024761
      px      :     0.015056
      py      :     0.004033
 17 H s       :     0.930404  s :     0.930404
      pz      :     0.010136  p :     0.024474
      px      :     0.007804
      py      :     0.006534
 18 H s       :     0.925359  s :     0.925359
      pz      :     0.013252  p :     0.024289
      px      :     0.004985
      py      :     0.006051
 19 H s       :     0.926073  s :     0.926073
      pz      :     0.010347  p :     0.024622
      px      :     0.007117
      py      :     0.007158
 20 H s       :     0.914800  s :     0.914800
      pz      :     0.004700  p :     0.024748
      px      :     0.015183
      py      :     0.004865
 21 H s       :     0.919816  s :     0.919816
      pz      :     0.003939  p :     0.024283
      px      :     0.006263
      py      :     0.014081
 22 H s       :     0.923651  s :     0.923651
      pz      :     0.013719  p :     0.024626
      px      :     0.006728
      py      :     0.004180
 23 H s       :     0.912756  s :     0.912756
      pz      :     0.004880  p :     0.024743
      px      :     0.015138
      py      :     0.004725
 24 H s       :     0.917925  s :     0.917925
      pz      :     0.006319  p :     0.024328
      px      :     0.006705
      py      :     0.011304
 25 H s       :     0.926402  s :     0.926402
      pz      :     0.008317  p :     0.024328
      px      :     0.004913
      py      :     0.011097
 26 H s       :     0.918733  s :     0.918733
      pz      :     0.005472  p :     0.024758
      px      :     0.015022
      py      :     0.004264
 27 H s       :     0.931264  s :     0.931264
      pz      :     0.012454  p :     0.024408
      px      :     0.007671
      py      :     0.004283


                     *******************************
                     * LOEWDIN POPULATION ANALYSIS *
                     *******************************

----------------------
LOEWDIN ATOMIC CHARGES
----------------------
   0 N :    0.112741
   1 C :    0.123300
   2 N :    0.113257
   3 H :    0.058548
   4 C :    0.019665
   5 C :    0.020928
   6 C :    0.041852
   7 C :    0.041827
   8 C :   -0.048026
   9 H :    0.049369
  10 C :   -0.050056
  11 C :   -0.050757
  12 C :   -0.047313
  13 H :    0.049125
  14 H :    0.056225
  15 H :    0.056375
  16 H :    0.041901
  17 H :    0.033317
  18 H :    0.035112
  19 H :    0.034191
  20 H :    0.044561
  21 H :    0.036648
  22 H :    0.034719
  23 H :    0.045960
  24 H :    0.037045
  25 H :    0.034547
  26 H :    0.041683
  27 H :    0.033256

-------------------------------
LOEWDIN REDUCED ORBITAL CHARGES
-------------------------------
  0 N s       :     3.043468  s :     3.043468
      pz      :     1.216670  p :     3.765822
      px      :     1.192848
      py      :     1.356304
      dz2     :     0.017708  d :     0.077969
      dxz     :     0.026077
      dyz     :     0.011238
      dx2y2   :     0.011494
      dxy     :     0.011451
  1 C s       :     2.827868  s :     2.827868
      pz      :     1.023155  p :     2.891498
      px      :     0.899201
      py      :     0.969142
      dz2     :     0.027608  d :     0.157335
      dxz     :     0.056665
      dyz     :     0.011878
      dx2y2   :     0.025326
      dxy     :     0.035857
  2 N s       :     3.043633  s :     3.043633
      pz      :     1.215370  p :     3.765079
      px      :     1.192766
      py      :     1.356944
      dz2     :     0.017110  d :     0.078030
      dxz     :     0.026546
      dyz     :     0.011959
      dx2y2   :     0.011511
      dxy     :     0.010905
  3 H s       :     0.863774  s :     0.863774
      pz      :     0.050704  p :     0.077678
      px      :     0.008309
      py      :     0.018665
  4 C s       :     2.847744  s :     2.847744
      pz      :     0.943779  p :     3.012780
      px      :     1.051001
      py      :     1.018000
      dz2     :     0.034576  d :     0.119811
      dxz     :     0.034261
      dyz     :     0.017815
      dx2y2   :     0.016841
      dxy     :     0.016318
  5 C s       :     2.847846  s :     2.847846
      pz      :     0.939586  p :     3.011119
      px      :     1.050715
      py      :     1.020818
      dz2     :     0.035650  d :     0.120107
      dxz     :     0.033991
      dyz     :     0.017802
      dx2y2   :     0.015709
      dxy     :     0.016956
  6 C s       :     2.831936  s :     2.831936
      pz      :     1.063546  p :     2.996623
      px      :     0.861270
      py      :     1.071807
      dz2     :     0.022865  d :     0.129589
      dxz     :     0.025672
      dyz     :     0.022843
      dx2y2   :     0.037273
      dxy     :     0.020936
  7 C s       :     2.831781  s :     2.831781
      pz      :     1.070805  p :     2.996805
      px      :     0.860353
      py      :     1.065648
      dz2     :     0.019599  d :     0.129587
      dxz     :     0.026817
      dyz     :     0.023964
      dx2y2   :     0.039185
      dxy     :     0.020022
  8 C s       :     2.829734  s :     2.829734
      pz      :     1.073884  p :     3.147682
      px      :     1.074040
      py      :     0.999758
      dz2     :     0.014161  d :     0.070610
      dxz     :     0.009240
      dyz     :     0.017427
      dx2y2   :     0.020547
      dxy     :     0.009235
  9 H s       :     0.883507  s :     0.883507
      pz      :     0.027356  p :     0.067124
      px      :     0.019337
      py      :     0.020431
 10 C s       :     2.828245  s :     2.828245
      pz      :     1.015403  p :     3.151335
      px      :     1.081620
      py      :     1.054312
      dz2     :     0.018825  d :     0.070476
      dxz     :     0.009755
      dyz     :     0.017029
      dx2y2   :     0.016887
      dxy     :     0.007980
 11 C s       :     2.827636  s :     2.827636
      pz      :     1.049952  p :     3.152756
      px      :     1.083132
      py      :     1.019672
      dz2     :     0.015682  d :     0.070365
      dxz     :     0.009489
      dyz     :     0.018511
      dx2y2   :     0.018322
      dxy     :     0.008361
 12 C s       :     2.830030  s :     2.830030
      pz      :     1.057750  p :     3.146713
      px      :     1.072060
      py      :     1.016903
      dz2     :     0.010345  d :     0.070570
      dxz     :     0.012684
      dyz     :     0.020621
      dx2y2   :     0.020731
      dxy     :     0.006189
 13 H s       :     0.883768  s :     0.883768
      pz      :     0.034080  p :     0.067107
      px      :     0.018665
      py      :     0.014363
 14 H s       :     0.868853  s :     0.868853
      pz      :     0.032502  p :     0.074922
      px      :     0.025329
      py      :     0.017090
 15 H s       :     0.868778  s :     0.868778
      pz      :     0.031244  p :     0.074847
      px      :     0.025160
      py      :     0.018443
 16 H s       :     0.890182  s :     0.890182
      pz      :     0.014877  p :     0.067917
      px      :     0.040256
      py      :     0.012784
 17 H s       :     0.898587  s :     0.898587
      pz      :     0.027065  p :     0.068095
      px      :     0.020832
      py      :     0.020199
 18 H s       :     0.897094  s :     0.897094
      pz      :     0.035298  p :     0.067794
      px      :     0.013516
      py      :     0.018980
 19 H s       :     0.897367  s :     0.897367
      pz      :     0.029777  p :     0.068442
      px      :     0.018976
      py      :     0.019690
 20 H s       :     0.887436  s :     0.887436
      pz      :     0.014248  p :     0.068003
      px      :     0.040581
      py      :     0.013174
 21 H s       :     0.895425  s :     0.895425
      pz      :     0.012537  p :     0.067927
      px      :     0.016724
      py      :     0.038667
 22 H s       :     0.896748  s :     0.896748
      pz      :     0.037585  p :     0.068533
      px      :     0.018014
      py      :     0.012933
 23 H s       :     0.885984  s :     0.885984
      pz      :     0.013611  p :     0.068056
      px      :     0.040531
      py      :     0.013914
 24 H s       :     0.894910  s :     0.894910
      pz      :     0.017604  p :     0.068045
      px      :     0.017932
      py      :     0.032509
 25 H s       :     0.897638  s :     0.897638
      pz      :     0.022575  p :     0.067815
      px      :     0.013355
      py      :     0.031886
 26 H s       :     0.890404  s :     0.890404
      pz      :     0.014847  p :     0.067913
      px      :     0.040227
      py      :     0.012839
 27 H s       :     0.898736  s :     0.898736
      pz      :     0.034060  p :     0.068008
      px      :     0.020530
      py      :     0.013418


                      *****************************
                      * MAYER POPULATION ANALYSIS *
                      *****************************

  NA   - Mulliken gross atomic population
  ZA   - Total nuclear charge
  QA   - Mulliken gross atomic charge
  VA   - Mayer's total valence
  BVA  - Mayer's bonded valence
  FA   - Mayer's free valence

  ATOM       NA         ZA         QA         VA         BVA        FA
  0 N      7.1704     7.0000    -0.1704     3.4342     3.4342    -0.0000
  1 C      5.7828     6.0000     0.2172     3.8594     3.8594     0.0000
  2 N      7.1718     7.0000    -0.1718     3.4386     3.4386    -0.0000
  3 H      0.8796     1.0000     0.1204     1.0036     1.0036    -0.0000
  4 C      5.9328     6.0000     0.0672     3.8538     3.8538     0.0000
  5 C      5.9310     6.0000     0.0690     3.8544     3.8544    -0.0000
  6 C      6.0576     6.0000    -0.0576     4.0633     4.0633    -0.0000
  7 C      6.0563     6.0000    -0.0563     4.0644     4.0644    -0.0000
  8 C      5.9855     6.0000     0.0145     3.9448     3.9448    -0.0000
  9 H      0.9226     1.0000     0.0774     0.9767     0.9767    -0.0000
 10 C      6.0109     6.0000    -0.0109     3.9586     3.9586    -0.0000
 11 C      6.0195     6.0000    -0.0195     3.9663     3.9663     0.0000
 12 C      5.9809     6.0000     0.0191     3.9417     3.9417    -0.0000
 13 H      0.9226     1.0000     0.0774     0.9760     0.9760    -0.0000
 14 H      0.9082     1.0000     0.0918     0.9978     0.9978     0.0000
 15 H      0.9076     1.0000     0.0924     0.9976     0.9976    -0.0000
 16 H      0.9433     1.0000     0.0567     0.9962     0.9962    -0.0000
 17 H      0.9549     1.0000     0.0451     1.0010     1.0010    -0.0000
 18 H      0.9496     1.0000     0.0504     0.9940     0.9940    -0.0000
 19 H      0.9507     1.0000     0.0493     0.9987     0.9987    -0.0000
 20 H      0.9395     1.0000     0.0605     0.9957     0.9957    -0.0000
 21 H      0.9441     1.0000     0.0559     0.9914     0.9914    -0.0000
 22 H      0.9483     1.0000     0.0517     0.9971     0.9971     0.0000
 23 H      0.9375     1.0000     0.0625     0.9954     0.9954    -0.0000
 24 H      0.9423     1.0000     0.0577     0.9910     0.9910    -0.0000
 25 H      0.9507     1.0000     0.0493     0.9954     0.9954    -0.0000
 26 H      0.9435     1.0000     0.0565     0.9962     0.9962    -0.0000
[...]
     29      -0.000731  -0.012303  -0.000803  -0.002360  -0.001722  -0.000613
     30       0.000439  -0.078167  -0.001704   0.000023  -0.000915   0.000235
     31      -0.000449   0.045973   0.000906   0.000007  -0.001118   0.000146
     32       0.000163  -0.013643  -0.000256  -0.000005   0.001144  -0.000144
     33      -0.015469  -0.001819   0.081371   0.000037   0.000583  -0.000218
     34       0.010784   0.000743  -0.030388   0.000013   0.000383  -0.000054
     35       0.012343   0.000735  -0.029526   0.000027   0.001173  -0.000146
     36       0.073374  -0.000172   0.018837  -0.000019   0.000125  -0.000060
     37       0.043988  -0.000089   0.009075  -0.000054  -0.000071   0.000064
     38      -0.032635   0.000034  -0.004477   0.000013   0.000077  -0.000033
     39      -0.014002  -0.000119  -0.011775   0.002611   0.000948  -0.001563
     40      -0.004602  -0.000044  -0.002251   0.000715  -0.000150  -0.000406
     41      -0.022615  -0.000160  -0.016929   0.001960  -0.001364   0.000067
     42       0.000761  -0.000660   0.000324   0.460123  -0.063846  -0.463483
     43      -0.000088   0.000201   0.000009  -0.131221   0.018010   0.129644
     44       0.000786  -0.000737   0.000153   0.512761  -0.070386  -0.508482
     45       0.000259  -0.000391   0.000710   0.463414   0.062454   0.459095
     46       0.000057  -0.000119   0.000253   0.182640   0.024372   0.178442
     47      -0.000258   0.000228  -0.000792  -0.502053  -0.067009  -0.489390
     48       0.010706   0.191859   0.006315   0.000822   0.000995  -0.000240
     49      -0.000661  -0.011766  -0.000408  -0.000307   0.000071  -0.000128
     50       0.002512   0.044946   0.001474   0.000117   0.000131  -0.000038
     51       0.001074   0.029830   0.001004   0.000170   0.000827  -0.000160
     52       0.001107   0.030039   0.001006   0.000462   0.001324  -0.000078
     53      -0.001655  -0.043735  -0.001473  -0.000373  -0.001412   0.000212
     54       0.000928   0.014069   0.000430   0.000075  -0.000103   0.000081
     55       0.003182   0.046506   0.001441   0.000032  -0.000541   0.000195
     56       0.006520   0.095510   0.002938   0.000402  -0.000993   0.000585
     57       0.000564   0.016928   0.000675   0.000082   0.011851  -0.001590
     58       0.000456   0.029310   0.000932   0.000057   0.010313  -0.001463
     59      -0.000787  -0.040648  -0.001380  -0.000499  -0.014580   0.001746
     60      -0.004032   0.725281   0.015916   0.000799   0.004178  -0.000908
     61      -0.000037   0.006221   0.000143   0.000160  -0.000161   0.000124
     62      -0.000885   0.165666   0.003667   0.000472   0.000853   0.000008
     63      -0.001613   0.190148   0.003868  -0.000004  -0.001775   0.000151
     64       0.004945  -0.585128  -0.011939  -0.000138   0.004201  -0.000378
     65      -0.000299   0.035735   0.000738  -0.000011  -0.000010  -0.000034
     66      -0.022107   0.000153  -0.020182  -0.000017  -0.008335   0.001170
     67      -0.003468   0.000161  -0.009899  -0.000182  -0.001922   0.000446
     68      -0.037982   0.000741  -0.059303   0.000260  -0.014166   0.001835
     69       0.140323   0.016410  -0.739977   0.000732  -0.003501   0.000929
     70       0.020749   0.002444  -0.110937   0.000377  -0.000229  -0.000109
     71      -0.024023  -0.002909   0.132027  -0.000341   0.000525   0.000002
     72       0.064417   0.004994  -0.210383   0.000031   0.001639  -0.000106
     73      -0.148545  -0.011502   0.485640  -0.000214  -0.002751   0.000167
     74      -0.084640  -0.006583   0.278237  -0.000070  -0.001264   0.000024
     75      -0.058131   0.000107  -0.011029   0.000160   0.000019  -0.000136
     76      -0.442637   0.000758  -0.081783   0.000451   0.000699  -0.000658
     77       0.337722  -0.000593   0.062697  -0.000611  -0.000449   0.000662
     78      -0.753382   0.001551  -0.186762   0.000792  -0.000574   0.000131
     79      -0.068711   0.000153  -0.016483  -0.000169  -0.000130   0.000116
     80       0.171325  -0.000354   0.042875  -0.000194   0.000031   0.000024
     81      -0.063253   0.000240  -0.028873   0.000152  -0.000195   0.000081
     82      -0.016957   0.000078  -0.008520   0.000217  -0.000333  -0.000014
     83      -0.121702   0.000436  -0.052036   0.000491  -0.000656   0.000096


-----------
IR SPECTRUM
-----------

 Mode   freq       eps      Int      T**2         TX        TY        TZ
       cm**-1   L/(mol*cm) km/mol    a.u.
----------------------------------------------------------------------------
  7:     38.74   0.000031    0.16  0.000253  ( 0.002825  0.013729  0.007549)
  8:     93.26   0.000040    0.20  0.000133  ( 0.004346 -0.010268 -0.002963)
  9:    135.00   0.000009    0.05  0.000021  ( 0.000089 -0.001665  0.004297)
 10:    159.93   0.000000    0.00  0.000000  (-0.000074  0.000193  0.000205)
 11:    219.55   0.000009    0.05  0.000013  ( 0.003082  0.000967 -0.001549)
 12:    250.04   0.000005    0.03  0.000007  (-0.001436  0.001350  0.001701)
 13:    256.39   0.000034    0.17  0.000041  ( 0.003080  0.000474  0.005591)
 14:    295.37   0.000022    0.11  0.000023  ( 0.002554  0.002466 -0.003269)
 15:    307.04   0.000110    0.56  0.000112  (-0.010338  0.002182  0.000693)
 16:    317.73   0.000025    0.13  0.000024  ( 0.000931 -0.000649 -0.004807)
 17:    339.38   0.000025    0.13  0.000023  ( 0.004075  0.002607 -0.000126)
 18:    399.40   0.000102    0.52  0.000080  ( 0.002780  0.008324  0.001686)
 19:    448.82   0.000028    0.14  0.000020  (-0.000446 -0.001896  0.003994)
 20:    478.24   0.000003    0.01  0.000002  ( 0.001015  0.000159 -0.000902)
 21:    517.48   0.000194    0.98  0.000117  (-0.010239 -0.003246 -0.001221)
 22:    605.95   0.000478    2.42  0.000246  ( 0.000436  0.003624 -0.015258)
 23:    679.83   0.002152   10.87  0.000988  ( 0.000558  0.028806  0.012552)
 24:    682.44   0.012585   63.60  0.005755  (-0.003000 -0.072819 -0.021055)
 25:    698.70   0.000909    4.59  0.000406  (-0.012329  0.015502  0.003687)
 26:    768.62   0.009121   46.09  0.003703  ( 0.006117 -0.057908 -0.017676)
 27:    896.40   0.005114   25.85  0.001780  ( 0.005764 -0.039665 -0.013187)
 28:    911.51   0.000225    1.14  0.000077  (-0.001380  0.000021 -0.008671)
 29:    915.06   0.000052    0.26  0.000018  (-0.000936  0.003176  0.002617)
 30:    918.58   0.000545    2.76  0.000185  (-0.012538 -0.005290 -0.000224)
 31:    937.04   0.000778    3.93  0.000259  ( 0.001380 -0.015993  0.001188)
 32:    948.41   0.000628    3.17  0.000207  ( 0.000399 -0.012322 -0.007391)
 33:    961.80   0.000202    1.02  0.000066  (-0.001319 -0.007791  0.001776)
 34:    967.57   0.000153    0.77  0.000049  (-0.000561 -0.005961 -0.003673)
 35:   1026.25   0.003423   17.30  0.001041  ( 0.032223  0.001441  0.000723)
 36:   1036.25   0.000117    0.59  0.000035  (-0.002196 -0.001579  0.005293)
 37:   1101.39   0.003742   18.91  0.001060  ( 0.000635 -0.009333  0.031188)
 38:   1126.78   0.000156    0.79  0.000043  (-0.004708  0.001378  0.004376)
 39:   1136.88   0.000359    1.81  0.000098  ( 0.001688 -0.002349  0.009490)
 40:   1168.85   0.018119   91.57  0.004837  ( 0.069404  0.003350  0.003055)
 41:   1172.77   0.003400   17.18  0.000905  ( 0.021188  0.021248  0.002075)
 42:   1178.98   0.002401   12.14  0.000636  ( 0.003081 -0.023865 -0.007521)
 43:   1192.42   0.001805    9.12  0.000472  ( 0.010925  0.002124 -0.018669)
 44:   1216.77   0.031558  159.48  0.008094  ( 0.089912  0.000554  0.003009)
 45:   1270.67   0.008566   43.29  0.002104  (-0.045821  0.002045 -0.000066)
 46:   1339.39   0.000168    0.85  0.000039  ( 0.005966 -0.000762  0.001695)
 47:   1347.62   0.000086    0.43  0.000020  (-0.002817 -0.001929 -0.002855)
 48:   1354.16   0.000160    0.81  0.000037  (-0.005798 -0.001742  0.000431)
 49:   1368.77   0.008038   40.62  0.001833  (-0.042408  0.004146  0.004117)
 50:   1395.93   0.002772   14.01  0.000620  ( 0.001316  0.000257  0.024856)
 51:   1402.10   0.004661   23.56  0.001037  (-0.006636  0.031517 -0.000282)
 52:   1404.81   0.003804   19.23  0.000845  ( 0.000430  0.029060  0.000668)
 53:   1406.32   0.005113   25.84  0.001135  ( 0.014113  0.002083 -0.030513)
 54:   1411.56   0.004195   21.20  0.000927  (-0.012543  0.006020 -0.027089)
 55:   1441.95   0.000017    0.08  0.000004  (-0.000279  0.001003 -0.001592)
 56:   1447.16   0.000048    0.24  0.000010  (-0.000682 -0.001517 -0.002760)
 57:   1451.10   0.000452    2.29  0.000097  (-0.000771 -0.007874  0.005887)
 58:   1456.38   0.003886   19.64  0.000833  ( 0.006782 -0.001287  0.028017)
 59:   1459.64   0.003578   18.08  0.000765  (-0.018748 -0.008849 -0.018306)
 60:   1463.92   0.004372   22.09  0.000932  ( 0.023803  0.007338 -0.017648)
 61:   1471.37   0.002362   11.93  0.000501  (-0.003695 -0.013351  0.017578)
 62:   1475.59   0.000652    3.30  0.000138  (-0.002230  0.009182 -0.006977)
 63:   1487.25   0.000602    3.04  0.000126  ( 0.011034 -0.001621  0.001359)
 64:   1512.47   0.000402    2.03  0.000083  ( 0.000921 -0.002409  0.008732)
 65:   1645.80   0.015941   80.56  0.003023  ( 0.053790  0.003343 -0.010865)
 66:   1647.24   0.014126   71.39  0.002676  (-0.050136  0.004349 -0.011986)
 67:   3070.63   0.002733   13.81  0.000278  (-0.004234  0.015356  0.004900)
 68:   3070.85   0.002050   10.36  0.000208  (-0.002646  0.014134  0.001266)
 69:   3075.18   0.001777    8.98  0.000180  ( 0.000620  0.003811  0.012862)
 70:   3075.58   0.001723    8.71  0.000175  (-0.000133  0.008634 -0.010011)
 71:   3134.41   0.000764    3.86  0.000076  (-0.005263 -0.001995 -0.006660)
 72:   3139.07   0.000678    3.43  0.000067  (-0.005231 -0.003888  0.004991)
 73:   3175.20   0.000997    5.04  0.000098  ( 0.003448 -0.008224  0.004302)
 74:   3175.79   0.001140    5.76  0.000112  (-0.003724  0.005049  0.008525)
 75:   3178.67   0.004916   24.84  0.000483  ( 0.011143  0.003651  0.018578)
 76:   3179.37   0.005113   25.84  0.000502  ( 0.011847  0.011451 -0.015179)
 77:   3187.08   0.001991   10.06  0.000195  ( 0.009806  0.007673  0.006315)
 78:   3187.47   0.001933    9.77  0.000189  ( 0.009238  0.009783 -0.002866)
 79:   3190.59   0.002524   12.76  0.000247  (-0.013996  0.006767 -0.002280)
 80:   3191.14   0.002199   11.11  0.000215  ( 0.013409 -0.003885 -0.004489)
 81:   3301.83   0.005657   28.59  0.000535  ( 0.023096  0.001038  0.000313)
 82:   3305.82   0.011872   60.00  0.001121  ( 0.000228  0.009990 -0.031951)
 83:   3319.79   0.002662   13.45  0.000250  (-0.000269  0.004613 -0.015127)

* The epsilon (eps) is given for a Dirac delta lineshape.
** The dipole moment derivative (T) already includes vibrational overlap.

The first frequency considered to be a vibration is 7
The total number of vibrations considered is 77


--------------------------
THERMOCHEMISTRY AT 298.15K
--------------------------

Temperature         ... 298.15 K
Pressure            ... 1.00 atm
Total Mass          ... 153.25 AMU

Throughout the following assumptions are being made:
  (1) The electronic state is orbitally nondegenerate
  (2) There are no thermally accessible electronically excited states
  (3) Hindered rotations indicated by low frequency modes are not
      treated as such but are treated as vibrations and this may
      cause some error
  (4) All equations used are the standard statistical mechanics
      equations for an ideal gas
  (5) All vibrations are strictly harmonic

freq.      38.74  E(vib)   ...       0.54 
freq.      93.26  E(vib)   ...       0.47 
freq.     135.00  E(vib)   ...       0.42 
freq.     159.93  E(vib)   ...       0.39 
freq.     219.55  E(vib)   ...       0.33 
freq.     250.04  E(vib)   ...       0.31 
freq.     256.39  E(vib)   ...       0.30 
freq.     295.37  E(vib)   ...       0.27 
freq.     307.04  E(vib)   ...       0.26 
freq.     317.73  E(vib)   ...       0.25 
freq.     339.38  E(vib)   ...       0.23 
freq.     399.40  E(vib)   ...       0.19 
freq.     448.82  E(vib)   ...       0.17 
freq.     478.24  E(vib)   ...       0.15 
freq.     517.48  E(vib)   ...       0.13 
freq.     605.95  E(vib)   ...       0.10 
freq.     679.83  E(vib)   ...       0.08 
freq.     682.44  E(vib)   ...       0.08 
freq.     698.70  E(vib)   ...       0.07 
freq.     768.62  E(vib)   ...       0.06 
freq.     896.40  E(vib)   ...       0.03 
freq.     911.51  E(vib)   ...       0.03 
freq.     915.06  E(vib)   ...       0.03 
freq.     918.58  E(vib)   ...       0.03 
freq.     937.04  E(vib)   ...       0.03 
freq.     948.41  E(vib)   ...       0.03 
freq.     961.80  E(vib)   ...       0.03 
freq.     967.57  E(vib)   ...       0.03 
freq.    1026.25  E(vib)   ...       0.02 
freq.    1036.25  E(vib)   ...       0.02 
freq.    1101.39  E(vib)   ...       0.02 
freq.    1126.78  E(vib)   ...       0.01 
freq.    1136.88  E(vib)   ...       0.01 
freq.    1168.85  E(vib)   ...       0.01 
freq.    1172.77  E(vib)   ...       0.01 
freq.    1178.98  E(vib)   ...       0.01 
freq.    1192.42  E(vib)   ...       0.01 
freq.    1216.77  E(vib)   ...       0.01 
freq.    1270.67  E(vib)   ...       0.01 
freq.    1339.39  E(vib)   ...       0.01 
freq.    1347.62  E(vib)   ...       0.01 
freq.    1354.16  E(vib)   ...       0.01 
freq.    1368.77  E(vib)   ...       0.01 
freq.    1395.93  E(vib)   ...       0.00 
freq.    1402.10  E(vib)   ...       0.00 
freq.    1404.81  E(vib)   ...       0.00 
freq.    1406.32  E(vib)   ...       0.00 
freq.    1411.56  E(vib)   ...       0.00 
freq.    1441.95  E(vib)   ...       0.00 
freq.    1447.16  E(vib)   ...       0.00 
freq.    1451.10  E(vib)   ...       0.00 
freq.    1456.38  E(vib)   ...       0.00 
freq.    1459.64  E(vib)   ...       0.00 
freq.    1463.92  E(vib)   ...       0.00 
freq.    1471.37  E(vib)   ...       0.00 
freq.    1475.59  E(vib)   ...       0.00 
freq.    1487.25  E(vib)   ...       0.00 
freq.    1512.47  E(vib)   ...       0.00 
freq.    1645.80  E(vib)   ...       0.00 
freq.    1647.24  E(vib)   ...       0.00 
freq.    3070.63  E(vib)   ...       0.00 
freq.    3070.85  E(vib)   ...       0.00 
freq.    3075.18  E(vib)   ...       0.00 
freq.    3075.58  E(vib)   ...       0.00 
freq.    3134.41  E(vib)   ...       0.00 
freq.    3139.07  E(vib)   ...       0.00 
freq.    3175.20  E(vib)   ...       0.00 
freq.    3175.79  E(vib)   ...       0.00 
freq.    3178.67  E(vib)   ...       0.00 
freq.    3179.37  E(vib)   ...       0.00 
freq.    3187.08  E(vib)   ...       0.00 
freq.    3187.47  E(vib)   ...       0.00 
freq.    3190.59  E(vib)   ...       0.00 
freq.    3191.14  E(vib)   ...       0.00 
freq.    3301.83  E(vib)   ...       0.00 
freq.    3305.82  E(vib)   ...       0.00 
freq.    3319.79  E(vib)   ...       0.00 

------------
INNER ENERGY
------------

The inner energy is: U= E(el) + E(ZPE) + E(vib) + E(rot) + E(trans)
    E(el)   - is the total energy from the electronic structure calculation
              = E(kin-el) + E(nuc-el) + E(el-el) + E(nuc-nuc)
    E(ZPE)  - the the zero temperature vibrational energy from the frequency calculation
    E(vib)  - the the finite temperature correction to E(ZPE) due to population
              of excited vibrational states
    E(rot)  - is the rotational thermal energy
    E(trans)- is the translational thermal energy

Summary of contributions to the inner energy U:
Electronic energy                ...   -462.13544105 Eh
Zero point energy                ...      0.25544027 Eh     160.29 kcal/mol
Thermal vibrational correction   ...      0.00838650 Eh       5.26 kcal/mol
Thermal rotational correction    ...      0.00141627 Eh       0.89 kcal/mol
Thermal translational correction ...      0.00141627 Eh       0.89 kcal/mol
-----------------------------------------------------------------------
Total thermal energy                   -461.86878174 Eh


Summary of corrections to the electronic energy:
(perhaps to be used in another calculation)
Total thermal correction                  0.01121904 Eh       7.04 kcal/mol
Non-thermal (ZPE) correction              0.25544027 Eh     160.29 kcal/mol
-----------------------------------------------------------------------
Total correction                          0.26665931 Eh     167.33 kcal/mol


--------
ENTHALPY
--------

The enthalpy is H = U + kB*T
                kB is Boltzmann's constant
Total free energy                 ...   -461.86878174 Eh 
Thermal Enthalpy correction       ...      0.00094421 Eh       0.59 kcal/mol
-----------------------------------------------------------------------
Total Enthalpy                    ...   -461.86783753 Eh


Note: Only C1 symmetry has been detected, increase convergence thresholds 
      if your molecule has a higher symmetry. Symmetry factor of 1.0 is   
      used for the rotational entropy correction. 
 

Note: Rotational entropy computed according to Herzberg 
Infrared and Raman Spectra, Chapter V,1, Van Nostrand Reinhold, 1945 
Point Group:  C1, Symmetry Number:   1  
Rotational constants in cm-1:     0.066995     0.020984     0.019731 

Vibrational entropy computed according to the QRRHO of S. Grimme
Chem.Eur.J. 2012 18 9955


-------
ENTROPY
-------

The entropy contributions are T*S = T*(S(el)+S(vib)+S(rot)+S(trans))
     S(el)   - electronic entropy
     S(vib)  - vibrational entropy
     S(rot)  - rotational entropy
     S(trans)- translational entropy
The entropies will be listed as multiplied by the temperature to get
units of energy

Electronic entropy                ...      0.00000000 Eh      0.00 kcal/mol
Vibrational entropy               ...      0.01415046 Eh      8.88 kcal/mol
Rotational entropy                ...      0.01446431 Eh      9.08 kcal/mol
Translational entropy             ...      0.01947584 Eh     12.22 kcal/mol
-----------------------------------------------------------------------
Final entropy term                ...      0.04809062 Eh     30.18 kcal/mol

In case the symmetry of your molecule has not been determined correctly
or in case you have a reason to use a different symmetry number we print 
out the resulting rotational entropy values for sn=1,12 :
 --------------------------------------------------------
|  sn= 1 | S(rot)=       0.01446431 Eh      9.08 kcal/mol|
|  sn= 2 | S(rot)=       0.01380986 Eh      8.67 kcal/mol|
|  sn= 3 | S(rot)=       0.01342703 Eh      8.43 kcal/mol|
|  sn= 4 | S(rot)=       0.01315540 Eh      8.26 kcal/mol|
|  sn= 5 | S(rot)=       0.01294471 Eh      8.12 kcal/mol|
|  sn= 6 | S(rot)=       0.01277257 Eh      8.01 kcal/mol|
|  sn= 7 | S(rot)=       0.01262702 Eh      7.92 kcal/mol|
|  sn= 8 | S(rot)=       0.01250094 Eh      7.84 kcal/mol|
|  sn= 9 | S(rot)=       0.01238974 Eh      7.77 kcal/mol|
|  sn=10 | S(rot)=       0.01229026 Eh      7.71 kcal/mol|
|  sn=11 | S(rot)=       0.01220027 Eh      7.66 kcal/mol|
|  sn=12 | S(rot)=       0.01211811 Eh      7.60 kcal/mol|
 --------------------------------------------------------


-------------------
GIBBS FREE ENERGY
-------------------

The Gibbs free energy is G = H - T*S

Total enthalpy                    ...   -461.86783753 Eh 
Total entropy correction          ...     -0.04809062 Eh    -30.18 kcal/mol
-----------------------------------------------------------------------
Final Gibbs free energy         ...   -461.91592815 Eh

For completeness - the Gibbs free energy minus the electronic energy
G-E(el)                           ...      0.21951291 Eh    137.75 kcal/mol


Timings for individual modules:

Sum of individual times         ...     3957.412 sec (=  65.957 min)
GTO integral calculation        ...        2.299 sec (=   0.038 min)   0.1 %
SCF iterations                  ...     1931.294 sec (=  32.188 min)  48.8 %
SCF Gradient evaluation         ...      506.751 sec (=   8.446 min)  12.8 %
Geometry relaxation             ...        0.426 sec (=   0.007 min)   0.0 %
Analytical frequency calculation...     1516.642 sec (=  25.277 min)  38.3 %
                             ****ORCA TERMINATED NORMALLY****
TOTAL RUN TIME: 0 days 1 hours 5 minutes 58 seconds 405 msec
