
                                 *****************
                                 * O   R   C   A *
                                 *****************

                                            #,                                       
                                            ###                                      
                                            ####                                     
                                            #####                                    
                                            ######                                   
                                           ########,                                 
                                     ,,################,,,,,                         
                               ,,#################################,,                 
                          ,,##########################################,,             
                       ,#########################################, ''#####,          
                    ,#############################################,,   '####,        
                  ,##################################################,,,,####,       
                ,###########''''           ''''###############################       
              ,#####''   ,,,,##########,,,,          '''####'''          '####       
            ,##' ,,,,###########################,,,                        '##       
           ' ,,###''''                  '''############,,,                           
         ,,##''                                '''############,,,,        ,,,,,,###''
      ,#''                                            '''#######################'''  
     '                                                          ''''####''''         
             ,#######,   #######,   ,#######,      ##                                
            ,#'     '#,  ##    ##  ,#'     '#,    #''#        ######   ,####,        
            ##       ##  ##   ,#'  ##            #'  '#       #        #'  '#        
            ##       ##  #######   ##           ,######,      #####,   #    #        
            '#,     ,#'  ##    ##  '#,     ,#' ,#      #,         ##   #,  ,#        
             '#######'   ##     ##  '#######'  #'      '#     #####' # '####'        



                  #######################################################
                  #                        -***-                        #
                  #          Department of theory and spectroscopy      #
                  #    Directorship and core code : Frank Neese         #
                  #        Max Planck Institute fuer Kohlenforschung    #
                  #                Kaiser Wilhelm Platz 1               #
                  #                 D-45470 Muelheim/Ruhr               #
                  #                      Germany                        #
                  #                                                     #
                  #                  All rights reserved                #
                  #                        -***-                        #
                  #######################################################


                         Program Version 5.0.4 -  RELEASE  -


 With contributions from (in alphabetic order):
   Daniel Aravena         : Magnetic Suceptibility
   Michael Atanasov       : Ab Initio Ligand Field Theory (pilot matlab implementation)
   Alexander A. Auer      : GIAO ZORA, VPT2 properties, NMR spectrum
   Ute Becker             : Parallelization
   Giovanni Bistoni       : ED, misc. LED, open-shell LED, HFLD
   Martin Brehm           : Molecular dynamics
   Dmytro Bykov           : SCF Hessian
   Vijay G. Chilkuri      : MRCI spin determinant printing, contributions to CSF-ICE
   Dipayan Datta          : RHF DLPNO-CCSD density
   Achintya Kumar Dutta   : EOM-CC, STEOM-CC
   Dmitry Ganyushin       : Spin-Orbit,Spin-Spin,Magnetic field MRCI
   Miquel Garcia          : C-PCM and meta-GGA Hessian, CC/C-PCM, Gaussian charge scheme
   Yang Guo               : DLPNO-NEVPT2, F12-NEVPT2, CIM, IAO-localization
   Andreas Hansen         : Spin unrestricted coupled pair/coupled cluster methods
   Benjamin Helmich-Paris : MC-RPA, TRAH-SCF, COSX integrals
   Lee Huntington         : MR-EOM, pCC
   Robert Izsak           : Overlap fitted RIJCOSX, COSX-SCS-MP3, EOM
   Marcus Kettner         : VPT2
   Christian Kollmar      : KDIIS, OOCD, Brueckner-CCSD(T), CCSD density, CASPT2, CASPT2-K
   Simone Kossmann        : Meta GGA functionals, TD-DFT gradient, OOMP2, MP2 Hessian
   Martin Krupicka        : Initial AUTO-CI
   Lucas Lang             : DCDCAS
   Marvin Lechner         : AUTO-CI (C++ implementation), FIC-MRCC
   Dagmar Lenk            : GEPOL surface, SMD
   Dimitrios Liakos       : Extrapolation schemes; Compound Job, initial MDCI parallelization
   Dimitrios Manganas     : Further ROCIS development; embedding schemes
   Dimitrios Pantazis     : SARC Basis sets
   Anastasios Papadopoulos: AUTO-CI, single reference methods and gradients
   Taras Petrenko         : DFT Hessian,TD-DFT gradient, ASA, ECA, R-Raman, ABS, FL, XAS/XES, NRVS
   Peter Pinski           : DLPNO-MP2, DLPNO-MP2 Gradient
   Christoph Reimann      : Effective Core Potentials
   Marius Retegan         : Local ZFS, SOC
   Christoph Riplinger    : Optimizer, TS searches, QM/MM, DLPNO-CCSD(T), (RO)-DLPNO pert. Triples
   Tobias Risthaus        : Range-separated hybrids, TD-DFT gradient, RPA, STAB
   Michael Roemelt        : Original ROCIS implementation
   Masaaki Saitow         : Open-shell DLPNO-CCSD energy and density
   Barbara Sandhoefer     : DKH picture change effects
   Avijit Sen             : IP-ROCIS
   Kantharuban Sivalingam : CASSCF convergence, NEVPT2, FIC-MRCI
   Bernardo de Souza      : ESD, SOC TD-DFT
   Georgi Stoychev        : AutoAux, RI-MP2 NMR, DLPNO-MP2 response
   Willem Van den Heuvel  : Paramagnetic NMR
   Boris Wezisla          : Elementary symmetry handling
   Frank Wennmohs         : Technical directorship


 We gratefully acknowledge several colleagues who have allowed us to
 interface, adapt or use parts of their codes:
   Stefan Grimme, W. Hujo, H. Kruse, P. Pracht,  : VdW corrections, initial TS optimization,
                  C. Bannwarth, S. Ehlert          DFT functionals, gCP, sTDA/sTD-DF
   Ed Valeev, F. Pavosevic, A. Kumar             : LibInt (2-el integral package), F12 methods
   Garnet Chan, S. Sharma, J. Yang, R. Olivares  : DMRG
   Ulf Ekstrom                                   : XCFun DFT Library
   Mihaly Kallay                                 : mrcc  (arbitrary order and MRCC methods)
   Jiri Pittner, Ondrej Demel                    : Mk-CCSD
   Frank Weinhold                                : gennbo (NPA and NBO analysis)
   Christopher J. Cramer and Donald G. Truhlar   : smd solvation model
   Lars Goerigk                                  : TD-DFT with DH, B97 family of functionals
   V. Asgeirsson, H. Jonsson                     : NEB implementation
   FAccTs GmbH                                   : IRC, NEB, NEB-TS, DLPNO-Multilevel, CI-OPT
                                                   MM, QMMM, 2- and 3-layer-ONIOM, Crystal-QMMM,
                                                   LR-CPCM, SF, NACMEs, symmetry and pop. for TD-DFT,
                                                   nearIR, NL-DFT gradient (VV10), updates on ESD,
                                                   ML-optimized integration grids
   S Lehtola, MJT Oliveira, MAL Marques          : LibXC Library
   Liviu Ungur et al                             : ANISO software


 Your calculation uses the libint2 library for the computation of 2-el integrals
 For citations please refer to: http://libint.valeyev.net

 Your ORCA version has been built with support for libXC version: 5.1.0
 For citations please refer to: https://tddft.org/programs/libxc/

 This ORCA versions uses:
   CBLAS   interface :  Fast vector & matrix operations
   LAPACKE interface :  Fast linear algebra routines
   SCALAPACK package :  Parallel linear algebra routines
   Shared memory     :  Shared parallel matrices
   BLAS/LAPACK       :  OpenBLAS 0.3.15  USE64BITINT DYNAMIC_ARCH NO_AFFINITY SkylakeX SINGLE_THREADED
        Core in use  :  SkylakeX
   Copyright (c) 2011-2014, The OpenBLAS Project




***************************************
The coordinates will be read from file: 4_prot_aq_9.xyz
***************************************


Your calculation utilizes the atom-pairwise dispersion correction
based on tight binding partial charges (D4)
Cite in your paper:
E.Caldeweyher, C.Bannwarth, S.Grimme, J.Chem.Phys., (2017), 147, 034112.
E.Caldeweyher, S.Ehlert, A.Hansen, H.Neugebauer, S.Grimme, J.Chem.Phys., (2018), in progress.
   

XCFun DFT library Copyright 2009-2010 Ulf Ekstrom and contributors.
See http://admol.org/xcfun for more information.
This is free software; see the source code for copying conditions.
There is ABSOLUTELY NO WARRANTY; not even for MERCHANTABILITY or FITNESS FOR A PARTICULAR PURPOSE.
For details see the documentation.
Scientific users of this library should cite U. Ekstrom, L. Visscher, R. Bast, A. J. Thorvaldsen and K. Ruud;
J.Chem.Theor.Comp. 2010, DOI: 10.1021/ct100117s
XCFun Version 0.99 

================================================================================

----- Orbital basis set information -----
Your calculation utilizes the basis: def2-SVP
   F. Weigend and R. Ahlrichs, Phys. Chem. Chem. Phys. 7, 3297 (2005).

----- AuxJ basis set information -----
Your calculation utilizes the auxiliary basis: def2/J
   F. Weigend, Phys. Chem. Chem. Phys. 8, 1057 (2006).

================================================================================
                                        WARNINGS
                       Please study these warnings very carefully!
================================================================================


WARNING: Geometry Optimization
  ===> : Switching off AutoStart
         For restart on a previous wavefunction, please use MOREAD

INFO   : the flag for use of the SHARK integral package has been found!

================================================================================
                                       INPUT FILE
================================================================================
NAME = 4_prot_aq_9.inp
|  1> # ORCA 5.0.4 - /users/bwb16179/postgrad/2024_03/DFT_Crest_Conformers/Opt/prot/4_prot_aq_9.inp # write input file
|  2> # Basic Mode
|  3> #
|  4> ! Opt Freq wB97X Def2-SVP D4 SlowConv TightSCF Defgrid2 Def2/J RIJCOSX CPCM(Water)
|  5> 
|  6> 
|  7> 
|  8> %maxcore 4500
|  9> 
| 10> %geom
| 11> Maxiter 150
| 12> END
| 13> 
| 14> * xyzfile 1 1 4_prot_aq_9.xyz
| 15> 
| 16>                          ****END OF INPUT****
================================================================================

                       *****************************
                       * Geometry Optimization Run *
                       *****************************

Geometry optimization settings:
Update method            Update   .... BFGS
Choice of coordinates    CoordSys .... Z-matrix Internals
Initial Hessian          InHess   .... Almoef's Model

Convergence Tolerances:
Energy Change            TolE     ....  5.0000e-06 Eh
Max. Gradient            TolMAXG  ....  3.0000e-04 Eh/bohr
RMS Gradient             TolRMSG  ....  1.0000e-04 Eh/bohr
Max. Displacement        TolMAXD  ....  4.0000e-03 bohr
RMS Displacement         TolRMSD  ....  2.0000e-03 bohr
Strict Convergence                ....  False
------------------------------------------------------------------------------
                        ORCA OPTIMIZATION COORDINATE SETUP
------------------------------------------------------------------------------

The optimization will be done in new redundant internal coordinates
Making redundant internal coordinates   ...  (new redundants) done
Evaluating the initial hessian          ...  (Almloef) done
Evaluating the coordinates              ...  done
Calculating the B-matrix                .... done
Calculating the G-matrix                .... done
Diagonalizing the G-matrix              .... done
Small eigenvalue found = 1.155e-02
Small eigenvalue found = 2.308e-02
The first mode is                       ....   69
The number of degrees of freedom        ....   78

    -----------------------------------------------------------------
                    Redundant Internal Coordinates


    -----------------------------------------------------------------
         Definition                    Initial Value    Approx d2E/dq
    -----------------------------------------------------------------
      1. B(C   1,N   0)                  1.3297         0.698251   
      2. B(N   2,C   1)                  1.3300         0.697585   
      3. B(H   3,C   1)                  1.0706         0.386710   
      4. B(C   4,N   2)                  1.3611         0.622183   
      5. B(C   5,C   4)                  1.3609         0.695303   
      6. B(C   5,N   0)                  1.3614         0.621638   
      7. B(C   6,N   0)                  1.4602         0.432327   
      8. B(C   7,N   2)                  1.4601         0.432493   
      9. B(C   8,C   6)                  1.5226         0.383898   
     10. B(H   9,C   6)                  1.0950         0.353564   
     11. B(C  10,C   6)                  1.5276         0.376884   
     12. B(C  11,C   7)                  1.5275         0.377035   
     13. B(C  12,C   7)                  1.5230         0.383344   
     14. B(H  13,C   7)                  1.0948         0.353806   
     15. B(H  14,C   4)                  1.0707         0.386529   
     16. B(H  15,C   5)                  1.0707         0.386547   
     17. B(H  16,C   8)                  1.0869         0.364268   
     18. B(H  17,C   8)                  1.0874         0.363503   
     19. B(H  18,C   8)                  1.0860         0.365433   
     20. B(H  19,C  10)                  1.0856         0.365950   
     21. B(H  20,C  10)                  1.0872         0.363808   
     22. B(H  21,C  10)                  1.0875         0.363413   
     23. B(H  22,C  11)                  1.0856         0.365963   
     24. B(H  23,C  11)                  1.0873         0.363741   
     25. B(H  24,C  11)                  1.0875         0.363451   
     26. B(H  25,C  12)                  1.0860         0.365454   
     27. B(H  26,C  12)                  1.0868         0.364365   
     28. B(H  27,C  12)                  1.0874         0.363523   
     29. A(C   1,N   0,C   6)          127.4065         0.410343   
     30. A(C   5,N   0,C   6)          124.6576         0.402001   
     31. A(C   1,N   0,C   5)          107.8473         0.437874   
     32. A(N   0,C   1,H   3)          125.2431         0.362248   
     33. A(N   2,C   1,H   3)          125.1755         0.362189   
     34. A(N   0,C   1,N   2)          109.5814         0.447095   
     35. A(C   1,N   2,C   7)          127.1968         0.410302   
     36. A(C   1,N   2,C   4)          107.8544         0.437868   
     37. A(C   4,N   2,C   7)          124.8559         0.402090   
     38. A(N   2,C   4,H  14)          122.6223         0.355178   
     39. A(C   5,C   4,H  14)          130.0218         0.364222   
     40. A(N   2,C   4,C   5)          107.3556         0.440501   
     41. A(N   0,C   5,C   4)          107.3606         0.440432   
     42. A(N   0,C   5,H  15)          122.6140         0.355129   
     43. A(C   4,C   5,H  15)          130.0251         0.364225   
     44. A(N   0,C   6,C  10)          108.9104         0.370802   
     45. A(C   8,C   6,H   9)          109.3992         0.324796   
     46. A(N   0,C   6,H   9)          106.0850         0.329229   
     47. A(N   0,C   6,C   8)          111.1852         0.371980   
     48. A(H   9,C   6,C  10)          109.3165         0.323813   
     49. A(C   8,C   6,C  10)          111.7715         0.365601   
     50. A(C  12,C   7,H  13)          109.3942         0.324755   
     51. A(C  11,C   7,H  13)          109.3298         0.323871   
     52. A(N   2,C   7,H  13)          106.0702         0.329287   
     53. A(C  11,C   7,C  12)          111.8241         0.365536   
     54. A(N   2,C   7,C  12)          111.0972         0.371912   
     55. A(N   2,C   7,C  11)          108.9498         0.370852   
     56. A(C   6,C   8,H  18)          108.9917         0.326564   
     57. A(H  16,C   8,H  17)          109.4414         0.291797   
     58. A(C   6,C   8,H  17)          111.1578         0.326280   
     59. A(C   6,C   8,H  16)          111.5078         0.326393   
     60. A(H  17,C   8,H  18)          107.9800         0.291944   
     61. A(H  16,C   8,H  18)          107.6319         0.292040   
     62. A(H  19,C  10,H  21)          108.3707         0.291997   
     63. A(C   6,C  10,H  21)          110.7181         0.325278   
     64. A(H  19,C  10,H  20)          108.2871         0.292047   
     65. A(C   6,C  10,H  20)          111.0991         0.325336   
     66. A(H  20,C  10,H  21)          108.8308         0.291728   
     67. A(C   6,C  10,H  19)          109.4599         0.325651   
     68. A(H  23,C  11,H  24)          108.8377         0.291724   
     69. A(H  22,C  11,H  24)          108.3684         0.292004   
     70. A(C   7,C  11,H  24)          110.7466         0.325305   
     71. A(H  22,C  11,H  23)          108.2857         0.292040   
     72. A(C   7,C  11,H  23)          111.0633         0.325348   
     73. A(C   7,C  11,H  22)          109.4642         0.325674   
     74. A(H  26,C  12,H  27)          109.3827         0.291812   
     75. A(H  25,C  12,H  27)          108.0045         0.291949   
     76. A(C   7,C  12,H  27)          111.1173         0.326205   
     77. A(H  25,C  12,H  26)          107.6494         0.292055   
     78. A(C   7,C  12,H  26)          111.5348         0.326329   
     79. A(C   7,C  12,H  25)          109.0245         0.326490   
     80. D(H   3,C   1,N   0,C   5)    179.9123         0.040326   
     81. D(H   3,C   1,N   0,C   6)      3.2358         0.040326   
     82. D(N   2,C   1,N   0,C   6)   -176.7637         0.040326   
     83. D(N   2,C   1,N   0,C   5)     -0.0872         0.040326   
     84. D(C   7,N   2,C   1,H   3)      3.3040         0.040242   
     85. D(C   7,N   2,C   1,N   0)   -176.6965         0.040242   
     86. D(C   4,N   2,C   1,H   3)    179.9114         0.040242   
     87. D(C   4,N   2,C   1,N   0)     -0.0891         0.040242   
     88. D(H  14,C   4,N   2,C   1)   -179.9242         0.031364   
     89. D(C   5,C   4,N   2,C   7)    176.9366         0.031364   
     90. D(H  14,C   4,N   2,C   7)     -3.2174         0.031364   
     91. D(C   5,C   4,N   2,C   1)      0.2297         0.031364   
     92. D(H  15,C   5,N   0,C   1)   -179.9722         0.031304   
     93. D(C   4,C   5,N   0,C   6)    177.0192         0.031304   
     94. D(C   4,C   5,N   0,C   1)      0.2286         0.031304   
     95. D(H  15,C   5,C   4,H  14)      0.1094         0.034011   
     96. D(H  15,C   5,C   4,N   2)    179.9401         0.034011   
     97. D(N   0,C   5,C   4,H  14)    179.8885         0.034011   
     98. D(N   0,C   5,C   4,N   2)     -0.2808         0.034011   
     99. D(H  15,C   5,N   0,C   6)     -3.1816         0.031304   
    100. D(C  10,C   6,N   0,C   5)    -84.9190         0.015935   
    101. D(C  10,C   6,N   0,C   1)     91.2342         0.015935   
    102. D(H   9,C   6,N   0,C   5)     32.6416         0.015935   
    103. D(H   9,C   6,N   0,C   1)   -151.2051         0.015935   
    104. D(C   8,C   6,N   0,C   5)    151.4900         0.015935   
    105. D(C   8,C   6,N   0,C   1)    -32.3567         0.015935   
    106. D(C  12,C   7,N   2,C   4)    147.9233         0.015948   
    107. D(C  11,C   7,N   2,C   4)    -88.4508         0.015948   
    108. D(C  11,C   7,N   2,C   1)     87.6132         0.015948   
    109. D(H  13,C   7,N   2,C   1)   -154.7986         0.015948   
    110. D(C  12,C   7,N   2,C   1)    -36.0127         0.015948   
    111. D(H  13,C   7,N   2,C   4)     29.1374         0.015948   
    112. D(H  18,C   8,C   6,C  10)     68.5751         0.011734   
    113. D(H  18,C   8,C   6,H   9)    -52.6415         0.011734   
    114. D(H  18,C   8,C   6,N   0)   -169.4822         0.011734   
    115. D(H  17,C   8,C   6,C  10)   -172.5267         0.011734   
    116. D(H  17,C   8,C   6,H   9)     66.2567         0.011734   
    117. D(H  17,C   8,C   6,N   0)    -50.5840         0.011734   
    118. D(H  16,C   8,C   6,C  10)    -50.1063         0.011734   
    119. D(H  16,C   8,C   6,H   9)   -171.3229         0.011734   
    120. D(H  16,C   8,C   6,N   0)     71.8364         0.011734   
    121. D(H  21,C  10,C   6,H   9)   -179.3531         0.011331   
    122. D(H  21,C  10,C   6,C   8)     59.3825         0.011331   
    123. D(H  21,C  10,C   6,N   0)    -63.8588         0.011331   
    124. D(H  20,C  10,C   6,H   9)    -58.3003         0.011331   
    125. D(H  20,C  10,C   6,C   8)   -179.5648         0.011331   
    126. D(H  20,C  10,C   6,N   0)     57.1940         0.011331   
    127. D(H  19,C  10,C   6,H   9)     61.2400         0.011331   
    128. D(H  19,C  10,C   6,C   8)    -60.0245         0.011331   
    129. D(H  19,C  10,C   6,N   0)    176.7342         0.011331   
    130. D(H  24,C  11,C   7,C  12)     59.3621         0.011339   
    131. D(H  24,C  11,C   7,N   2)    -63.8306         0.011339   
    132. D(H  23,C  11,C   7,H  13)    -58.2796         0.011339   
    133. D(H  23,C  11,C   7,C  12)   -179.5812         0.011339   
    134. D(H  23,C  11,C   7,N   2)     57.2261         0.011339   
    135. D(H  22,C  11,C   7,H  13)     61.2394         0.011339   
    136. D(H  22,C  11,C   7,C  12)    -60.0622         0.011339   
    137. D(H  24,C  11,C   7,H  13)   -179.3363         0.011339   
    138. D(H  22,C  11,C   7,N   2)    176.7451         0.011339   
    139. D(H  26,C  12,C   7,N   2)     72.0587         0.011702   
    140. D(H  25,C  12,C   7,H  13)    -52.4333         0.011702   
    141. D(H  25,C  12,C   7,C  11)     68.8310         0.011702   
    142. D(H  25,C  12,C   7,N   2)   -169.2010         0.011702   
    143. D(H  27,C  12,C   7,H  13)     66.4912         0.011702   
    144. D(H  27,C  12,C   7,C  11)   -172.2444         0.011702   
    145. D(H  27,C  12,C   7,N   2)    -50.2765         0.011702   
    146. D(H  26,C  12,C   7,H  13)   -171.1736         0.011702   
    147. D(H  26,C  12,C   7,C  11)    -49.9093         0.011702   
    -----------------------------------------------------------------

Number of atoms                         .... 28
Number of degrees of freedom            .... 147

         *************************************************************
         *                GEOMETRY OPTIMIZATION CYCLE   1            *
         *************************************************************
---------------------------------
CARTESIAN COORDINATES (ANGSTROEM)
---------------------------------
  N     -1.079017    0.041469    0.381393
  C      0.002596    0.076483   -0.391331
  N      1.084675   -0.157861    0.345619
  H      0.003047    0.264451   -1.445295
  C      0.680832   -0.346830    1.631662
  C     -0.674507   -0.225934    1.653486
  C     -2.471606    0.181351   -0.035056
  C      2.475516   -0.142473   -0.098586
  C     -2.596893    1.113637   -1.232300
  H     -3.001908    0.613863    0.819759
  C     -3.040512   -1.204465   -0.334087
  C      3.016609    1.281490    0.014439
  C      2.604594   -0.686418   -1.515241
  H      3.021412   -0.793448    0.591933
  H      1.366695   -0.552406    2.427761
  H     -1.360035   -0.307625    2.471895
  H     -2.215010    0.651506   -2.138877
  H     -2.074565    2.051017   -1.056184
  H     -3.646381    1.340200   -1.395506
  H     -4.092119   -1.116447   -0.588903
  H     -2.952440   -1.858478    0.529938
  H     -2.521366   -1.660468   -1.173861
  H      4.067127    1.292058   -0.259124
  H      2.925192    1.654665    1.031553
  H      2.481482    1.951177   -0.654715
  H      3.655684   -0.839864   -1.741122
  H      2.208529    0.011492   -2.248165
  H      2.096175   -1.642406   -1.615678

----------------------------
CARTESIAN COORDINATES (A.U.)
----------------------------
  NO LB      ZA    FRAG     MASS         X           Y           Z
   0 N     7.0000    0    14.007   -2.039047    0.078364    0.720729
   1 C     6.0000    0    12.011    0.004906    0.144532   -0.739509
   2 N     7.0000    0    14.007    2.049739   -0.298314    0.653125
   3 H     1.0000    0     1.008    0.005758    0.499740   -2.731211
   4 C     6.0000    0    12.011    1.286586   -0.655413    3.083395
   5 C     6.0000    0    12.011   -1.274633   -0.426953    3.124637
   6 C     6.0000    0    12.011   -4.670658    0.342704   -0.066246
   7 C     6.0000    0    12.011    4.678048   -0.269235   -0.186301
   8 C     6.0000    0    12.011   -4.907416    2.104469   -2.328710
   9 H     1.0000    0     1.008   -5.672784    1.160032    1.549119
  10 C     6.0000    0    12.011   -5.745734   -2.276109   -0.631333
  11 C     6.0000    0    12.011    5.700566    2.421665    0.027287
  12 C     6.0000    0    12.011    4.921970   -1.297141   -2.863391
  13 H     1.0000    0     1.008    5.709642   -1.499400    1.118590
  14 H     1.0000    0     1.008    2.582679   -1.043896    4.587804
  15 H     1.0000    0     1.008   -2.570093   -0.581328    4.671205
  16 H     1.0000    0     1.008   -4.185762    1.231169   -4.041892
  17 H     1.0000    0     1.008   -3.920359    3.875860   -1.995898
  18 H     1.0000    0     1.008   -6.890662    2.532611   -2.637124
  19 H     1.0000    0     1.008   -7.732984   -2.109779   -1.112865
  20 H     1.0000    0     1.008   -5.579303   -3.512015    1.001438
  21 H     1.0000    0     1.008   -4.764692   -3.137830   -2.218276
  22 H     1.0000    0     1.008    7.685756    2.441636   -0.489673
  23 H     1.0000    0     1.008    5.527812    3.126864    1.949353
  24 H     1.0000    0     1.008    4.689321    3.687191   -1.237231
  25 H     1.0000    0     1.008    6.908242   -1.587113   -3.290243
  26 H     1.0000    0     1.008    4.173515    0.021717   -4.248416
  27 H     1.0000    0     1.008    3.961196   -3.103698   -3.053190

--------------------------------
INTERNAL COORDINATES (ANGSTROEM)
--------------------------------
 N      0   0   0     0.000000000000     0.00000000     0.00000000
 C      1   0   0     1.329743096082     0.00000000     0.00000000
 N      2   1   0     1.330002851292   109.58137720     0.00000000
 H      2   1   3     1.070593456170   125.24310422   179.99946478
 C      3   2   1     1.361141088913   107.85442598   359.91086703
 C      5   3   2     1.360894794902   107.35564107     0.22974918
 C      1   2   3     1.460239833566   127.40653607   183.23632290
 C      3   2   1     1.460135261179   127.19683816   183.30347453
 C      7   1   2     1.522579589764   111.18517881   327.64330388
 H      7   1   2     1.094986028286   106.08497970   208.79488630
 C      7   1   2     1.527599414242   108.91036004    91.23424614
 C      8   3   2     1.527490340149   108.94977917    87.61322705
 C      8   3   2     1.522973278729   111.09724554   323.98730471
 H      8   3   2     1.094800129491   106.07023987   205.20138559
 H      5   3   2     1.070720984852   122.62232112   180.07575073
 H      6   5   3     1.070707826417   130.02509062   179.94005773
 H      9   7   1     1.086867202580   111.50781695    71.83644282
 H      9   7   1     1.087439880127   111.15784028   309.41600781
 H      9   7   1     1.085998465516   108.99166830   190.51782036
 H     11   7   1     1.085613344163   109.45993315   176.73423404
 H     11   7   1     1.087211350028   111.09909752    57.19396343
 H     11   7   1     1.087507024489   110.71812089   296.14116769
 H     12   8   3     1.085603905791   109.46416365   176.74505258
 H     12   8   3     1.087261456056   111.06327619    57.22613218
 H     12   8   3     1.087478726054   110.74657548   296.16939518
 H     13   8   3     1.085982398562   109.02451139   190.79899503
 H     13   8   3     1.086794874897   111.53478147    72.05869609
 H     13   8   3     1.087424796797   111.11731300   309.72352243

---------------------------
INTERNAL COORDINATES (A.U.)
---------------------------
 N      0   0   0     0.000000000000     0.00000000     0.00000000
 C      1   0   0     2.512850280068     0.00000000     0.00000000
 N      2   1   0     2.513341146276   109.58137720     0.00000000
 H      2   1   3     2.023128432930   125.24310422   179.99946478
 C      3   2   1     2.572183887672   107.85442598   359.91086703
 C      5   3   2     2.571718459445   107.35564107     0.22974918
 C      1   2   3     2.759453375283   127.40653607   183.23632290
 C      3   2   1     2.759255762110   127.19683816   183.30347453
 C      7   1   2     2.877258441753   111.18517881   327.64330388
 H      7   1   2     2.069223713932   106.08497970   208.79488630
 C      7   1   2     2.886744535256   108.91036004    91.23424614
 C      8   3   2     2.886538415092   108.94977917    87.61322705
 C      8   3   2     2.878002406078   111.09724554   323.98730471
 H      8   3   2     2.068872416119   106.07023987   205.20138559
 H      5   3   2     2.023369427214   122.62232112   180.07575073
 H      6   5   3     2.023344561374   130.02509062   179.94005773
 H      9   7   1     2.053881356816   111.50781695    71.83644282
 H      9   7   1     2.054963560545   111.15784028   309.41600781
 H      9   7   1     2.052239681683   108.99166830   190.51782036
 H     11   7   1     2.051511907798   109.45993315   176.73423404
 H     11   7   1     2.054531701243   111.09909752    57.19396343
 H     11   7   1     2.055090445001   110.71812089   296.14116769
 H     12   8   3     2.051494071860   109.46416365   176.74505258
 H     12   8   3     2.054626387914   111.06327619    57.22613218
 H     12   8   3     2.055036968708   110.74657548   296.16939518
 H     13   8   3     2.052209319541   109.02451139   190.79899503
 H     13   8   3     2.053744677304   111.53478147    72.05869609
 H     13   8   3     2.054935057181   111.11731300   309.72352243

---------------------
BASIS SET INFORMATION
---------------------
There are 3 groups of distinct atoms

 Group   1 Type N   : 7s4p1d contracted to 3s2p1d pattern {511/31/1}
 Group   2 Type C   : 7s4p1d contracted to 3s2p1d pattern {511/31/1}
 Group   3 Type H   : 4s1p contracted to 2s1p pattern {31/1}

Atom   0N    basis set group =>   1
Atom   1C    basis set group =>   2
Atom   2N    basis set group =>   1
Atom   3H    basis set group =>   3
Atom   4C    basis set group =>   2
Atom   5C    basis set group =>   2
Atom   6C    basis set group =>   2
Atom   7C    basis set group =>   2
Atom   8C    basis set group =>   2
Atom   9H    basis set group =>   3
Atom  10C    basis set group =>   2
Atom  11C    basis set group =>   2
Atom  12C    basis set group =>   2
Atom  13H    basis set group =>   3
Atom  14H    basis set group =>   3
Atom  15H    basis set group =>   3
Atom  16H    basis set group =>   3
Atom  17H    basis set group =>   3
Atom  18H    basis set group =>   3
Atom  19H    basis set group =>   3
Atom  20H    basis set group =>   3
Atom  21H    basis set group =>   3
Atom  22H    basis set group =>   3
Atom  23H    basis set group =>   3
Atom  24H    basis set group =>   3
Atom  25H    basis set group =>   3
Atom  26H    basis set group =>   3
Atom  27H    basis set group =>   3
---------------------------------
AUXILIARY/J BASIS SET INFORMATION
---------------------------------
There are 3 groups of distinct atoms

 Group   1 Type N   : 12s5p4d2f1g contracted to 6s4p3d1f1g pattern {711111/2111/211/2/1}
 Group   2 Type C   : 12s5p4d2f1g contracted to 6s4p3d1f1g pattern {711111/2111/211/2/1}
 Group   3 Type H   : 5s2p1d contracted to 3s1p1d pattern {311/2/1}

Atom   0N    basis set group =>   1
Atom   1C    basis set group =>   2
Atom   2N    basis set group =>   1
Atom   3H    basis set group =>   3
Atom   4C    basis set group =>   2
Atom   5C    basis set group =>   2
Atom   6C    basis set group =>   2
Atom   7C    basis set group =>   2
Atom   8C    basis set group =>   2
Atom   9H    basis set group =>   3
Atom  10C    basis set group =>   2
Atom  11C    basis set group =>   2
Atom  12C    basis set group =>   2
Atom  13H    basis set group =>   3
Atom  14H    basis set group =>   3
Atom  15H    basis set group =>   3
Atom  16H    basis set group =>   3
Atom  17H    basis set group =>   3
Atom  18H    basis set group =>   3
Atom  19H    basis set group =>   3
Atom  20H    basis set group =>   3
Atom  21H    basis set group =>   3
Atom  22H    basis set group =>   3
Atom  23H    basis set group =>   3
Atom  24H    basis set group =>   3
Atom  25H    basis set group =>   3
Atom  26H    basis set group =>   3
Atom  27H    basis set group =>   3
------------------------------------------------------------------------------
                           ORCA GTO INTEGRAL CALCULATION
                           -- RI-GTO INTEGRALS CHOSEN --
------------------------------------------------------------------------------
------------------------------------------------------------------------------
                   ___                                                        
                  /   \      - P O W E R E D   B Y -                         
                 /     \                                                     
                 |  |  |   _    _      __       _____    __    __             
                 |  |  |  | |  | |    /  \     |  _  \  |  |  /  |          
                  \  \/   | |  | |   /    \    | | | |  |  | /  /          
                 / \  \   | |__| |  /  /\  \   | |_| |  |  |/  /          
                |  |  |   |  __  | /  /__\  \  |    /   |      \           
                |  |  |   | |  | | |   __   |  |    \   |  |\   \          
                \     /   | |  | | |  |  |  |  | |\  \  |  | \   \       
                 \___/    |_|  |_| |__|  |__|  |_| \__\ |__|  \__/        
                                                                              
                      - O R C A' S   B I G   F R I E N D -                    
                                      &                                       
                       - I N T E G R A L  F E E D E R -                       
                                                                              
 v1 FN, 2020, v2 2021                                                         
------------------------------------------------------------------------------


Reading SHARK input file 4_prot_aq_9.SHARKINP.tmp ... ok
----------------------
SHARK INTEGRAL PACKAGE
----------------------

Number of atoms                             ...     28
Number of basis functions                   ...    239
Number of shells                            ...    117
Maximum angular momentum                    ...      2
Integral batch strategy                     ... SHARK/LIBINT Hybrid
RI-J (if used) integral strategy            ... SPLIT-RIJ (Revised 2003 algorithm where possible)
Printlevel                                  ...      1
Contraction scheme used                     ... SEGMENTED contraction
Coulomb Range Separation                    ... NOT USED
Exchange Range Separation                   ... Long Range
   Mu parameter                             ...  0.300000
   Scaling (regular/separated)              ...  0.157706  0.842294
Finite Nucleus Model                        ... NOT USED
Auxiliary Coulomb fitting basis             ... AVAILABLE
   # of basis functions in Aux-J            ...    726
   # of shells in Aux-J                     ...    250
   Maximum angular momentum in Aux-J        ...      4
Auxiliary J/K fitting basis                 ... NOT available
Auxiliary Correlation fitting basis         ... NOT available
Auxiliary 'external' fitting basis          ... NOT available
Integral threshold                          ...     2.500000e-11
Primitive cut-off                           ...     2.500000e-12
Primitive pair pre-selection threshold      ...     2.500000e-12

Calculating pre-screening integrals         ... done (  0.0 sec) Dimension = 117
Organizing shell pair data                  ... done (  0.0 sec)
Shell pair information
Total number of shell pairs                 ...      6903
Shell pairs after pre-screening             ...      6076
Total number of primitive shell pairs       ...     23847
Primitive shell pairs kept                  ...     14928
          la=0 lb=0:   2066 shell pairs
          la=1 lb=0:   2294 shell pairs
          la=1 lb=1:    659 shell pairs
          la=2 lb=0:    643 shell pairs
          la=2 lb=1:    357 shell pairs
          la=2 lb=2:     57 shell pairs

Calculating one electron integrals          ... done (  0.0 sec)
Calculating RI/J V-Matrix + Cholesky decomp.... done (  0.0 sec)
Calculating Nuclear repulsion               ... done (  0.0 sec) ENN=    655.454176963280 Eh

SHARK setup successfully completed in   0.3 seconds

Maximum memory used throughout the entire GTOINT-calculation: 36.8 MB
-------------------------------------------------------------------------------
                                 ORCA SCF
-------------------------------------------------------------------------------

------------
SCF SETTINGS
------------
Hamiltonian:
 Density Functional     Method          .... DFT(GTOs)
 Exchange Functional    Exchange        .... WB97X
 Correlation Functional Correlation     .... WB97X
 Gradients option       PostSCFGGA      .... off
 Hybrid DFT is turned on
   Fraction HF Exchange ScalHFX         ....  0.157706
   Scaling of DF-GGA-X  ScalDFX         ....  0.000000
   Scaling of DF-GGA-C  ScalDFC         ....  1.000000
   Scaling of DF-LDA-C  ScalLDAC        ....  1.000000
   Perturbative correction              ....  0.000000
   Density functional embedding theory  .... OFF
 Long-range corrected/Screened/Range-Separated Hybrid DFT is turned on
   Amount of maximum screened exact exchange              ....  0.842294
   Range separation parameter mu (erf(mu*r12)/r12)        ....  0.300000
 RI-approximation to the Coulomb term is turned on
   Number of AuxJ basis functions       .... 726
   RIJ-COSX (HFX calculated with COS-X)).... on


General Settings:
 Integral files         IntName         .... 4_prot_aq_9
 Hartree-Fock type      HFTyp           .... RHF
 Total Charge           Charge          ....    1
 Multiplicity           Mult            ....    1
 Number of Electrons    NEL             ....   84
 Basis Dimension        Dim             ....  239
 Nuclear Repulsion      ENuc            ....    655.4541769633 Eh

Convergence Acceleration:
 DIIS                   CNVDIIS         .... on
   Start iteration      DIISMaxIt       ....     0
   Startup error        DIISStart       ....  0.200000
   # of expansion vecs  DIISMaxEq       ....     5
   Bias factor          DIISBfac        ....   1.050
   Max. coefficient     DIISMaxC        ....  10.000
 Trust-Rad. Augm. Hess. CNVTRAH         .... auto
   Auto Start mean grad. ratio tolernc. ....  1.125000
   Auto Start start iteration           ....    20
   Auto Start num. interpolation iter.  ....    10
   Max. Number of Micro iterations      ....    16
   Max. Number of Macro iterations      .... Maxiter - #DIIS iter
   Number of Davidson start vectors     ....     2
   Converg. threshold I  (grad. norm)   ....   1.000e-05
   Converg. threshold II (energy diff.) ....   1.000e-08
   Grad. Scal. Fac. for Micro threshold ....   0.100
   Minimum threshold for Micro iter.    ....   0.010
   NR start threshold (gradient norm)   ....   0.001
   Initial trust radius                 ....   0.400
   Minimum AH scaling param. (alpha)    ....   1.000
   Maximum AH scaling param. (alpha)    .... 1000.000
   Orbital update algorithm             .... Taylor
   White noise on init. David. guess    .... on
   Maximum white noise                  ....   0.010
   Quad. conv. algorithm                .... NR
 SOSCF                  CNVSOSCF        .... on
   Start iteration      SOSCFMaxIt      ....   150
   Startup grad/error   SOSCFStart      ....  0.001000
 Level Shifting         CNVShift        .... on
   Level shift para.    LevelShift      ....    0.2500
   Turn off err/grad.   ShiftErr        ....    0.0000
 Zerner damping         CNVZerner       .... off
 Static damping         CNVDamp         .... on
   Fraction old density DampFac         ....    0.8500
   Max. Damping (<1)    DampMax         ....    0.9800
   Min. Damping (>=0)   DampMin         ....    0.0000
   Turn off err/grad.   DampErr         ....    0.0300
 Fernandez-Rico         CNVRico         .... off

SCF Procedure:
 Maximum # iterations   MaxIter         ....   125
 SCF integral mode      SCFMode         .... Direct
   Integral package                     .... SHARK and LIBINT hybrid scheme
 Reset frequency        DirectResetFreq ....    20
 Integral Threshold     Thresh          ....  2.500e-11 Eh
 Primitive CutOff       TCut            ....  2.500e-12 Eh

Convergence Tolerance:
 Convergence Check Mode ConvCheckMode   .... Total+1el-Energy
 Convergence forced     ConvForced      .... 0
 Energy Change          TolE            ....  1.000e-08 Eh
 1-El. energy change                    ....  1.000e-05 Eh
 Orbital Gradient       TolG            ....  1.000e-05
 Orbital Rotation angle TolX            ....  1.000e-05
 DIIS Error             TolErr          ....  5.000e-07


Diagonalization of the overlap matrix:
Smallest eigenvalue                        ... 1.349e-03
Time for diagonalization                   ...    0.009 sec
Threshold for overlap eigenvalues          ... 1.000e-08
Number of eigenvalues below threshold      ... 0
Time for construction of square roots      ...    0.004 sec
Total time needed                          ...    0.014 sec

Time for model grid setup =    0.476 sec

------------------------------
INITIAL GUESS: MODEL POTENTIAL
------------------------------
Loading Hartree-Fock densities                     ... done
Calculating cut-offs                               ... done
Initializing the effective Hamiltonian             ... done
Setting up the integral package (SHARK)            ... done
Starting the Coulomb interaction                   ... done (   0.5 sec)
Reading the grid                                   ... done
Mapping shells                                     ... done
Starting the XC term evaluation                    ... done (   0.6 sec)
  promolecular density results
     # of electrons  =     84.984221653
     EX              =    -64.259916176
     EC              =     -2.821683905
     EX+EC           =    -67.081600081
Transforming the Hamiltonian                       ... done (   0.0 sec)
Diagonalizing the Hamiltonian                      ... done (   0.0 sec)
Back transforming the eigenvectors                 ... done (   0.0 sec)
Now organizing SCF variables                       ... done
                      ------------------
                      INITIAL GUESS DONE (   1.5 sec)
                      ------------------
-------------------
DFT GRID GENERATION
-------------------

General Integration Accuracy     IntAcc      ... 4.388
Radial Grid Type                 RadialGrid  ... OptM3 with GC (2021)
Angular Grid (max. ang.)         AngularGrid ... 4 (Lebedev-302)
Angular grid pruning method      GridPruning ... 4 (adaptive)
Weight generation scheme         WeightScheme... Becke
Basis function cutoff            BFCut       ... 1.0000e-11
Integration weight cutoff        WCut        ... 1.0000e-14
Angular grids for H and He will be reduced by one unit
Partially contracted basis set               ... off
Rotationally invariant grid construction     ... off

Total number of grid points                  ...   119989
Total number of batches                      ...     1891
Average number of points per batch           ...       63
Average number of grid points per atom       ...     4285
Time for grid setup =    1.780 sec

--------------------
COSX GRID GENERATION
--------------------

GRIDX 1
-------
General Integration Accuracy     IntAcc      ... 3.816
Radial Grid Type                 RadialGrid  ... OptM3 with GC (2021)
Angular Grid (max. ang.)         AngularGrid ... 1 (Lebedev-50)
Angular grid pruning method      GridPruning ... 4 (adaptive)
Weight generation scheme         WeightScheme... Becke
Basis function cutoff            BFCut       ... 1.0000e-11
Integration weight cutoff        WCut        ... 1.0000e-14
Angular grids for H and He will be reduced by one unit
Partially contracted basis set               ... on
Rotationally invariant grid construction     ... off

Total number of grid points                  ...    15365
Total number of batches                      ...      254
Average number of points per batch           ...       60
Average number of grid points per atom       ...      549
UseSFitting                                  ... on

GRIDX 2
-------
General Integration Accuracy     IntAcc      ... 4.020
Radial Grid Type                 RadialGrid  ... OptM3 with GC (2021)
Angular Grid (max. ang.)         AngularGrid ... 2 (Lebedev-110)
Angular grid pruning method      GridPruning ... 4 (adaptive)
Weight generation scheme         WeightScheme... Becke
Basis function cutoff            BFCut       ... 1.0000e-11
Integration weight cutoff        WCut        ... 1.0000e-14
Angular grids for H and He will be reduced by one unit
Partially contracted basis set               ... on
Rotationally invariant grid construction     ... off

Total number of grid points                  ...    32079
Total number of batches                      ...      516
Average number of points per batch           ...       62
Average number of grid points per atom       ...     1146
UseSFitting                                  ... on

GRIDX 3
-------
General Integration Accuracy     IntAcc      ... 4.338
Radial Grid Type                 RadialGrid  ... OptM3 with GC (2021)
Angular Grid (max. ang.)         AngularGrid ... 3 (Lebedev-194)
Angular grid pruning method      GridPruning ... 4 (adaptive)
Weight generation scheme         WeightScheme... Becke
Basis function cutoff            BFCut       ... 1.0000e-11
Integration weight cutoff        WCut        ... 1.0000e-14
Angular grids for H and He will be reduced by one unit
Partially contracted basis set               ... on
Rotationally invariant grid construction     ... off

Total number of grid points                  ...    69841
Total number of batches                      ...     1106
Average number of points per batch           ...       63
Average number of grid points per atom       ...     2494
UseSFitting                                  ... on

Time for X-Grid setup             =    2.313 sec


--------------------
CPCM SOLVATION MODEL
--------------------
CPCM parameters:
  Epsilon                                         ...      80.4000
  Refrac                                          ...       1.3300
  Rsolv                                           ...       1.3000
  Surface type                                    ... GAUSSIAN VDW
  Epsilon function type                           ...         CPCM
Radii:
 Radius for N  used is    3.5149 Bohr (=   1.8600 Ang.)
 Radius for C  used is    3.8550 Bohr (=   2.0400 Ang.)
 Radius for H  used is    2.4944 Bohr (=   1.3200 Ang.)
Calculating surface                               ...        done! (  0.0s)
GEPOL surface points                              ...         1513
GEPOL Volume                                      ...    1438.2087
GEPOL Surface-area                                ...     801.5265
Calculating surface distance matrix               ...        done! (  0.0s)
Performing Cholesky decomposition & store         ...        done! (  0.1s)
Overall time for CPCM initialization              ...                 0.1s
--------------
SCF ITERATIONS
--------------
ITER       Energy         Delta-E        Max-DP      RMS-DP      [F,P]     Damp
               ***  Starting incremental Fock matrix formation  ***
  0   -461.9130797581   0.000000000000 0.03366039  0.00064594  0.1528019 0.8500
  1   -461.9575313112  -0.044451553188 0.03028609  0.00060499  0.1230066 0.8500
                               ***Turning on DIIS***
  2   -461.9913207789  -0.033789467641 0.02370417  0.00049285  0.0943603 0.8500
  3   -462.0164053873  -0.025084608393 0.01481817  0.00035057  0.0714743 0.8500
  4   -462.0357223363  -0.019316949045 0.00999774  0.00026827  0.0569035 0.8500
  5   -462.0509093677  -0.015187031420 0.00761516  0.00021973  0.0470657 0.8500
  6   -462.0632310879  -0.012321720162 0.00617426  0.00018510  0.0395988 0.8500
  7   -462.0734114742  -0.010180386255 0.00526219  0.00015902  0.0335448 0.8500
  8   -462.0819148868  -0.008503412607 0.02992026  0.00091081  0.0283714 0.0000
  9   -462.1275107305  -0.045595843690 0.00140756  0.00003148  0.0012138 0.0000
                      *** Initiating the SOSCF procedure ***
                           *** Shutting down DIIS ***
                      *** Re-Reading the Fockian *** 
                      *** Removing any level shift *** 
ITER      Energy       Delta-E        Grad      Rot      Max-DP    RMS-DP
 10   -462.12752724  -0.0000165054  0.000143  0.000143  0.000501  0.000013
               *** Restarting incremental Fock matrix formation ***
 11   -462.12757620  -0.0000489633  0.000052  0.000100  0.000320  0.000009
 12   -462.12757648  -0.0000002813  0.000043  0.000108  0.000164  0.000004
 13   -462.12757652  -0.0000000382  0.000020  0.000021  0.000042  0.000001
 14   -462.12757653  -0.0000000118  0.000003  0.000004  0.000008  0.000000
                  ***Gradient check signals convergence***
              ***Rediagonalizing the Fockian in SOSCF/NRSCF***

               *****************************************************
               *                     SUCCESS                       *
               *           SCF CONVERGED AFTER  15 CYCLES          *
               *****************************************************

Old exchange energy                            =    -21.420138334 Eh
New exchange energy                            =    -21.420174545 Eh
Exchange energy change after final integration =     -0.000036211 Eh
Total energy after final integration           =   -462.127612745 Eh
Final COS-X integration done in                =    60.168 sec

----------------
TOTAL SCF ENERGY
----------------

Total Energy       :         -462.12761275 Eh          -12575.13165 eV

Components:
Nuclear Repulsion  :          655.45417696 Eh           17835.81491 eV
Electronic Energy  :        -1117.58178971 Eh          -30410.94656 eV
One Electron Energy:        -1907.22852849 Eh          -51898.32672 eV
Two Electron Energy:          789.64673878 Eh           21487.38016 eV
Max COSX asymmetry :            0.00000218 Eh               0.00006 eV
CPCM Dielectric    :           -0.07801294 Eh              -2.12284 eV

Virial components:
Potential Energy   :         -918.96714140 Eh          -25006.36722 eV
Kinetic Energy     :          456.83952865 Eh           12431.23557 eV
Virial Ratio       :            2.01157536


DFT components:
N(Alpha)           :       42.000004829916 electrons
N(Beta)            :       42.000004829916 electrons
N(Total)           :       84.000009659831 electrons
E(XC)              :      -47.266239868910 Eh       
DFET-embed. en.    :        0.000000000000 Eh       
CPCM Solvation Model Properties:
Surface-charge          :           -1.02107867
Charge-correction       :            0.00288445 Eh               0.07849 eV
Free-energy (cav+disp)  :  This term is not implemented in the current solvation scheme

---------------
SCF CONVERGENCE
---------------

  Last Energy change         ...   -4.0549e-09  Tolerance :   1.0000e-08
  Last MAX-Density change    ...    2.6645e-15  Tolerance :   1.0000e-07
  Last RMS-Density change    ...    3.2385e-17  Tolerance :   5.0000e-09
  Last Orbital Gradient      ...    1.2870e-06  Tolerance :   1.0000e-05
  Last Orbital Rotation      ...    2.7310e-06  Tolerance :   1.0000e-05

             **** THE GBW FILE WAS UPDATED (4_prot_aq_9.gbw) ****
             **** DENSITY 4_prot_aq_9.scfp WAS UPDATED ****
             **** ENERGY FILE WAS UPDATED (4_prot_aq_9.en.tmp) ****
             **** THE GBW FILE WAS UPDATED (4_prot_aq_9.gbw) ****
             **** DENSITY 4_prot_aq_9.scfp WAS UPDATED ****
----------------
ORBITAL ENERGIES
----------------

  NO   OCC          E(Eh)            E(eV) 
   0   2.0000     -14.511161      -394.8688 
   1   2.0000     -14.510904      -394.8618 
   2   2.0000     -10.381299      -282.4895 
   3   2.0000     -10.335770      -281.2506 
   4   2.0000     -10.335630      -281.2468 
   5   2.0000     -10.330468      -281.1063 
   6   2.0000     -10.329869      -281.0900 
   7   2.0000     -10.272467      -279.5280 
   8   2.0000     -10.272129      -279.5189 
   9   2.0000     -10.270004      -279.4610 
  10   2.0000     -10.269933      -279.4591 
  11   2.0000      -1.222762       -33.2730 
  12   2.0000      -1.104384       -30.0518 
  13   2.0000      -0.970535       -26.4096 
  14   2.0000      -0.918713       -24.9995 
  15   2.0000      -0.917355       -24.9625 
  16   2.0000      -0.827520       -22.5180 
  17   2.0000      -0.825815       -22.4716 
  18   2.0000      -0.811648       -22.0861 
  19   2.0000      -0.778343       -21.1798 
  20   2.0000      -0.737736       -20.0748 
  21   2.0000      -0.729666       -19.8552 
  22   2.0000      -0.655591       -17.8395 
  23   2.0000      -0.638881       -17.3848 
  24   2.0000      -0.609698       -16.5907 
  25   2.0000      -0.604137       -16.4394 
  26   2.0000      -0.589037       -16.0285 
  27   2.0000      -0.582398       -15.8479 
  28   2.0000      -0.566426       -15.4132 
  29   2.0000      -0.564046       -15.3485 
  30   2.0000      -0.547673       -14.9029 
  31   2.0000      -0.520042       -14.1511 
  32   2.0000      -0.503904       -13.7119 
  33   2.0000      -0.500466       -13.6184 
  34   2.0000      -0.498808       -13.5733 
  35   2.0000      -0.495362       -13.4795 
  36   2.0000      -0.477963       -13.0060 
  37   2.0000      -0.463220       -12.6049 
  38   2.0000      -0.461778       -12.5656 
  39   2.0000      -0.461545       -12.5593 
  40   2.0000      -0.413384       -11.2487 
  41   2.0000      -0.373539       -10.1645 
  42   0.0000       0.059316         1.6141 
  43   0.0000       0.095588         2.6011 
  44   0.0000       0.138847         3.7782 
  45   0.0000       0.151652         4.1267 
  46   0.0000       0.161825         4.4035 
  47   0.0000       0.178182         4.8486 
  48   0.0000       0.187209         5.0942 
  49   0.0000       0.192670         5.2428 
  50   0.0000       0.202278         5.5043 
  51   0.0000       0.208320         5.6687 
  52   0.0000       0.210931         5.7397 
  53   0.0000       0.227522         6.1912 
  54   0.0000       0.230678         6.2771 
  55   0.0000       0.241559         6.5732 
  56   0.0000       0.242853         6.6084 
  57   0.0000       0.247784         6.7426 
  58   0.0000       0.257330         7.0023 
  59   0.0000       0.258985         7.0473 
  60   0.0000       0.264837         7.2066 
  61   0.0000       0.267363         7.2753 
  62   0.0000       0.270799         7.3688 
  63   0.0000       0.284293         7.7360 
  64   0.0000       0.299174         8.1409 
  65   0.0000       0.303189         8.2502 
  66   0.0000       0.311709         8.4820 
  67   0.0000       0.332080         9.0363 
  68   0.0000       0.352995         9.6055 
  69   0.0000       0.361386         9.8338 
  70   0.0000       0.395556        10.7636 
  71   0.0000       0.448622        12.2076 
  72   0.0000       0.463851        12.6220 
  73   0.0000       0.477822        13.0022 
  74   0.0000       0.483992        13.1701 
  75   0.0000       0.493551        13.4302 
  76   0.0000       0.501054        13.6344 
  77   0.0000       0.517649        14.0860 
  78   0.0000       0.522521        14.2185 
  79   0.0000       0.547492        14.8980 
  80   0.0000       0.556655        15.1473 
  81   0.0000       0.569153        15.4875 
  82   0.0000       0.577713        15.7204 
  83   0.0000       0.610507        16.6127 
  84   0.0000       0.611804        16.6480 
  85   0.0000       0.641503        17.4562 
  86   0.0000       0.669272        18.2118 
  87   0.0000       0.679258        18.4835 
  88   0.0000       0.681659        18.5489 
  89   0.0000       0.700816        19.0702 
  90   0.0000       0.704121        19.1601 
  91   0.0000       0.718217        19.5437 
  92   0.0000       0.733764        19.9667 
  93   0.0000       0.735039        20.0014 
  94   0.0000       0.744031        20.2461 
  95   0.0000       0.753132        20.4938 
  96   0.0000       0.754033        20.5183 
  97   0.0000       0.755416        20.5559 
  98   0.0000       0.761566        20.7233 
  99   0.0000       0.767362        20.8810 
 100   0.0000       0.777967        21.1695 
 101   0.0000       0.780837        21.2477 
 102   0.0000       0.785069        21.3628 
 103   0.0000       0.791009        21.5244 
 104   0.0000       0.791648        21.5418 
 105   0.0000       0.799624        21.7589 
 106   0.0000       0.805676        21.9236 
 107   0.0000       0.809344        22.0234 
 108   0.0000       0.815256        22.1842 
 109   0.0000       0.827166        22.5083 
 110   0.0000       0.827798        22.5255 
 111   0.0000       0.831492        22.6261 
 112   0.0000       0.836613        22.7654 
 113   0.0000       0.838241        22.8097 
 114   0.0000       0.861837        23.4518 
 115   0.0000       0.865666        23.5560 
 116   0.0000       0.883275        24.0351 
 117   0.0000       0.957654        26.0591 
 118   0.0000       0.975672        26.5494 
 119   0.0000       1.005569        27.3629 
 120   0.0000       1.044488        28.4220 
 121   0.0000       1.053558        28.6688 
 122   0.0000       1.062790        28.9200 
 123   0.0000       1.134576        30.8734 
 124   0.0000       1.161199        31.5978 
 125   0.0000       1.164749        31.6944 
 126   0.0000       1.183272        32.1985 
 127   0.0000       1.203219        32.7413 
 128   0.0000       1.235028        33.6068 
 129   0.0000       1.273564        34.6554 
 130   0.0000       1.275080        34.6967 
 131   0.0000       1.294115        35.2147 
 132   0.0000       1.298381        35.3307 
 133   0.0000       1.324720        36.0475 
 134   0.0000       1.349594        36.7243 
 135   0.0000       1.381187        37.5840 
 136   0.0000       1.403485        38.1908 
 137   0.0000       1.426097        38.8061 
 138   0.0000       1.431492        38.9529 
 139   0.0000       1.442191        39.2440 
 140   0.0000       1.470691        40.0195 
 141   0.0000       1.537933        41.8493 
 142   0.0000       1.552651        42.2498 
 143   0.0000       1.624618        44.2081 
 144   0.0000       1.633845        44.4592 
 145   0.0000       1.649767        44.8924 
 146   0.0000       1.654538        45.0223 
 147   0.0000       1.657049        45.0906 
 148   0.0000       1.657292        45.0972 
 149   0.0000       1.692278        46.0492 
 150   0.0000       1.731809        47.1249 
 151   0.0000       1.788652        48.6717 
 152   0.0000       1.796243        48.8783 
 153   0.0000       1.809146        49.2294 
 154   0.0000       1.813464        49.3469 
 155   0.0000       1.820524        49.5390 
 156   0.0000       1.827900        49.7397 
 157   0.0000       1.845353        50.2146 
 158   0.0000       1.869741        50.8782 
 159   0.0000       1.873002        50.9670 
 160   0.0000       1.886395        51.3314 
 161   0.0000       1.898899        51.6717 
 162   0.0000       1.902524        51.7703 
 163   0.0000       1.910889        51.9979 
 164   0.0000       1.916489        52.1503 
 165   0.0000       1.926147        52.4131 
 166   0.0000       1.932688        52.5911 
 167   0.0000       1.944948        52.9247 
 168   0.0000       1.955369        53.2083 
 169   0.0000       1.969946        53.6050 
 170   0.0000       1.970816        53.6286 
 171   0.0000       1.979649        53.8690 
 172   0.0000       1.985241        54.0211 
 173   0.0000       1.988556        54.1114 
 174   0.0000       1.996017        54.3144 
 175   0.0000       2.009982        54.6944 
 176   0.0000       2.011702        54.7412 
 177   0.0000       2.028615        55.2014 
 178   0.0000       2.047315        55.7103 
 179   0.0000       2.049603        55.7725 
 180   0.0000       2.078626        56.5623 
 181   0.0000       2.088401        56.8283 
 182   0.0000       2.099342        57.1260 
 183   0.0000       2.140921        58.2574 
 184   0.0000       2.150661        58.5225 
 185   0.0000       2.176124        59.2154 
 186   0.0000       2.181071        59.3500 
 187   0.0000       2.229717        60.6737 
 188   0.0000       2.258945        61.4690 
 189   0.0000       2.265369        61.6438 
 190   0.0000       2.287669        62.2506 
 191   0.0000       2.353136        64.0321 
 192   0.0000       2.368169        64.4412 
 193   0.0000       2.377130        64.6850 
 194   0.0000       2.387943        64.9792 
 195   0.0000       2.420888        65.8757 
 196   0.0000       2.464273        67.0563 
 197   0.0000       2.473825        67.3162 
 198   0.0000       2.493941        67.8636 
 199   0.0000       2.494720        67.8848 
 200   0.0000       2.519678        68.5639 
 201   0.0000       2.525595        68.7249 
 202   0.0000       2.553645        69.4882 
 203   0.0000       2.572437        69.9996 
 204   0.0000       2.598286        70.7030 
 205   0.0000       2.603613        70.8479 
 206   0.0000       2.612651        71.0938 
 207   0.0000       2.617564        71.2275 
 208   0.0000       2.663552        72.4789 
 209   0.0000       2.676759        72.8383 
 210   0.0000       2.682928        73.0062 
 211   0.0000       2.695750        73.3551 
 212   0.0000       2.788920        75.8904 
 213   0.0000       2.801458        76.2315 
 214   0.0000       2.817540        76.6692 
 215   0.0000       2.826783        76.9207 
 216   0.0000       2.859581        77.8132 
 217   0.0000       2.877036        78.2881 
 218   0.0000       2.922825        79.5341 
 219   0.0000       2.943082        80.0853 
 220   0.0000       2.945922        80.1626 
 221   0.0000       2.959506        80.5323 
 222   0.0000       2.978634        81.0527 
 223   0.0000       2.987537        81.2950 
 224   0.0000       3.011614        81.9502 
 225   0.0000       3.028499        82.4096 
 226   0.0000       3.037854        82.6642 
 227   0.0000       3.038462        82.6808 
 228   0.0000       3.060391        83.2775 
 229   0.0000       3.091960        84.1365 
 230   0.0000       3.115985        84.7903 
 231   0.0000       3.141113        85.4740 
 232   0.0000       3.151979        85.7697 
 233   0.0000       3.157114        85.9094 
 234   0.0000       3.177246        86.4572 
 235   0.0000       3.295087        89.6639 
 236   0.0000       3.485423        94.8432 
 237   0.0000       3.603711        98.0620 
 238   0.0000       3.625828        98.6638 

                    ********************************
                    * MULLIKEN POPULATION ANALYSIS *
                    ********************************

-----------------------
MULLIKEN ATOMIC CHARGES
-----------------------
   0 N :   -0.174801
   1 C :    0.222175
   2 N :   -0.174059
   3 H :    0.114716
   4 C :    0.070815
   5 C :    0.069571
   6 C :   -0.052579
   7 C :   -0.053909
   8 C :   -0.023859
   9 H :    0.078440
  10 C :    0.017508
  11 C :    0.018466
  12 C :   -0.022142
  13 H :    0.078187
  14 H :    0.091431
  15 H :    0.091505
  16 H :    0.053503
  17 H :    0.058586
  18 H :    0.063643
  19 H :    0.056469
  20 H :    0.048544
  21 H :    0.044537
  22 H :    0.056218
  23 H :    0.048642
  24 H :    0.044429
  25 H :    0.062906
  26 H :    0.052733
  27 H :    0.058323
Sum of atomic charges:    1.0000000

--------------------------------
MULLIKEN REDUCED ORBITAL CHARGES
--------------------------------
  0 N s       :     3.383688  s :     3.383688
      pz      :     1.150287  p :     3.757239
      px      :     1.161061
      py      :     1.445891
      dz2     :     0.006490  d :     0.033874
      dxz     :     0.010476
      dyz     :     0.006601
      dx2y2   :     0.004539
      dxy     :     0.005768
  1 C s       :     3.094726  s :     3.094726
      pz      :     0.906434  p :     2.615843
      px      :     0.774054
      py      :     0.935355
      dz2     :     0.012584  d :     0.067255
      dxz     :     0.021900
      dyz     :     0.006672
      dx2y2   :     0.009660
      dxy     :     0.016439
  2 N s       :     3.382808  s :     3.382808
      pz      :     1.154051  p :     3.757391
      px      :     1.161280
      py      :     1.442060
      dz2     :     0.006820  d :     0.033861
      dxz     :     0.010250
      dyz     :     0.006218
      dx2y2   :     0.004597
      dxy     :     0.005976
  3 H s       :     0.859906  s :     0.859906
      pz      :     0.018910  p :     0.025378
      px      :     0.001537
      py      :     0.004931
  4 C s       :     3.146428  s :     3.146428
      pz      :     0.799617  p :     2.734296
      px      :     0.905796
      py      :     1.028884
      dz2     :     0.014691  d :     0.048460
      dxz     :     0.012662
      dyz     :     0.008321
      dx2y2   :     0.005117
      dxy     :     0.007669
  5 C s       :     3.147091  s :     3.147091
      pz      :     0.806970  p :     2.734950
      px      :     0.905214
      py      :     1.022766
      dz2     :     0.014377  d :     0.048388
      dxz     :     0.012848
      dyz     :     0.008219
      dx2y2   :     0.005486
      dxy     :     0.007458
  6 C s       :     3.106069  s :     3.106069
      pz      :     1.062343  p :     2.890226
      px      :     0.767579
      py      :     1.060304
      dz2     :     0.009569  d :     0.056284
      dxz     :     0.010114
      dyz     :     0.010374
      dx2y2   :     0.016046
      dxy     :     0.010180
  7 C s       :     3.108441  s :     3.108441
      pz      :     1.051792  p :     2.889184
      px      :     0.769244
      py      :     1.068149
      dz2     :     0.010065  d :     0.056284
      dxz     :     0.010445
      dyz     :     0.010513
      dx2y2   :     0.015356
      dxy     :     0.009906
  8 C s       :     3.001366  s :     3.001366
      pz      :     0.970519  p :     2.996261
      px      :     1.048728
      py      :     0.977015
      dz2     :     0.007042  d :     0.026232
      dxz     :     0.002890
      dyz     :     0.006871
      dx2y2   :     0.005323
      dxy     :     0.004106
  9 H s       :     0.900311  s :     0.900311
      pz      :     0.010396  p :     0.021249
      px      :     0.005448
      py      :     0.005405
 10 C s       :     2.987981  s :     2.987981
      pz      :     1.025297  p :     2.968072
      px      :     1.007374
      py      :     0.935401
      dz2     :     0.004349  d :     0.026439
      dxz     :     0.003495
      dyz     :     0.008248
      dx2y2   :     0.006738
      dxy     :     0.003609
 11 C s       :     2.987669  s :     2.987669
      pz      :     1.027430  p :     2.967420
      px      :     1.009046
      py      :     0.930943
      dz2     :     0.006085  d :     0.026445
      dxz     :     0.002881
      dyz     :     0.006353
      dx2y2   :     0.006886
      dxy     :     0.004240
 12 C s       :     3.001363  s :     3.001363
      pz      :     0.940555  p :     2.994542
      px      :     1.047804
      py      :     1.006183
      dz2     :     0.007457  d :     0.026236
      dxz     :     0.002932
      dyz     :     0.006660
      dx2y2   :     0.005139
      dxy     :     0.004048
 13 H s       :     0.900550  s :     0.900550
      pz      :     0.007718  p :     0.021263
      px      :     0.005666
      py      :     0.007879
 14 H s       :     0.883449  s :     0.883449
      pz      :     0.011101  p :     0.025119
      px      :     0.008680
      py      :     0.005339
 15 H s       :     0.883365  s :     0.883365
      pz      :     0.011616  p :     0.025130
      px      :     0.008660
      py      :     0.004854
 16 H s       :     0.921899  s :     0.921899
      pz      :     0.012149  p :     0.024598
      px      :     0.006296
      py      :     0.006152
 17 H s       :     0.917034  s :     0.917034
      pz      :     0.004368  p :     0.024380
      px      :     0.007335
      py      :     0.012677
 18 H s       :     0.911619  s :     0.911619
      pz      :     0.004606  p :     0.024738
      px      :     0.014966
      py      :     0.005166
 19 H s       :     0.918785  s :     0.918785
      pz      :     0.005600  p :     0.024745
      px      :     0.015044
      py      :     0.004101
 20 H s       :     0.927073  s :     0.927073
      pz      :     0.011539  p :     0.024383
      px      :     0.004834
      py      :     0.008010
 21 H s       :     0.931129  s :     0.931129
      pz      :     0.011381  p :     0.024334
      px      :     0.007109
      py      :     0.005844
 22 H s       :     0.919030  s :     0.919030
      pz      :     0.005695  p :     0.024752
      px      :     0.015032
      py      :     0.004026
 23 H s       :     0.926995  s :     0.926995
      pz      :     0.014290  p :     0.024363
      px      :     0.004844
      py      :     0.005228
 24 H s       :     0.931210  s :     0.931210
      pz      :     0.008974  p :     0.024362
      px      :     0.007285
      py      :     0.008103
 25 H s       :     0.912347  s :     0.912347
      pz      :     0.004556  p :     0.024747
      px      :     0.014997
      py      :     0.005195
 26 H s       :     0.922654  s :     0.922654
      pz      :     0.009183  p :     0.024614
      px      :     0.006398
      py      :     0.009033
 27 H s       :     0.917322  s :     0.917322
      pz      :     0.003958  p :     0.024355
      px      :     0.007216
      py      :     0.013181


                     *******************************
                     * LOEWDIN POPULATION ANALYSIS *
                     *******************************

----------------------
LOEWDIN ATOMIC CHARGES
----------------------
   0 N :    0.111018
   1 C :    0.123212
   2 N :    0.110877
   3 H :    0.058205
   4 C :    0.021568
   5 C :    0.020678
   6 C :    0.042174
   7 C :    0.042097
   8 C :   -0.051153
   9 H :    0.049158
  10 C :   -0.047220
  11 C :   -0.047358
  12 C :   -0.051027
  13 H :    0.049219
  14 H :    0.056362
  15 H :    0.056213
  16 H :    0.035308
  17 H :    0.037070
  18 H :    0.046969
  19 H :    0.041547
  20 H :    0.033810
  21 H :    0.033660
  22 H :    0.041472
  23 H :    0.034042
  24 H :    0.033455
  25 H :    0.046444
  26 H :    0.035105
  27 H :    0.037097

-------------------------------
LOEWDIN REDUCED ORBITAL CHARGES
-------------------------------
  0 N s       :     3.043538  s :     3.043538
      pz      :     1.205027  p :     3.767610
      px      :     1.192859
      py      :     1.369724
      dz2     :     0.017322  d :     0.077835
      dxz     :     0.027333
      dyz     :     0.012889
      dx2y2   :     0.010289
      dxy     :     0.010002
  1 C s       :     2.827878  s :     2.827878
      pz      :     1.027129  p :     2.891128
      px      :     0.900006
      py      :     0.963993
      dz2     :     0.029487  d :     0.157782
      dxz     :     0.058021
      dyz     :     0.011184
      dx2y2   :     0.024513
      dxy     :     0.034576
  2 N s       :     3.043469  s :     3.043469
      pz      :     1.206161  p :     3.767838
      px      :     1.192796
      py      :     1.368880
      dz2     :     0.017974  d :     0.077817
      dxz     :     0.026868
      dyz     :     0.012173
      dx2y2   :     0.010312
      dxy     :     0.010489
  3 H s       :     0.863887  s :     0.863887
      pz      :     0.053307  p :     0.077908
      px      :     0.008388
      py      :     0.016213
  4 C s       :     2.847619  s :     2.847619
      pz      :     0.934071  p :     3.010905
      px      :     1.050870
      py      :     1.025963
      dz2     :     0.038315  d :     0.119908
      dxz     :     0.035136
      dyz     :     0.016659
      dx2y2   :     0.014191
      dxy     :     0.015607
  5 C s       :     2.847533  s :     2.847533
      pz      :     0.938229  p :     3.012037
      px      :     1.050831
      py      :     1.022977
      dz2     :     0.037237  d :     0.119752
      dxz     :     0.035593
      dyz     :     0.016626
      dx2y2   :     0.015198
      dxy     :     0.015098
  6 C s       :     2.831432  s :     2.831432
      pz      :     1.069227  p :     2.996717
      px      :     0.858533
      py      :     1.068957
      dz2     :     0.021230  d :     0.129677
      dxz     :     0.024091
      dyz     :     0.024634
      dx2y2   :     0.036863
      dxy     :     0.022858
  7 C s       :     2.831546  s :     2.831546
      pz      :     1.061962  p :     2.996697
      px      :     0.859281
      py      :     1.075453
      dz2     :     0.024446  d :     0.129660
      dxz     :     0.023847
      dyz     :     0.022554
      dx2y2   :     0.035656
      dxy     :     0.023157
  8 C s       :     2.827051  s :     2.827051
      pz      :     1.028842  p :     3.153775
      px      :     1.083957
      py      :     1.040976
      dz2     :     0.018148  d :     0.070327
      dxz     :     0.007217
      dyz     :     0.019636
      dx2y2   :     0.014201
      dxy     :     0.011126
  9 H s       :     0.883758  s :     0.883758
      pz      :     0.031230  p :     0.067084
      px      :     0.017030
      py      :     0.018824
 10 C s       :     2.830178  s :     2.830178
      pz      :     1.071348  p :     3.146496
      px      :     1.067878
      py      :     1.007270
      dz2     :     0.011749  d :     0.070546
      dxz     :     0.009113
      dyz     :     0.020997
      dx2y2   :     0.018597
      dxy     :     0.010090
 11 C s       :     2.830175  s :     2.830175
      pz      :     1.073197  p :     3.146615
      px      :     1.069024
      py      :     1.004393
      dz2     :     0.016583  d :     0.070568
      dxz     :     0.007395
      dyz     :     0.016029
      dx2y2   :     0.018770
      dxy     :     0.011790
 12 C s       :     2.827279  s :     2.827279
      pz      :     1.008777  p :     3.153407
      px      :     1.083680
      py      :     1.060950
      dz2     :     0.020372  d :     0.070342
      dxz     :     0.007387
      dyz     :     0.018084
      dx2y2   :     0.013605
      dxy     :     0.010894
 13 H s       :     0.883687  s :     0.883687
      pz      :     0.024745  p :     0.067094
      px      :     0.017535
      py      :     0.024814
 14 H s       :     0.868756  s :     0.868756
      pz      :     0.032277  p :     0.074882
      px      :     0.025222
      py      :     0.017383
 15 H s       :     0.868859  s :     0.868859
      pz      :     0.033644  p :     0.074929
      px      :     0.025179
      py      :     0.016105
 16 H s       :     0.896129  s :     0.896129
      pz      :     0.034086  p :     0.068563
      px      :     0.016915
      py      :     0.017562
 17 H s       :     0.894785  s :     0.894785
      pz      :     0.013187  p :     0.068145
      px      :     0.019604
      py      :     0.035354
 18 H s       :     0.884956  s :     0.884956
      pz      :     0.013622  p :     0.068075
      px      :     0.040133
      py      :     0.014319
 19 H s       :     0.890533  s :     0.890533
      pz      :     0.014790  p :     0.067920
      px      :     0.040421
      py      :     0.012709
 20 H s       :     0.898314  s :     0.898314
      pz      :     0.030761  p :     0.067876
      px      :     0.013260
      py      :     0.023855
 21 H s       :     0.898372  s :     0.898372
      pz      :     0.030608  p :     0.067968
      px      :     0.019212
      py      :     0.018148
 22 H s       :     0.890610  s :     0.890610
      pz      :     0.014970  p :     0.067918
      px      :     0.040346
      py      :     0.012602
 23 H s       :     0.898107  s :     0.898107
      pz      :     0.038101  p :     0.067851
      px      :     0.013260
      py      :     0.016490
 24 H s       :     0.898567  s :     0.898567
      pz      :     0.023948  p :     0.067979
      px      :     0.019617
      py      :     0.024414
 25 H s       :     0.885491  s :     0.885491
      pz      :     0.014119  p :     0.068064
      px      :     0.040185
      py      :     0.013760
 26 H s       :     0.896345  s :     0.896345
      pz      :     0.026818  p :     0.068550
      px      :     0.017167
      py      :     0.024565
 27 H s       :     0.894797  s :     0.894797
      pz      :     0.012873  p :     0.068106
      px      :     0.019265
      py      :     0.035968


                      *****************************
                      * MAYER POPULATION ANALYSIS *
                      *****************************

  NA   - Mulliken gross atomic population
  ZA   - Total nuclear charge
  QA   - Mulliken gross atomic charge
  VA   - Mayer's total valence
  BVA  - Mayer's bonded valence
  FA   - Mayer's free valence

  ATOM       NA         ZA         QA         VA         BVA        FA
  0 N      7.1748     7.0000    -0.1748     3.4358     3.4358     0.0000
  1 C      5.7778     6.0000     0.2222     3.8648     3.8648     0.0000
  2 N      7.1741     7.0000    -0.1741     3.4338     3.4338    -0.0000
  3 H      0.8853     1.0000     0.1147     1.0085     1.0085     0.0000
  4 C      5.9292     6.0000     0.0708     3.8497     3.8497     0.0000
  5 C      5.9304     6.0000     0.0696     3.8489     3.8489    -0.0000
  6 C      6.0526     6.0000    -0.0526     4.0663     4.0663     0.0000
  7 C      6.0539     6.0000    -0.0539     4.0657     4.0657    -0.0000
  8 C      6.0239     6.0000    -0.0239     3.9746     3.9746    -0.0000
  9 H      0.9216     1.0000     0.0784     0.9748     0.9748    -0.0000
 10 C      5.9825     6.0000     0.0175     3.9408     3.9408     0.0000
 11 C      5.9815     6.0000     0.0185     3.9413     3.9413    -0.0000
 12 C      6.0221     6.0000    -0.0221     3.9712     3.9712     0.0000
 13 H      0.9218     1.0000     0.0782     0.9752     0.9752     0.0000
 14 H      0.9086     1.0000     0.0914     0.9979     0.9979    -0.0000
 15 H      0.9085     1.0000     0.0915     0.9979     0.9979     0.0000
 16 H      0.9465     1.0000     0.0535     0.9953     0.9953    -0.0000
 17 H      0.9414     1.0000     0.0586     0.9906     0.9906     0.0000
 18 H      0.9364     1.0000     0.0636     0.9951     0.9951     0.0000
 19 H      0.9435     1.0000     0.0565     0.9960     0.9960     0.0000
 20 H      0.9515     1.0000     0.0485     0.9968     0.9968     0.0000
 21 H      0.9555     1.0000     0.0445     1.0006     1.0006    -0.0000
 22 H      0.9438     1.0000     0.0562     0.9961     0.9961     0.0000
 23 H      0.9514     1.0000     0.0486     0.9963     0.9963     0.0000
 24 H      0.9556     1.0000     0.0444     1.0008     1.0008    -0.0000
 25 H      0.9371     1.0000     0.0629     0.9952     0.9952     0.0000
 26 H      0.9473     1.0000     0.0527     0.9960     0.9960    -0.0000
[...]
     31      -0.000211   0.007862   0.000198  -0.000025  -0.000036   0.000044
     32       0.000191  -0.004188  -0.000146  -0.000044   0.000027   0.000020
     33      -0.073900  -0.000023   0.019517   0.000003   0.000087  -0.000113
     34       0.022700   0.000022  -0.006328  -0.000034  -0.000010  -0.000026
     35       0.048411  -0.000012  -0.008527   0.000039   0.000090  -0.000029
     36       0.017632  -0.001475   0.085196  -0.000035   0.000087  -0.000241
     37       0.015256  -0.000704   0.032698   0.000033  -0.000551   0.000342
     38      -0.004166   0.000148  -0.006045  -0.000024   0.000385  -0.000231
     39       0.015261  -0.000257  -0.013870  -0.002492   0.000287  -0.001967
     40      -0.020348   0.000277   0.015498   0.001889   0.000825   0.000226
     41       0.018849  -0.000249  -0.016075  -0.001094  -0.000601   0.000685
     42      -0.000241  -0.000775   0.000178  -0.440582  -0.252924  -0.411287
     43       0.000221   0.000168  -0.000062   0.126661   0.071937   0.116914
     44      -0.000215  -0.000898  -0.000018  -0.494223  -0.279624  -0.453732
     45      -0.000191  -0.000223   0.000777  -0.479357   0.228342   0.380046
     46      -0.000044   0.000052   0.000153  -0.057244   0.026619   0.044074
     47       0.000159   0.000057  -0.000906   0.551851  -0.259080  -0.430550
     48      -0.000066   0.031410   0.000884   0.000019   0.007151  -0.004441
     49       0.000007  -0.043453  -0.001095  -0.000108  -0.005739   0.003713
     50       0.000043  -0.084244  -0.002174   0.000243  -0.010781   0.006538
     51       0.001562   0.236981   0.003499  -0.000034  -0.001348   0.000622
     52       0.003250   0.495368   0.007362  -0.000203  -0.001766   0.000706
     53       0.000674   0.102502   0.001531   0.000024  -0.000141  -0.000039
     54       0.003923   0.766401   0.012854  -0.000744   0.003574  -0.002843
     55      -0.000644  -0.127054  -0.002137   0.000321  -0.000331   0.000117
     56       0.000710   0.143413   0.002424  -0.000449   0.000498  -0.000177
     57      -0.004551   0.174481   0.004715  -0.000446  -0.000004  -0.000305
     58       0.000384  -0.015442  -0.000388  -0.000195  -0.000058   0.000171
     59      -0.001042   0.039510   0.001061   0.000003  -0.000050  -0.000069
     60      -0.000194   0.006231   0.000173  -0.000211   0.000095   0.000118
     61       0.001623  -0.046702  -0.001325  -0.000264   0.000407  -0.000115
     62      -0.002286   0.065770   0.001846  -0.000259  -0.000230   0.000460
     63      -0.000498   0.031352   0.000707  -0.000199  -0.000091   0.000121
     64       0.000495  -0.030763  -0.000693   0.000377  -0.000121  -0.000040
     65       0.000924  -0.055831  -0.001277   0.000536   0.000015  -0.000204
     66       0.766157   0.000008  -0.195552  -0.000511  -0.000262   0.000394
     67      -0.000493  -0.000023  -0.000584  -0.000187   0.000060  -0.000154
     68      -0.198741  -0.000011   0.050735  -0.000021   0.000017  -0.000130
     69       0.034521   0.000007  -0.006842  -0.000141  -0.000058  -0.000098
     70      -0.163625   0.000014   0.030937  -0.000263  -0.000374   0.000068
     71      -0.492134   0.000014   0.093703   0.000038  -0.000581   0.000597
     72       0.079891   0.000089  -0.032412  -0.000249  -0.000375   0.000185
     73      -0.111364  -0.000126   0.044338   0.000562   0.000711  -0.000259
     74       0.112975   0.000112  -0.043402  -0.000423  -0.000531   0.000203
     75      -0.149697   0.012746  -0.750097  -0.000733  -0.001900   0.001781
     76       0.014641  -0.001211   0.071403   0.000161  -0.000037   0.000077
     77       0.033501  -0.002915   0.173234   0.000496   0.000269   0.000016
     78       0.020811   0.000041  -0.026102   0.000082  -0.006129   0.003829
     79      -0.026853  -0.000334   0.056828  -0.000093   0.006230  -0.004011
     80       0.030217   0.000289  -0.057937  -0.000209  -0.004673   0.002721
     81      -0.079552   0.004629  -0.239931  -0.000076   0.001143  -0.000519
     82      -0.171624   0.009976  -0.519560  -0.000263   0.001330  -0.000478
     83      -0.015653   0.000895  -0.046061  -0.000085   0.000324  -0.000219


-----------
IR SPECTRUM
-----------

 Mode   freq       eps      Int      T**2         TX        TY        TZ
       cm**-1   L/(mol*cm) km/mol    a.u.
----------------------------------------------------------------------------
  6:     22.11   0.000042    0.21  0.000592  ( 0.004332 -0.023233  0.005789)
  7:     33.42   0.000033    0.17  0.000312  (-0.000903  0.010073  0.014497)
  8:     96.69   0.000049    0.25  0.000157  (-0.006835 -0.010441 -0.001144)
  9:    139.59   0.000005    0.03  0.000012  ( 0.000640 -0.000798  0.003295)
 10:    163.53   0.000000    0.00  0.000000  (-0.000051  0.000287 -0.000068)
 11:    234.12   0.000014    0.07  0.000019  (-0.004258  0.000039 -0.000868)
 12:    245.50   0.000009    0.05  0.000012  (-0.000838 -0.000919  0.003187)
 13:    284.60   0.000020    0.10  0.000022  (-0.000754  0.003617  0.002945)
 14:    284.87   0.000021    0.10  0.000023  (-0.001508  0.003751 -0.002491)
 15:    302.69   0.000070    0.36  0.000072  ( 0.007976  0.002901 -0.000678)
 16:    321.33   0.000013    0.07  0.000013  ( 0.000336 -0.000340 -0.003503)
 17:    342.26   0.000044    0.22  0.000040  (-0.005688  0.002773 -0.000571)
 18:    414.07   0.000063    0.32  0.000048  (-0.003145  0.006123  0.000684)
 19:    442.76   0.000075    0.38  0.000053  (-0.000122  0.001245 -0.007185)
 20:    475.21   0.000003    0.02  0.000002  (-0.000945  0.000348 -0.001097)
 21:    511.79   0.000283    1.43  0.000173  (-0.011433  0.006424  0.000828)
 22:    604.30   0.000425    2.15  0.000219  ( 0.000334 -0.001859  0.014690)
 23:    675.31   0.013563   68.54  0.006268  (-0.000597  0.078003  0.013519)
 24:    681.52   0.000107    0.54  0.000049  ( 0.000833 -0.003167 -0.006202)
 25:    696.63   0.000640    3.24  0.000287  (-0.011974 -0.011897 -0.001381)
 26:    771.08   0.009415   47.58  0.003810  ( 0.008699  0.060219  0.010404)
 27:    889.86   0.005267   26.62  0.001847  ( 0.009034  0.041317  0.007639)
 28:    912.31   0.000185    0.93  0.000063  ( 0.000599 -0.000528  0.007911)
 29:    916.95   0.000032    0.16  0.000011  (-0.000539 -0.002664  0.001859)
 30:    917.89   0.000504    2.55  0.000171  (-0.011202  0.006755  0.000351)
 31:    940.82   0.000778    3.93  0.000258  ( 0.001325  0.015350 -0.004539)
 32:    943.33   0.000799    4.04  0.000264  ( 0.000577  0.013480  0.009067)
 33:    964.07   0.000211    1.06  0.000068  (-0.000749  0.006360 -0.005215)
 34:    968.20   0.000215    1.08  0.000069  ( 0.000591 -0.006326 -0.005367)
 35:   1026.10   0.003432   17.35  0.001044  (-0.032150  0.003104  0.000774)
 36:   1037.13   0.000107    0.54  0.000032  ( 0.001299 -0.001260  0.005386)
 37:   1105.00   0.003753   18.97  0.001060  (-0.002071 -0.005696  0.031987)
 38:   1125.87   0.000510    2.58  0.000141  ( 0.011241  0.002993  0.002469)
 39:   1136.89   0.000372    1.88  0.000102  ( 0.000572  0.001609 -0.009959)
 40:   1167.94   0.015894   80.32  0.004247  ( 0.064997 -0.004701 -0.000431)
 41:   1172.08   0.000310    1.57  0.000083  (-0.004409  0.001921 -0.007708)
 42:   1174.54   0.006734   34.03  0.001789  (-0.027011  0.032178  0.004912)
 43:   1191.80   0.001053    5.32  0.000276  (-0.004279  0.001417 -0.015984)
 44:   1216.88   0.033083  167.19  0.008484  (-0.092100  0.000686  0.001108)
 45:   1269.46   0.007634   38.58  0.001877  ( 0.043151  0.003826  0.000021)
 46:   1338.25   0.000071    0.36  0.000017  ( 0.001728  0.000551 -0.003652)
 47:   1350.16   0.000284    1.44  0.000066  (-0.007653  0.002360 -0.001249)
 48:   1353.08   0.000327    1.65  0.000075  (-0.008148 -0.001275  0.002735)
 49:   1367.50   0.010243   51.76  0.002337  ( 0.047775  0.007224  0.001689)
 50:   1392.20   0.002188   11.06  0.000491  (-0.000122  0.002832 -0.021965)
 51:   1403.46   0.007444   37.62  0.001655  ( 0.009119  0.039633  0.001130)
 52:   1404.85   0.000084    0.43  0.000019  ( 0.003685 -0.001833 -0.001324)
 53:   1407.67   0.004669   23.59  0.001035  ( 0.017361  0.001218  0.027057)
 54:   1410.52   0.006648   33.60  0.001471  ( 0.010296  0.006146 -0.036428)
 55:   1445.70   0.000034    0.17  0.000007  (-0.002064  0.001262  0.001244)
 56:   1446.16   0.000002    0.01  0.000000  ( 0.000381 -0.000472  0.000206)
 57:   1450.79   0.000248    1.25  0.000053  ( 0.000805 -0.007261  0.000035)
 58:   1455.66   0.002965   14.98  0.000636  (-0.000175 -0.002675  0.025067)
 59:   1461.29   0.005706   28.84  0.001219  ( 0.023722 -0.022199 -0.012771)
 60:   1463.78   0.004105   20.75  0.000875  (-0.012581  0.010938 -0.024439)
 61:   1470.90   0.001012    5.12  0.000215  (-0.011300 -0.008135  0.004574)
 62:   1476.02   0.000054    0.27  0.000011  (-0.000451 -0.001155 -0.003149)
 63:   1485.33   0.000617    3.12  0.000130  (-0.010720 -0.003761  0.000688)
 64:   1509.34   0.000325    1.64  0.000067  ( 0.000501  0.001683 -0.008002)
 65:   1648.98   0.027731  140.14  0.005248  (-0.072323  0.000150 -0.004174)
 66:   1650.64   0.003629   18.34  0.000686  ( 0.018956  0.003251 -0.017781)
 67:   3070.19   0.002510   12.68  0.000255  (-0.004887 -0.014841 -0.003308)
 68:   3070.81   0.002397   12.11  0.000244  (-0.005433 -0.014630 -0.000177)
 69:   3074.51   0.001607    8.12  0.000163  (-0.001060 -0.004706  0.011827)
 70:   3076.36   0.001787    9.03  0.000181  ( 0.001232  0.002143  0.013236)
 71:   3133.20   0.000940    4.75  0.000094  (-0.005899  0.006120 -0.004626)
 72:   3133.54   0.000976    4.93  0.000097  (-0.005960  0.004399  0.006506)
 73:   3175.61   0.001601    8.09  0.000157  ( 0.005417 -0.000089  0.011313)
 74:   3175.75   0.000936    4.73  0.000092  (-0.000283 -0.009566 -0.000595)
 75:   3178.30   0.005160   26.08  0.000507  (-0.009387  0.007252  0.019130)
 76:   3179.55   0.004286   21.66  0.000421  ( 0.008319 -0.014459  0.011934)
 77:   3186.72   0.002062   10.42  0.000202  (-0.010036  0.008910 -0.004668)
 78:   3187.83   0.001936    9.78  0.000189  (-0.009368  0.007154  0.007110)
 79:   3190.50   0.002315   11.70  0.000226  (-0.014545 -0.003441 -0.001743)
 80:   3191.53   0.002226   11.25  0.000218  ( 0.014119  0.004069 -0.001325)
 81:   3299.17   0.005405   27.32  0.000511  (-0.022526  0.001630  0.001107)
 82:   3313.99   0.014273   72.13  0.001344  (-0.000694  0.006572 -0.036061)
 83:   3318.17   0.000022    0.11  0.000002  (-0.001008  0.000402 -0.000959)

* The epsilon (eps) is given for a Dirac delta lineshape.
** The dipole moment derivative (T) already includes vibrational overlap.

The first frequency considered to be a vibration is 6
The total number of vibrations considered is 78


--------------------------
THERMOCHEMISTRY AT 298.15K
--------------------------

Temperature         ... 298.15 K
Pressure            ... 1.00 atm
Total Mass          ... 153.25 AMU

Throughout the following assumptions are being made:
  (1) The electronic state is orbitally nondegenerate
  (2) There are no thermally accessible electronically excited states
  (3) Hindered rotations indicated by low frequency modes are not
      treated as such but are treated as vibrations and this may
      cause some error
  (4) All equations used are the standard statistical mechanics
      equations for an ideal gas
  (5) All vibrations are strictly harmonic

freq.      22.11  E(vib)   ...       0.56 
freq.      33.42  E(vib)   ...       0.55 
freq.      96.69  E(vib)   ...       0.46 
freq.     139.59  E(vib)   ...       0.42 
freq.     163.53  E(vib)   ...       0.39 
freq.     234.12  E(vib)   ...       0.32 
freq.     245.50  E(vib)   ...       0.31 
freq.     284.60  E(vib)   ...       0.28 
freq.     284.87  E(vib)   ...       0.28 
freq.     302.69  E(vib)   ...       0.26 
freq.     321.33  E(vib)   ...       0.25 
freq.     342.26  E(vib)   ...       0.23 
freq.     414.07  E(vib)   ...       0.19 
freq.     442.76  E(vib)   ...       0.17 
freq.     475.21  E(vib)   ...       0.15 
freq.     511.79  E(vib)   ...       0.14 
freq.     604.30  E(vib)   ...       0.10 
freq.     675.31  E(vib)   ...       0.08 
freq.     681.52  E(vib)   ...       0.08 
freq.     696.63  E(vib)   ...       0.07 
freq.     771.08  E(vib)   ...       0.05 
freq.     889.86  E(vib)   ...       0.04 
freq.     912.31  E(vib)   ...       0.03 
freq.     916.95  E(vib)   ...       0.03 
freq.     917.89  E(vib)   ...       0.03 
freq.     940.82  E(vib)   ...       0.03 
freq.     943.33  E(vib)   ...       0.03 
freq.     964.07  E(vib)   ...       0.03 
freq.     968.20  E(vib)   ...       0.03 
freq.    1026.10  E(vib)   ...       0.02 
freq.    1037.13  E(vib)   ...       0.02 
freq.    1105.00  E(vib)   ...       0.02 
freq.    1125.87  E(vib)   ...       0.01 
freq.    1136.89  E(vib)   ...       0.01 
freq.    1167.94  E(vib)   ...       0.01 
freq.    1172.08  E(vib)   ...       0.01 
freq.    1174.54  E(vib)   ...       0.01 
freq.    1191.80  E(vib)   ...       0.01 
freq.    1216.88  E(vib)   ...       0.01 
freq.    1269.46  E(vib)   ...       0.01 
freq.    1338.25  E(vib)   ...       0.01 
freq.    1350.16  E(vib)   ...       0.01 
freq.    1353.08  E(vib)   ...       0.01 
freq.    1367.50  E(vib)   ...       0.01 
freq.    1392.20  E(vib)   ...       0.00 
freq.    1403.46  E(vib)   ...       0.00 
freq.    1404.85  E(vib)   ...       0.00 
freq.    1407.67  E(vib)   ...       0.00 
freq.    1410.52  E(vib)   ...       0.00 
freq.    1445.70  E(vib)   ...       0.00 
freq.    1446.16  E(vib)   ...       0.00 
freq.    1450.79  E(vib)   ...       0.00 
freq.    1455.66  E(vib)   ...       0.00 
freq.    1461.29  E(vib)   ...       0.00 
freq.    1463.78  E(vib)   ...       0.00 
freq.    1470.90  E(vib)   ...       0.00 
freq.    1476.02  E(vib)   ...       0.00 
freq.    1485.33  E(vib)   ...       0.00 
freq.    1509.34  E(vib)   ...       0.00 
freq.    1648.98  E(vib)   ...       0.00 
freq.    1650.64  E(vib)   ...       0.00 
freq.    3070.19  E(vib)   ...       0.00 
freq.    3070.81  E(vib)   ...       0.00 
freq.    3074.51  E(vib)   ...       0.00 
freq.    3076.36  E(vib)   ...       0.00 
freq.    3133.20  E(vib)   ...       0.00 
freq.    3133.54  E(vib)   ...       0.00 
freq.    3175.61  E(vib)   ...       0.00 
freq.    3175.75  E(vib)   ...       0.00 
freq.    3178.30  E(vib)   ...       0.00 
freq.    3179.55  E(vib)   ...       0.00 
freq.    3186.72  E(vib)   ...       0.00 
freq.    3187.83  E(vib)   ...       0.00 
freq.    3190.50  E(vib)   ...       0.00 
freq.    3191.53  E(vib)   ...       0.00 
freq.    3299.17  E(vib)   ...       0.00 
freq.    3313.99  E(vib)   ...       0.00 
freq.    3318.17  E(vib)   ...       0.00 

------------
INNER ENERGY
------------

The inner energy is: U= E(el) + E(ZPE) + E(vib) + E(rot) + E(trans)
    E(el)   - is the total energy from the electronic structure calculation
              = E(kin-el) + E(nuc-el) + E(el-el) + E(nuc-nuc)
    E(ZPE)  - the the zero temperature vibrational energy from the frequency calculation
    E(vib)  - the the finite temperature correction to E(ZPE) due to population
              of excited vibrational states
    E(rot)  - is the rotational thermal energy
    E(trans)- is the translational thermal energy

Summary of contributions to the inner energy U:
Electronic energy                ...   -462.13543506 Eh
Zero point energy                ...      0.25553859 Eh     160.35 kcal/mol
Thermal vibrational correction   ...      0.00923195 Eh       5.79 kcal/mol
Thermal rotational correction    ...      0.00141627 Eh       0.89 kcal/mol
Thermal translational correction ...      0.00141627 Eh       0.89 kcal/mol
-----------------------------------------------------------------------
Total thermal energy                   -461.86783198 Eh


Summary of corrections to the electronic energy:
(perhaps to be used in another calculation)
Total thermal correction                  0.01206449 Eh       7.57 kcal/mol
Non-thermal (ZPE) correction              0.25553859 Eh     160.35 kcal/mol
-----------------------------------------------------------------------
Total correction                          0.26760308 Eh     167.92 kcal/mol


--------
ENTHALPY
--------

The enthalpy is H = U + kB*T
                kB is Boltzmann's constant
Total free energy                 ...   -461.86783198 Eh 
Thermal Enthalpy correction       ...      0.00094421 Eh       0.59 kcal/mol
-----------------------------------------------------------------------
Total Enthalpy                    ...   -461.86688777 Eh


Note: Only C1 symmetry has been detected, increase convergence thresholds 
      if your molecule has a higher symmetry. Symmetry factor of 1.0 is   
      used for the rotational entropy correction. 
 

Note: Rotational entropy computed according to Herzberg 
Infrared and Raman Spectra, Chapter V,1, Van Nostrand Reinhold, 1945 
Point Group:  C1, Symmetry Number:   1  
Rotational constants in cm-1:     0.069271     0.021057     0.019221 

Vibrational entropy computed according to the QRRHO of S. Grimme
Chem.Eur.J. 2012 18 9955


-------
ENTROPY
-------

The entropy contributions are T*S = T*(S(el)+S(vib)+S(rot)+S(trans))
     S(el)   - electronic entropy
     S(vib)  - vibrational entropy
     S(rot)  - rotational entropy
     S(trans)- translational entropy
The entropies will be listed as multiplied by the temperature to get
units of energy

Electronic entropy                ...      0.00000000 Eh      0.00 kcal/mol
Vibrational entropy               ...      0.01613037 Eh     10.12 kcal/mol
Rotational entropy                ...      0.01445927 Eh      9.07 kcal/mol
Translational entropy             ...      0.01947584 Eh     12.22 kcal/mol
-----------------------------------------------------------------------
Final entropy term                ...      0.05006548 Eh     31.42 kcal/mol

In case the symmetry of your molecule has not been determined correctly
or in case you have a reason to use a different symmetry number we print 
out the resulting rotational entropy values for sn=1,12 :
 --------------------------------------------------------
|  sn= 1 | S(rot)=       0.01445927 Eh      9.07 kcal/mol|
|  sn= 2 | S(rot)=       0.01380481 Eh      8.66 kcal/mol|
|  sn= 3 | S(rot)=       0.01342198 Eh      8.42 kcal/mol|
|  sn= 4 | S(rot)=       0.01315036 Eh      8.25 kcal/mol|
|  sn= 5 | S(rot)=       0.01293967 Eh      8.12 kcal/mol|
|  sn= 6 | S(rot)=       0.01276753 Eh      8.01 kcal/mol|
|  sn= 7 | S(rot)=       0.01262198 Eh      7.92 kcal/mol|
|  sn= 8 | S(rot)=       0.01249590 Eh      7.84 kcal/mol|
|  sn= 9 | S(rot)=       0.01238469 Eh      7.77 kcal/mol|
|  sn=10 | S(rot)=       0.01228521 Eh      7.71 kcal/mol|
|  sn=11 | S(rot)=       0.01219522 Eh      7.65 kcal/mol|
|  sn=12 | S(rot)=       0.01211307 Eh      7.60 kcal/mol|
 --------------------------------------------------------


-------------------
GIBBS FREE ENERGY
-------------------

The Gibbs free energy is G = H - T*S

Total enthalpy                    ...   -461.86688777 Eh 
Total entropy correction          ...     -0.05006548 Eh    -31.42 kcal/mol
-----------------------------------------------------------------------
Final Gibbs free energy         ...   -461.91695325 Eh

For completeness - the Gibbs free energy minus the electronic energy
G-E(el)                           ...      0.21848181 Eh    137.10 kcal/mol


Timings for individual modules:

Sum of individual times         ...     4033.745 sec (=  67.229 min)
GTO integral calculation        ...        2.270 sec (=   0.038 min)   0.1 %
SCF iterations                  ...     1930.957 sec (=  32.183 min)  47.9 %
SCF Gradient evaluation         ...      508.122 sec (=   8.469 min)  12.6 %
Geometry relaxation             ...        0.425 sec (=   0.007 min)   0.0 %
Analytical frequency calculation...     1591.971 sec (=  26.533 min)  39.5 %
                             ****ORCA TERMINATED NORMALLY****
TOTAL RUN TIME: 0 days 1 hours 7 minutes 14 seconds 747 msec
