
                                 *****************
                                 * O   R   C   A *
                                 *****************

                                            #,                                       
                                            ###                                      
                                            ####                                     
                                            #####                                    
                                            ######                                   
                                           ########,                                 
                                     ,,################,,,,,                         
                               ,,#################################,,                 
                          ,,##########################################,,             
                       ,#########################################, ''#####,          
                    ,#############################################,,   '####,        
                  ,##################################################,,,,####,       
                ,###########''''           ''''###############################       
              ,#####''   ,,,,##########,,,,          '''####'''          '####       
            ,##' ,,,,###########################,,,                        '##       
           ' ,,###''''                  '''############,,,                           
         ,,##''                                '''############,,,,        ,,,,,,###''
      ,#''                                            '''#######################'''  
     '                                                          ''''####''''         
             ,#######,   #######,   ,#######,      ##                                
            ,#'     '#,  ##    ##  ,#'     '#,    #''#        ######   ,####,        
            ##       ##  ##   ,#'  ##            #'  '#       #        #'  '#        
            ##       ##  #######   ##           ,######,      #####,   #    #        
            '#,     ,#'  ##    ##  '#,     ,#' ,#      #,         ##   #,  ,#        
             '#######'   ##     ##  '#######'  #'      '#     #####' # '####'        



                  #######################################################
                  #                        -***-                        #
                  #          Department of theory and spectroscopy      #
                  #    Directorship and core code : Frank Neese         #
                  #        Max Planck Institute fuer Kohlenforschung    #
                  #                Kaiser Wilhelm Platz 1               #
                  #                 D-45470 Muelheim/Ruhr               #
                  #                      Germany                        #
                  #                                                     #
                  #                  All rights reserved                #
                  #                        -***-                        #
                  #######################################################


                         Program Version 5.0.4 -  RELEASE  -


 With contributions from (in alphabetic order):
   Daniel Aravena         : Magnetic Suceptibility
   Michael Atanasov       : Ab Initio Ligand Field Theory (pilot matlab implementation)
   Alexander A. Auer      : GIAO ZORA, VPT2 properties, NMR spectrum
   Ute Becker             : Parallelization
   Giovanni Bistoni       : ED, misc. LED, open-shell LED, HFLD
   Martin Brehm           : Molecular dynamics
   Dmytro Bykov           : SCF Hessian
   Vijay G. Chilkuri      : MRCI spin determinant printing, contributions to CSF-ICE
   Dipayan Datta          : RHF DLPNO-CCSD density
   Achintya Kumar Dutta   : EOM-CC, STEOM-CC
   Dmitry Ganyushin       : Spin-Orbit,Spin-Spin,Magnetic field MRCI
   Miquel Garcia          : C-PCM and meta-GGA Hessian, CC/C-PCM, Gaussian charge scheme
   Yang Guo               : DLPNO-NEVPT2, F12-NEVPT2, CIM, IAO-localization
   Andreas Hansen         : Spin unrestricted coupled pair/coupled cluster methods
   Benjamin Helmich-Paris : MC-RPA, TRAH-SCF, COSX integrals
   Lee Huntington         : MR-EOM, pCC
   Robert Izsak           : Overlap fitted RIJCOSX, COSX-SCS-MP3, EOM
   Marcus Kettner         : VPT2
   Christian Kollmar      : KDIIS, OOCD, Brueckner-CCSD(T), CCSD density, CASPT2, CASPT2-K
   Simone Kossmann        : Meta GGA functionals, TD-DFT gradient, OOMP2, MP2 Hessian
   Martin Krupicka        : Initial AUTO-CI
   Lucas Lang             : DCDCAS
   Marvin Lechner         : AUTO-CI (C++ implementation), FIC-MRCC
   Dagmar Lenk            : GEPOL surface, SMD
   Dimitrios Liakos       : Extrapolation schemes; Compound Job, initial MDCI parallelization
   Dimitrios Manganas     : Further ROCIS development; embedding schemes
   Dimitrios Pantazis     : SARC Basis sets
   Anastasios Papadopoulos: AUTO-CI, single reference methods and gradients
   Taras Petrenko         : DFT Hessian,TD-DFT gradient, ASA, ECA, R-Raman, ABS, FL, XAS/XES, NRVS
   Peter Pinski           : DLPNO-MP2, DLPNO-MP2 Gradient
   Christoph Reimann      : Effective Core Potentials
   Marius Retegan         : Local ZFS, SOC
   Christoph Riplinger    : Optimizer, TS searches, QM/MM, DLPNO-CCSD(T), (RO)-DLPNO pert. Triples
   Tobias Risthaus        : Range-separated hybrids, TD-DFT gradient, RPA, STAB
   Michael Roemelt        : Original ROCIS implementation
   Masaaki Saitow         : Open-shell DLPNO-CCSD energy and density
   Barbara Sandhoefer     : DKH picture change effects
   Avijit Sen             : IP-ROCIS
   Kantharuban Sivalingam : CASSCF convergence, NEVPT2, FIC-MRCI
   Bernardo de Souza      : ESD, SOC TD-DFT
   Georgi Stoychev        : AutoAux, RI-MP2 NMR, DLPNO-MP2 response
   Willem Van den Heuvel  : Paramagnetic NMR
   Boris Wezisla          : Elementary symmetry handling
   Frank Wennmohs         : Technical directorship


 We gratefully acknowledge several colleagues who have allowed us to
 interface, adapt or use parts of their codes:
   Stefan Grimme, W. Hujo, H. Kruse, P. Pracht,  : VdW corrections, initial TS optimization,
                  C. Bannwarth, S. Ehlert          DFT functionals, gCP, sTDA/sTD-DF
   Ed Valeev, F. Pavosevic, A. Kumar             : LibInt (2-el integral package), F12 methods
   Garnet Chan, S. Sharma, J. Yang, R. Olivares  : DMRG
   Ulf Ekstrom                                   : XCFun DFT Library
   Mihaly Kallay                                 : mrcc  (arbitrary order and MRCC methods)
   Jiri Pittner, Ondrej Demel                    : Mk-CCSD
   Frank Weinhold                                : gennbo (NPA and NBO analysis)
   Christopher J. Cramer and Donald G. Truhlar   : smd solvation model
   Lars Goerigk                                  : TD-DFT with DH, B97 family of functionals
   V. Asgeirsson, H. Jonsson                     : NEB implementation
   FAccTs GmbH                                   : IRC, NEB, NEB-TS, DLPNO-Multilevel, CI-OPT
                                                   MM, QMMM, 2- and 3-layer-ONIOM, Crystal-QMMM,
                                                   LR-CPCM, SF, NACMEs, symmetry and pop. for TD-DFT,
                                                   nearIR, NL-DFT gradient (VV10), updates on ESD,
                                                   ML-optimized integration grids
   S Lehtola, MJT Oliveira, MAL Marques          : LibXC Library
   Liviu Ungur et al                             : ANISO software


 Your calculation uses the libint2 library for the computation of 2-el integrals
 For citations please refer to: http://libint.valeyev.net

 Your ORCA version has been built with support for libXC version: 5.1.0
 For citations please refer to: https://tddft.org/programs/libxc/

 This ORCA versions uses:
   CBLAS   interface :  Fast vector & matrix operations
   LAPACKE interface :  Fast linear algebra routines
   SCALAPACK package :  Parallel linear algebra routines
   Shared memory     :  Shared parallel matrices
   BLAS/LAPACK       :  OpenBLAS 0.3.15  USE64BITINT DYNAMIC_ARCH NO_AFFINITY SkylakeX SINGLE_THREADED
        Core in use  :  SkylakeX
   Copyright (c) 2011-2014, The OpenBLAS Project




***************************************
The coordinates will be read from file: 4_prot_aq_3.xyz
***************************************


Your calculation utilizes the atom-pairwise dispersion correction
based on tight binding partial charges (D4)
Cite in your paper:
E.Caldeweyher, C.Bannwarth, S.Grimme, J.Chem.Phys., (2017), 147, 034112.
E.Caldeweyher, S.Ehlert, A.Hansen, H.Neugebauer, S.Grimme, J.Chem.Phys., (2018), in progress.
   

XCFun DFT library Copyright 2009-2010 Ulf Ekstrom and contributors.
See http://admol.org/xcfun for more information.
This is free software; see the source code for copying conditions.
There is ABSOLUTELY NO WARRANTY; not even for MERCHANTABILITY or FITNESS FOR A PARTICULAR PURPOSE.
For details see the documentation.
Scientific users of this library should cite U. Ekstrom, L. Visscher, R. Bast, A. J. Thorvaldsen and K. Ruud;
J.Chem.Theor.Comp. 2010, DOI: 10.1021/ct100117s
XCFun Version 0.99 

================================================================================

----- Orbital basis set information -----
Your calculation utilizes the basis: def2-SVP
   F. Weigend and R. Ahlrichs, Phys. Chem. Chem. Phys. 7, 3297 (2005).

----- AuxJ basis set information -----
Your calculation utilizes the auxiliary basis: def2/J
   F. Weigend, Phys. Chem. Chem. Phys. 8, 1057 (2006).

================================================================================
                                        WARNINGS
                       Please study these warnings very carefully!
================================================================================


WARNING: Geometry Optimization
  ===> : Switching off AutoStart
         For restart on a previous wavefunction, please use MOREAD

INFO   : the flag for use of the SHARK integral package has been found!

================================================================================
                                       INPUT FILE
================================================================================
NAME = 4_prot_aq_3.inp
|  1> # ORCA 5.0.4 - /users/bwb16179/postgrad/2024_03/DFT_Crest_Conformers/Opt/prot/4_prot_aq_3.inp # write input file
|  2> # Basic Mode
|  3> #
|  4> ! Opt Freq wB97X Def2-SVP D4 SlowConv TightSCF Defgrid2 Def2/J RIJCOSX CPCM(Water)
|  5> 
|  6> 
|  7> 
|  8> %maxcore 4500
|  9> 
| 10> %geom
| 11> Maxiter 150
| 12> END
| 13> 
| 14> * xyzfile 1 1 4_prot_aq_3.xyz
| 15> 
| 16>                          ****END OF INPUT****
================================================================================

                       *****************************
                       * Geometry Optimization Run *
                       *****************************

Geometry optimization settings:
Update method            Update   .... BFGS
Choice of coordinates    CoordSys .... Z-matrix Internals
Initial Hessian          InHess   .... Almoef's Model

Convergence Tolerances:
Energy Change            TolE     ....  5.0000e-06 Eh
Max. Gradient            TolMAXG  ....  3.0000e-04 Eh/bohr
RMS Gradient             TolRMSG  ....  1.0000e-04 Eh/bohr
Max. Displacement        TolMAXD  ....  4.0000e-03 bohr
RMS Displacement         TolRMSD  ....  2.0000e-03 bohr
Strict Convergence                ....  False
------------------------------------------------------------------------------
                        ORCA OPTIMIZATION COORDINATE SETUP
------------------------------------------------------------------------------

The optimization will be done in new redundant internal coordinates
Making redundant internal coordinates   ...  (new redundants) done
Evaluating the initial hessian          ...  (Almloef) done
Evaluating the coordinates              ...  done
Calculating the B-matrix                .... done
Calculating the G-matrix                .... done
Diagonalizing the G-matrix              .... done
Small eigenvalue found = 1.561e-02
Small eigenvalue found = 2.212e-02
The first mode is                       ....   69
The number of degrees of freedom        ....   78

    -----------------------------------------------------------------
                    Redundant Internal Coordinates


    -----------------------------------------------------------------
         Definition                    Initial Value    Approx d2E/dq
    -----------------------------------------------------------------
      1. B(C   1,N   0)                  1.3289         0.700347   
      2. B(N   2,C   1)                  1.3301         0.697453   
      3. B(H   3,C   1)                  1.0718         0.384993   
      4. B(C   4,N   2)                  1.3607         0.623201   
      5. B(C   5,C   4)                  1.3614         0.694136   
      6. B(C   5,N   0)                  1.3613         0.621840   
      7. B(C   6,N   0)                  1.4594         0.433613   
      8. B(C   7,N   2)                  1.4600         0.432707   
      9. B(C   8,C   6)                  1.5252         0.380190   
     10. B(H   9,C   6)                  1.0946         0.354081   
     11. B(C  10,C   6)                  1.5255         0.379750   
     12. B(C  11,C   7)                  1.5238         0.382123   
     13. B(C  12,C   7)                  1.5268         0.377938   
     14. B(H  13,C   7)                  1.0944         0.354339   
     15. B(H  14,C   4)                  1.0708         0.386433   
     16. B(H  15,C   5)                  1.0699         0.387750   
     17. B(H  16,C   8)                  1.0857         0.365798   
     18. B(H  17,C   8)                  1.0864         0.364899   
     19. B(H  18,C   8)                  1.0874         0.363622   
     20. B(H  19,C  10)                  1.0864         0.364889   
     21. B(H  20,C  10)                  1.0857         0.365883   
     22. B(H  21,C  10)                  1.0873         0.363663   
     23. B(H  22,C  11)                  1.0859         0.365569   
     24. B(H  23,C  11)                  1.0874         0.363585   
     25. B(H  24,C  11)                  1.0866         0.364667   
     26. B(H  25,C  12)                  1.0873         0.363749   
     27. B(H  26,C  12)                  1.0873         0.363739   
     28. B(H  27,C  12)                  1.0856         0.365926   
     29. A(C   1,N   0,C   6)          126.1366         0.410778   
     30. A(C   5,N   0,C   6)          126.0103         0.402234   
     31. A(C   1,N   0,C   5)          107.8496         0.438136   
     32. A(N   0,C   1,H   3)          124.8226         0.362158   
     33. A(N   2,C   1,H   3)          125.4789         0.361902   
     34. A(N   0,C   1,N   2)          109.6979         0.447323   
     35. A(C   1,N   2,C   7)          126.8718         0.410324   
     36. A(C   1,N   2,C   4)          107.7070         0.437982   
     37. A(C   4,N   2,C   7)          125.3773         0.402241   
     38. A(N   2,C   4,H  14)          122.5974         0.355262   
     39. A(C   5,C   4,H  14)          129.9197         0.364102   
     40. A(N   2,C   4,C   5)          107.4826         0.440498   
     41. A(N   0,C   5,C   4)          107.2620         0.440324   
     42. A(N   0,C   5,H  15)          123.0636         0.355335   
     43. A(C   4,C   5,H  15)          129.6743         0.364314   
     44. A(N   0,C   6,C  10)          109.5808         0.371475   
     45. A(C   8,C   6,H   9)          109.4256         0.324356   
     46. A(N   0,C   6,H   9)          106.4006         0.329470   
     47. A(N   0,C   6,C   8)          109.7783         0.371549   
     48. A(H   9,C   6,C  10)          109.4261         0.324294   
     49. A(C   8,C   6,C  10)          112.0670         0.365468   
     50. A(C  12,C   7,H  13)          109.3514         0.324078   
     51. A(C  11,C   7,H  13)          109.3697         0.324665   
     52. A(N   2,C   7,H  13)          106.0413         0.329396   
     53. A(C  11,C   7,C  12)          111.9593         0.365486   
     54. A(N   2,C   7,C  12)          109.2093         0.371036   
     55. A(N   2,C   7,C  11)          110.7291         0.371740   
     56. A(C   6,C   8,H  18)          110.9908         0.325777   
     57. A(H  16,C   8,H  17)          108.1128         0.292166   
     58. A(C   6,C   8,H  17)          111.2369         0.325965   
     59. A(C   6,C   8,H  16)          109.2922         0.326097   
     60. A(H  17,C   8,H  18)          108.8793         0.291892   
     61. A(H  16,C   8,H  18)          108.2367         0.292005   
     62. A(H  19,C  10,H  21)          108.8595         0.291896   
     63. A(C   6,C  10,H  21)          110.9738         0.325721   
     64. A(H  19,C  10,H  20)          108.1546         0.292175   
     65. A(C   6,C  10,H  20)          109.3429         0.326047   
     66. A(H  20,C  10,H  21)          108.2449         0.292021   
     67. A(C   6,C  10,H  19)          111.1760         0.325901   
     68. A(H  23,C  11,H  24)          109.2035         0.291858   
     69. A(H  22,C  11,H  24)          107.7580         0.292108   
     70. A(C   7,C  11,H  24)          111.5447         0.326202   
     71. A(H  22,C  11,H  23)          108.0661         0.291971   
     72. A(C   7,C  11,H  23)          111.0289         0.326043   
     73. A(C   7,C  11,H  22)          109.1214         0.326335   
     74. A(H  26,C  12,H  27)          108.2645         0.292035   
     75. A(H  25,C  12,H  27)          108.3361         0.292037   
     76. A(C   7,C  12,H  27)          109.4182         0.325797   
     77. A(H  25,C  12,H  26)          108.8693         0.291762   
     78. A(C   7,C  12,H  26)          111.0133         0.325476   
     79. A(C   7,C  12,H  25)          110.8620         0.325477   
     80. D(H   3,C   1,N   0,C   5)   -179.9502         0.040593   
     81. D(H   3,C   1,N   0,C   6)     -0.6035         0.040593   
     82. D(N   2,C   1,N   0,C   6)    179.1399         0.040593   
     83. D(N   2,C   1,N   0,C   5)     -0.2068         0.040593   
     84. D(C   7,N   2,C   1,H   3)     -2.2822         0.040225   
     85. D(C   7,N   2,C   1,N   0)    177.9765         0.040225   
     86. D(C   4,N   2,C   1,H   3)   -179.9634         0.040225   
     87. D(C   4,N   2,C   1,N   0)      0.2953         0.040225   
     88. D(H  14,C   4,N   2,C   1)    179.9350         0.031475   
     89. D(C   5,C   4,N   2,C   7)   -177.9918         0.031475   
     90. D(H  14,C   4,N   2,C   7)      2.2100         0.031475   
     91. D(C   5,C   4,N   2,C   1)     -0.2668         0.031475   
     92. D(H  15,C   5,N   0,C   1)    179.9452         0.031326   
     93. D(C   4,C   5,N   0,C   6)   -179.3115         0.031326   
     94. D(C   4,C   5,N   0,C   1)      0.0362         0.031326   
     95. D(H  15,C   5,C   4,H  14)      0.0190         0.033887   
     96. D(H  15,C   5,C   4,N   2)   -179.7593         0.033887   
     97. D(N   0,C   5,C   4,H  14)    179.9199         0.033887   
     98. D(N   0,C   5,C   4,N   2)      0.1416         0.033887   
     99. D(H  15,C   5,N   0,C   6)      0.5975         0.031326   
    100. D(C  10,C   6,N   0,C   5)     62.4632         0.016031   
    101. D(C  10,C   6,N   0,C   1)   -116.7680         0.016031   
    102. D(H   9,C   6,N   0,C   5)   -179.3289         0.016031   
    103. D(H   9,C   6,N   0,C   1)      1.4399         0.016031   
    104. D(C   8,C   6,N   0,C   5)    -61.0176         0.016031   
    105. D(C   8,C   6,N   0,C   1)    119.7512         0.016031   
    106. D(C  12,C   7,N   2,C   4)     98.0028         0.015963   
    107. D(C  11,C   7,N   2,C   4)   -138.2683         0.015963   
    108. D(C  11,C   7,N   2,C   1)     44.4411         0.015963   
    109. D(H  13,C   7,N   2,C   1)    162.9829         0.015963   
    110. D(C  12,C   7,N   2,C   1)    -79.2878         0.015963   
    111. D(H  13,C   7,N   2,C   4)    -19.7265         0.015963   
    112. D(H  18,C   8,C   6,C  10)   -177.6000         0.011520   
    113. D(H  18,C   8,C   6,H   9)     60.8323         0.011520   
    114. D(H  18,C   8,C   6,N   0)    -55.5896         0.011520   
    115. D(H  17,C   8,C   6,C  10)    -56.2054         0.011520   
    116. D(H  17,C   8,C   6,H   9)   -177.7732         0.011520   
    117. D(H  17,C   8,C   6,N   0)     65.8049         0.011520   
    118. D(H  16,C   8,C   6,C  10)     63.0967         0.011520   
    119. D(H  16,C   8,C   6,H   9)    -58.4711         0.011520   
    120. D(H  16,C   8,C   6,N   0)   -174.8930         0.011520   
    121. D(H  21,C  10,C   6,H   9)    -60.5767         0.011494   
    122. D(H  21,C  10,C   6,C   8)    177.8559         0.011494   
    123. D(H  21,C  10,C   6,N   0)     55.7328         0.011494   
    124. D(H  20,C  10,C   6,H   9)     58.7586         0.011494   
    125. D(H  20,C  10,C   6,C   8)    -62.8088         0.011494   
    126. D(H  20,C  10,C   6,N   0)    175.0680         0.011494   
    127. D(H  19,C  10,C   6,H   9)    178.1073         0.011494   
    128. D(H  19,C  10,C   6,C   8)     56.5399         0.011494   
    129. D(H  19,C  10,C   6,N   0)    -65.5832         0.011494   
    130. D(H  24,C  11,C   7,C  12)     50.6752         0.011631   
    131. D(H  24,C  11,C   7,N   2)    -71.4590         0.011631   
    132. D(H  23,C  11,C   7,H  13)    -65.9120         0.011631   
    133. D(H  23,C  11,C   7,C  12)    172.7244         0.011631   
    134. D(H  23,C  11,C   7,N   2)     50.5902         0.011631   
    135. D(H  22,C  11,C   7,H  13)     53.0959         0.011631   
    136. D(H  22,C  11,C   7,C  12)    -68.2678         0.011631   
    137. D(H  24,C  11,C   7,H  13)    172.0388         0.011631   
    138. D(H  22,C  11,C   7,N   2)    169.5980         0.011631   
    139. D(H  26,C  12,C   7,N   2)    -57.2032         0.011391   
    140. D(H  25,C  12,C   7,H  13)    179.5650         0.011391   
    141. D(H  25,C  12,C   7,C  11)    -59.0608         0.011391   
    142. D(H  25,C  12,C   7,N   2)     63.9380         0.011391   
    143. D(H  27,C  12,C   7,H  13)    -61.0082         0.011391   
    144. D(H  27,C  12,C   7,C  11)     60.3659         0.011391   
    145. D(H  27,C  12,C   7,N   2)   -176.6352         0.011391   
    146. D(H  26,C  12,C   7,H  13)     58.4238         0.011391   
    147. D(H  26,C  12,C   7,C  11)    179.7980         0.011391   
    -----------------------------------------------------------------

Number of atoms                         .... 28
Number of degrees of freedom            .... 147

         *************************************************************
         *                GEOMETRY OPTIMIZATION CYCLE   1            *
         *************************************************************
---------------------------------
CARTESIAN COORDINATES (ANGSTROEM)
---------------------------------
  N     -1.021443   -0.010063   -0.020771
  C      0.156949    0.061495    0.589408
  N      1.130759   -0.161264   -0.288724
  H      0.294569    0.264076    1.632858
  C      0.553000   -0.375895   -1.501828
  C     -0.794918   -0.283437   -1.334950
  C     -2.327739    0.158642    0.607773
  C      2.567365   -0.130867   -0.030188
  C     -3.060080    1.334010   -0.031358
  H     -2.136915    0.378867    1.662861
  C     -3.120510   -1.139913    0.495820
  C      2.897943   -0.862801    1.264836
  C      3.042370    1.319955   -0.003292
  H      3.037012   -0.650684   -0.870968
  H      1.123741   -0.579055   -2.384760
  H     -1.581127   -0.394231   -2.052030
  H     -3.990078    1.509385    0.500761
  H     -3.299249    1.130148   -1.071308
  H     -2.461952    2.240565    0.020925
  H     -3.354644   -1.368708   -0.540089
  H     -4.054821   -1.038830    1.039428
  H     -2.566435   -1.972234    0.923027
  H      3.974293   -0.985774    1.339134
  H      2.443724   -1.850624    1.281613
  H      2.567513   -0.302659    2.135290
  H      2.583834    1.862298    0.819955
  H      2.802094    1.826198   -0.935024
  H      4.119582    1.344654    0.129372

----------------------------
CARTESIAN COORDINATES (A.U.)
----------------------------
  NO LB      ZA    FRAG     MASS         X           Y           Z
   0 N     7.0000    0    14.007   -1.930247   -0.019017   -0.039251
   1 C     6.0000    0    12.011    0.296592    0.116209    1.113820
   2 N     7.0000    0    14.007    2.136826   -0.304745   -0.545610
   3 H     1.0000    0     1.008    0.556654    0.499031    3.085654
   4 C     6.0000    0    12.011    1.045019   -0.710338   -2.838044
   5 C     6.0000    0    12.011   -1.502177   -0.535618   -2.522690
   6 C     6.0000    0    12.011   -4.398789    0.299790    1.148524
   7 C     6.0000    0    12.011    4.851618   -0.247304   -0.057046
   8 C     6.0000    0    12.011   -5.782713    2.520914   -0.059258
   9 H     1.0000    0     1.008   -4.038185    0.715955    3.142352
  10 C     6.0000    0    12.011   -5.896909   -2.154123    0.936964
  11 C     6.0000    0    12.011    5.476319   -1.630458    2.390193
  12 C     6.0000    0    12.011    5.749245    2.494353   -0.006220
  13 H     1.0000    0     1.008    5.739121   -1.229614   -1.645892
  14 H     1.0000    0     1.008    2.123562   -1.094255   -4.506543
  15 H     1.0000    0     1.008   -2.987898   -0.744989   -3.877775
  16 H     1.0000    0     1.008   -7.540154    2.852324    0.946301
  17 H     1.0000    0     1.008   -6.234678    2.135671   -2.024478
  18 H     1.0000    0     1.008   -4.652416    4.234054    0.039542
  19 H     1.0000    0     1.008   -6.339358   -2.586483   -1.020620
  20 H     1.0000    0     1.008   -7.662501   -1.963104    1.964235
  21 H     1.0000    0     1.008   -4.849859   -3.726982    1.744269
  22 H     1.0000    0     1.008    7.510326   -1.862844    2.530596
  23 H     1.0000    0     1.008    4.617968   -3.497173    2.421898
  24 H     1.0000    0     1.008    4.851897   -0.571943    4.035114
  25 H     1.0000    0     1.008    4.882739    3.519233    1.549490
  26 H     1.0000    0     1.008    5.295190    3.451014   -1.766939
  27 H     1.0000    0     1.008    7.784881    2.541028    0.244478

--------------------------------
INTERNAL COORDINATES (ANGSTROEM)
--------------------------------
 N      0   0   0     0.000000000000     0.00000000     0.00000000
 C      1   0   0     1.328926976336     0.00000000     0.00000000
 N      2   1   0     1.330054381636   109.69794934     0.00000000
 H      2   1   3     1.071804524325   124.82257675   180.25660057
 C      3   2   1     1.360695782320   107.70699377     0.29527588
 C      1   2   3     1.361291122455   107.84961974   359.79321683
 C      1   2   3     1.459430981669   126.13657723   179.13988275
 C      3   2   1     1.460000771516   126.87182154   177.97649613
 C      7   1   2     1.525221670890   109.77834235   119.75115675
 H      7   1   2     1.094588435420   106.40058501     1.43993689
 C      7   1   2     1.525537235719   109.58083576   243.23199545
 C      8   3   2     1.523841709760   110.72914081    44.44109329
 C      8   3   2     1.526839166956   109.20932047   280.71219198
 H      8   3   2     1.094390088165   106.04132153   162.98289466
 H      5   3   2     1.070787982880   122.59735086   179.93499069
 H      6   1   2     1.069862192755   123.06358992   179.94520832
 H      9   7   1     1.085726629010   109.29223513   185.10704743
 H      9   7   1     1.086396394696   111.23688374    65.80494201
 H      9   7   1     1.087350415928   110.99079531   304.41038262
 H     11   7   1     1.086403726391   111.17596558   294.41678764
 H     11   7   1     1.085663053923   109.34288778   175.06804759
 H     11   7   1     1.087319530951   110.97381895    55.73278907
 H     12   8   3     1.085896823769   109.12141596   169.59804971
 H     12   8   3     1.087378289341   111.02892292    50.59022385
 H     12   8   3     1.086569647053   111.54469202   288.54096040
 H     13   8   3     1.087255422497   110.86199397    63.93802908
 H     13   8   3     1.087262692259   111.01328230   302.79682577
 H     13   8   3     1.085631537688   109.41821308   183.36479613

---------------------------
INTERNAL COORDINATES (A.U.)
---------------------------
 N      0   0   0     0.000000000000     0.00000000     0.00000000
 C      1   0   0     2.511308037255     0.00000000     0.00000000
 N      2   1   0     2.513438524514   109.69794934     0.00000000
 H      2   1   3     2.025417020072   124.82257675   180.25660057
 C      3   2   1     2.571342380167   107.70699377     0.29527588
 C      1   2   3     2.572467409979   107.84961974   359.79321683
 C      1   2   3     2.757924866715   126.13657723   179.13988275
 C      3   2   1     2.759001613479   126.87182154   177.97649613
 C      7   1   2     2.882251251505   109.77834235   119.75115675
 H      7   1   2     2.068472372302   106.40058501     1.43993689
 C      7   1   2     2.882847582608   109.58083576   243.23199545
 C      8   3   2     2.879643502893   110.72914081    44.44109329
 C      8   3   2     2.885307876091   109.20932047   280.71219198
 H      8   3   2     2.068097550310   106.04132153   162.98289466
 H      5   3   2     2.023496035137   122.59735086   179.93499069
 H      6   1   2     2.021746545343   123.06358992   179.94520832
 H      9   7   1     2.051725985135   109.29223513   185.10704743
 H      9   7   1     2.052991658855   111.23688374    65.80494201
 H      9   7   1     2.054794497708   110.99079531   304.41038262
 H     11   7   1     2.053005513751   111.17596558   294.41678764
 H     11   7   1     2.051605845631   109.34288778   175.06804759
 H     11   7   1     2.054736133562   110.97381895    55.73278907
 H     12   8   3     2.052047606618   109.12141596   169.59804971
 H     12   8   3     2.054847170826   111.02892292    50.59022385
 H     12   8   3     2.053319058363   111.54469202   288.54096040
 H     13   8   3     2.054614986141   110.86199397    63.93802908
 H     13   8   3     2.054628723999   111.01328230   302.79682577
 H     13   8   3     2.051546288578   109.41821308   183.36479613

---------------------
BASIS SET INFORMATION
---------------------
There are 3 groups of distinct atoms

 Group   1 Type N   : 7s4p1d contracted to 3s2p1d pattern {511/31/1}
 Group   2 Type C   : 7s4p1d contracted to 3s2p1d pattern {511/31/1}
 Group   3 Type H   : 4s1p contracted to 2s1p pattern {31/1}

Atom   0N    basis set group =>   1
Atom   1C    basis set group =>   2
Atom   2N    basis set group =>   1
Atom   3H    basis set group =>   3
Atom   4C    basis set group =>   2
Atom   5C    basis set group =>   2
Atom   6C    basis set group =>   2
Atom   7C    basis set group =>   2
Atom   8C    basis set group =>   2
Atom   9H    basis set group =>   3
Atom  10C    basis set group =>   2
Atom  11C    basis set group =>   2
Atom  12C    basis set group =>   2
Atom  13H    basis set group =>   3
Atom  14H    basis set group =>   3
Atom  15H    basis set group =>   3
Atom  16H    basis set group =>   3
Atom  17H    basis set group =>   3
Atom  18H    basis set group =>   3
Atom  19H    basis set group =>   3
Atom  20H    basis set group =>   3
Atom  21H    basis set group =>   3
Atom  22H    basis set group =>   3
Atom  23H    basis set group =>   3
Atom  24H    basis set group =>   3
Atom  25H    basis set group =>   3
Atom  26H    basis set group =>   3
Atom  27H    basis set group =>   3
---------------------------------
AUXILIARY/J BASIS SET INFORMATION
---------------------------------
There are 3 groups of distinct atoms

 Group   1 Type N   : 12s5p4d2f1g contracted to 6s4p3d1f1g pattern {711111/2111/211/2/1}
 Group   2 Type C   : 12s5p4d2f1g contracted to 6s4p3d1f1g pattern {711111/2111/211/2/1}
 Group   3 Type H   : 5s2p1d contracted to 3s1p1d pattern {311/2/1}

Atom   0N    basis set group =>   1
Atom   1C    basis set group =>   2
Atom   2N    basis set group =>   1
Atom   3H    basis set group =>   3
Atom   4C    basis set group =>   2
Atom   5C    basis set group =>   2
Atom   6C    basis set group =>   2
Atom   7C    basis set group =>   2
Atom   8C    basis set group =>   2
Atom   9H    basis set group =>   3
Atom  10C    basis set group =>   2
Atom  11C    basis set group =>   2
Atom  12C    basis set group =>   2
Atom  13H    basis set group =>   3
Atom  14H    basis set group =>   3
Atom  15H    basis set group =>   3
Atom  16H    basis set group =>   3
Atom  17H    basis set group =>   3
Atom  18H    basis set group =>   3
Atom  19H    basis set group =>   3
Atom  20H    basis set group =>   3
Atom  21H    basis set group =>   3
Atom  22H    basis set group =>   3
Atom  23H    basis set group =>   3
Atom  24H    basis set group =>   3
Atom  25H    basis set group =>   3
Atom  26H    basis set group =>   3
Atom  27H    basis set group =>   3
------------------------------------------------------------------------------
                           ORCA GTO INTEGRAL CALCULATION
                           -- RI-GTO INTEGRALS CHOSEN --
------------------------------------------------------------------------------
------------------------------------------------------------------------------
                   ___                                                        
                  /   \      - P O W E R E D   B Y -                         
                 /     \                                                     
                 |  |  |   _    _      __       _____    __    __             
                 |  |  |  | |  | |    /  \     |  _  \  |  |  /  |          
                  \  \/   | |  | |   /    \    | | | |  |  | /  /          
                 / \  \   | |__| |  /  /\  \   | |_| |  |  |/  /          
                |  |  |   |  __  | /  /__\  \  |    /   |      \           
                |  |  |   | |  | | |   __   |  |    \   |  |\   \          
                \     /   | |  | | |  |  |  |  | |\  \  |  | \   \       
                 \___/    |_|  |_| |__|  |__|  |_| \__\ |__|  \__/        
                                                                              
                      - O R C A' S   B I G   F R I E N D -                    
                                      &                                       
                       - I N T E G R A L  F E E D E R -                       
                                                                              
 v1 FN, 2020, v2 2021                                                         
------------------------------------------------------------------------------


Reading SHARK input file 4_prot_aq_3.SHARKINP.tmp ... ok
----------------------
SHARK INTEGRAL PACKAGE
----------------------

Number of atoms                             ...     28
Number of basis functions                   ...    239
Number of shells                            ...    117
Maximum angular momentum                    ...      2
Integral batch strategy                     ... SHARK/LIBINT Hybrid
RI-J (if used) integral strategy            ... SPLIT-RIJ (Revised 2003 algorithm where possible)
Printlevel                                  ...      1
Contraction scheme used                     ... SEGMENTED contraction
Coulomb Range Separation                    ... NOT USED
Exchange Range Separation                   ... Long Range
   Mu parameter                             ...  0.300000
   Scaling (regular/separated)              ...  0.157706  0.842294
Finite Nucleus Model                        ... NOT USED
Auxiliary Coulomb fitting basis             ... AVAILABLE
   # of basis functions in Aux-J            ...    726
   # of shells in Aux-J                     ...    250
   Maximum angular momentum in Aux-J        ...      4
Auxiliary J/K fitting basis                 ... NOT available
Auxiliary Correlation fitting basis         ... NOT available
Auxiliary 'external' fitting basis          ... NOT available
Integral threshold                          ...     2.500000e-11
Primitive cut-off                           ...     2.500000e-12
Primitive pair pre-selection threshold      ...     2.500000e-12

Calculating pre-screening integrals         ... done (  0.1 sec) Dimension = 117
Organizing shell pair data                  ... done (  0.0 sec)
Shell pair information
Total number of shell pairs                 ...      6903
Shell pairs after pre-screening             ...      6042
Total number of primitive shell pairs       ...     23847
Primitive shell pairs kept                  ...     14860
          la=0 lb=0:   2056 shell pairs
          la=1 lb=0:   2283 shell pairs
          la=1 lb=1:    654 shell pairs
          la=2 lb=0:    636 shell pairs
          la=2 lb=1:    356 shell pairs
          la=2 lb=2:     57 shell pairs

Calculating one electron integrals          ... done (  0.0 sec)
Calculating RI/J V-Matrix + Cholesky decomp.... done (  0.0 sec)
Calculating Nuclear repulsion               ... done (  0.0 sec) ENN=    652.806036324922 Eh

SHARK setup successfully completed in   0.3 seconds

Maximum memory used throughout the entire GTOINT-calculation: 36.5 MB
-------------------------------------------------------------------------------
                                 ORCA SCF
-------------------------------------------------------------------------------

------------
SCF SETTINGS
------------
Hamiltonian:
 Density Functional     Method          .... DFT(GTOs)
 Exchange Functional    Exchange        .... WB97X
 Correlation Functional Correlation     .... WB97X
 Gradients option       PostSCFGGA      .... off
 Hybrid DFT is turned on
   Fraction HF Exchange ScalHFX         ....  0.157706
   Scaling of DF-GGA-X  ScalDFX         ....  0.000000
   Scaling of DF-GGA-C  ScalDFC         ....  1.000000
   Scaling of DF-LDA-C  ScalLDAC        ....  1.000000
   Perturbative correction              ....  0.000000
   Density functional embedding theory  .... OFF
 Long-range corrected/Screened/Range-Separated Hybrid DFT is turned on
   Amount of maximum screened exact exchange              ....  0.842294
   Range separation parameter mu (erf(mu*r12)/r12)        ....  0.300000
 RI-approximation to the Coulomb term is turned on
   Number of AuxJ basis functions       .... 726
   RIJ-COSX (HFX calculated with COS-X)).... on


General Settings:
 Integral files         IntName         .... 4_prot_aq_3
 Hartree-Fock type      HFTyp           .... RHF
 Total Charge           Charge          ....    1
 Multiplicity           Mult            ....    1
 Number of Electrons    NEL             ....   84
 Basis Dimension        Dim             ....  239
 Nuclear Repulsion      ENuc            ....    652.8060363249 Eh

Convergence Acceleration:
 DIIS                   CNVDIIS         .... on
   Start iteration      DIISMaxIt       ....     0
   Startup error        DIISStart       ....  0.200000
   # of expansion vecs  DIISMaxEq       ....     5
   Bias factor          DIISBfac        ....   1.050
   Max. coefficient     DIISMaxC        ....  10.000
 Trust-Rad. Augm. Hess. CNVTRAH         .... auto
   Auto Start mean grad. ratio tolernc. ....  1.125000
   Auto Start start iteration           ....    20
   Auto Start num. interpolation iter.  ....    10
   Max. Number of Micro iterations      ....    16
   Max. Number of Macro iterations      .... Maxiter - #DIIS iter
   Number of Davidson start vectors     ....     2
   Converg. threshold I  (grad. norm)   ....   1.000e-05
   Converg. threshold II (energy diff.) ....   1.000e-08
   Grad. Scal. Fac. for Micro threshold ....   0.100
   Minimum threshold for Micro iter.    ....   0.010
   NR start threshold (gradient norm)   ....   0.001
   Initial trust radius                 ....   0.400
   Minimum AH scaling param. (alpha)    ....   1.000
   Maximum AH scaling param. (alpha)    .... 1000.000
   Orbital update algorithm             .... Taylor
   White noise on init. David. guess    .... on
   Maximum white noise                  ....   0.010
   Quad. conv. algorithm                .... NR
 SOSCF                  CNVSOSCF        .... on
   Start iteration      SOSCFMaxIt      ....   150
   Startup grad/error   SOSCFStart      ....  0.001000
 Level Shifting         CNVShift        .... on
   Level shift para.    LevelShift      ....    0.2500
   Turn off err/grad.   ShiftErr        ....    0.0000
 Zerner damping         CNVZerner       .... off
 Static damping         CNVDamp         .... on
   Fraction old density DampFac         ....    0.8500
   Max. Damping (<1)    DampMax         ....    0.9800
   Min. Damping (>=0)   DampMin         ....    0.0000
   Turn off err/grad.   DampErr         ....    0.0300
 Fernandez-Rico         CNVRico         .... off

SCF Procedure:
 Maximum # iterations   MaxIter         ....   125
 SCF integral mode      SCFMode         .... Direct
   Integral package                     .... SHARK and LIBINT hybrid scheme
 Reset frequency        DirectResetFreq ....    20
 Integral Threshold     Thresh          ....  2.500e-11 Eh
 Primitive CutOff       TCut            ....  2.500e-12 Eh

Convergence Tolerance:
 Convergence Check Mode ConvCheckMode   .... Total+1el-Energy
 Convergence forced     ConvForced      .... 0
 Energy Change          TolE            ....  1.000e-08 Eh
 1-El. energy change                    ....  1.000e-05 Eh
 Orbital Gradient       TolG            ....  1.000e-05
 Orbital Rotation angle TolX            ....  1.000e-05
 DIIS Error             TolErr          ....  5.000e-07


Diagonalization of the overlap matrix:
Smallest eigenvalue                        ... 1.276e-03
Time for diagonalization                   ...    0.011 sec
Threshold for overlap eigenvalues          ... 1.000e-08
Number of eigenvalues below threshold      ... 0
Time for construction of square roots      ...    0.004 sec
Total time needed                          ...    0.015 sec

Time for model grid setup =    0.472 sec

------------------------------
INITIAL GUESS: MODEL POTENTIAL
------------------------------
Loading Hartree-Fock densities                     ... done
Calculating cut-offs                               ... done
Initializing the effective Hamiltonian             ... done
Setting up the integral package (SHARK)            ... done
Starting the Coulomb interaction                   ... done (   0.5 sec)
Reading the grid                                   ... done
Mapping shells                                     ... done
Starting the XC term evaluation                    ... done (   0.6 sec)
  promolecular density results
     # of electrons  =     84.990492323
     EX              =    -64.261388016
     EC              =     -2.821133900
     EX+EC           =    -67.082521915
Transforming the Hamiltonian                       ... done (   0.0 sec)
Diagonalizing the Hamiltonian                      ... done (   0.0 sec)
Back transforming the eigenvectors                 ... done (   0.0 sec)
Now organizing SCF variables                       ... done
                      ------------------
                      INITIAL GUESS DONE (   1.5 sec)
                      ------------------
-------------------
DFT GRID GENERATION
-------------------

General Integration Accuracy     IntAcc      ... 4.388
Radial Grid Type                 RadialGrid  ... OptM3 with GC (2021)
Angular Grid (max. ang.)         AngularGrid ... 4 (Lebedev-302)
Angular grid pruning method      GridPruning ... 4 (adaptive)
Weight generation scheme         WeightScheme... Becke
Basis function cutoff            BFCut       ... 1.0000e-11
Integration weight cutoff        WCut        ... 1.0000e-14
Angular grids for H and He will be reduced by one unit
Partially contracted basis set               ... off
Rotationally invariant grid construction     ... off

Total number of grid points                  ...   120012
Total number of batches                      ...     1889
Average number of points per batch           ...       63
Average number of grid points per atom       ...     4286
Time for grid setup =    1.769 sec

--------------------
COSX GRID GENERATION
--------------------

GRIDX 1
-------
General Integration Accuracy     IntAcc      ... 3.816
Radial Grid Type                 RadialGrid  ... OptM3 with GC (2021)
Angular Grid (max. ang.)         AngularGrid ... 1 (Lebedev-50)
Angular grid pruning method      GridPruning ... 4 (adaptive)
Weight generation scheme         WeightScheme... Becke
Basis function cutoff            BFCut       ... 1.0000e-11
Integration weight cutoff        WCut        ... 1.0000e-14
Angular grids for H and He will be reduced by one unit
Partially contracted basis set               ... on
Rotationally invariant grid construction     ... off

Total number of grid points                  ...    15380
Total number of batches                      ...      255
Average number of points per batch           ...       60
Average number of grid points per atom       ...      549
UseSFitting                                  ... on

GRIDX 2
-------
General Integration Accuracy     IntAcc      ... 4.020
Radial Grid Type                 RadialGrid  ... OptM3 with GC (2021)
Angular Grid (max. ang.)         AngularGrid ... 2 (Lebedev-110)
Angular grid pruning method      GridPruning ... 4 (adaptive)
Weight generation scheme         WeightScheme... Becke
Basis function cutoff            BFCut       ... 1.0000e-11
Integration weight cutoff        WCut        ... 1.0000e-14
Angular grids for H and He will be reduced by one unit
Partially contracted basis set               ... on
Rotationally invariant grid construction     ... off

Total number of grid points                  ...    32088
Total number of batches                      ...      513
Average number of points per batch           ...       62
Average number of grid points per atom       ...     1146
UseSFitting                                  ... on

GRIDX 3
-------
General Integration Accuracy     IntAcc      ... 4.338
Radial Grid Type                 RadialGrid  ... OptM3 with GC (2021)
Angular Grid (max. ang.)         AngularGrid ... 3 (Lebedev-194)
Angular grid pruning method      GridPruning ... 4 (adaptive)
Weight generation scheme         WeightScheme... Becke
Basis function cutoff            BFCut       ... 1.0000e-11
Integration weight cutoff        WCut        ... 1.0000e-14
Angular grids for H and He will be reduced by one unit
Partially contracted basis set               ... on
Rotationally invariant grid construction     ... off

Total number of grid points                  ...    69871
Total number of batches                      ...     1107
Average number of points per batch           ...       63
Average number of grid points per atom       ...     2495
UseSFitting                                  ... on

Time for X-Grid setup             =    2.290 sec


--------------------
CPCM SOLVATION MODEL
--------------------
CPCM parameters:
  Epsilon                                         ...      80.4000
  Refrac                                          ...       1.3300
  Rsolv                                           ...       1.3000
  Surface type                                    ... GAUSSIAN VDW
  Epsilon function type                           ...         CPCM
Radii:
 Radius for N  used is    3.5149 Bohr (=   1.8600 Ang.)
 Radius for C  used is    3.8550 Bohr (=   2.0400 Ang.)
 Radius for H  used is    2.4944 Bohr (=   1.3200 Ang.)
Calculating surface                               ...        done! (  0.0s)
GEPOL surface points                              ...         1513
GEPOL Volume                                      ...    1430.6737
GEPOL Surface-area                                ...     796.9136
Calculating surface distance matrix               ...        done! (  0.0s)
Performing Cholesky decomposition & store         ...        done! (  0.1s)
Overall time for CPCM initialization              ...                 0.1s
--------------
SCF ITERATIONS
--------------
ITER       Energy         Delta-E        Max-DP      RMS-DP      [F,P]     Damp
               ***  Starting incremental Fock matrix formation  ***
  0   -461.9127180806   0.000000000000 0.03351691  0.00064435  0.1536438 0.8500
  1   -461.9574874563  -0.044769375687 0.03015438  0.00060390  0.1237371 0.8500
                               ***Turning on DIIS***
  2   -461.9914756703  -0.033988214086 0.02359832  0.00049180  0.0949700 0.8500
  3   -462.0166809018  -0.025205231486 0.01474167  0.00034962  0.0719768 0.8500
  4   -462.0360818713  -0.019400969516 0.00992077  0.00026772  0.0573115 0.8500
  5   -462.0513311056  -0.015249234230 0.00754010  0.00021937  0.0473979 0.8500
  6   -462.0637036508  -0.012372545216 0.00610532  0.00018482  0.0398754 0.8500
  7   -462.0739271667  -0.010223515869 0.00520065  0.00015877  0.0337795 0.8500
  8   -462.0824678205  -0.008540653792 0.02956721  0.00090940  0.0285739 0.0000
  9   -462.1282652214  -0.045797400935 0.00138425  0.00003212  0.0012068 0.0000
                      *** Initiating the SOSCF procedure ***
                           *** Shutting down DIIS ***
                      *** Re-Reading the Fockian *** 
                      *** Removing any level shift *** 
ITER      Energy       Delta-E        Grad      Rot      Max-DP    RMS-DP
 10   -462.12828191  -0.0000166913  0.000149  0.000149  0.000465  0.000013
               *** Restarting incremental Fock matrix formation ***
 11   -462.12828778  -0.0000058717  0.000053  0.000092  0.000301  0.000009
 12   -462.12828808  -0.0000002978  0.000053  0.000118  0.000163  0.000005
 13   -462.12828813  -0.0000000469  0.000019  0.000019  0.000047  0.000001
 14   -462.12828814  -0.0000000125  0.000004  0.000006  0.000015  0.000000
 15   -462.12828814   0.0000000017  0.000004  0.000006  0.000007  0.000000
                  ***Gradient check signals convergence***
              ***Rediagonalizing the Fockian in SOSCF/NRSCF***

               *****************************************************
               *                     SUCCESS                       *
               *           SCF CONVERGED AFTER  16 CYCLES          *
               *****************************************************

Old exchange energy                            =    -21.420600975 Eh
New exchange energy                            =    -21.420642112 Eh
Exchange energy change after final integration =     -0.000041138 Eh
Total energy after final integration           =   -462.128329278 Eh
Final COS-X integration done in                =    61.413 sec

----------------
TOTAL SCF ENERGY
----------------

Total Energy       :         -462.12832928 Eh          -12575.15115 eV

Components:
Nuclear Repulsion  :          652.80603632 Eh           17763.75534 eV
Electronic Energy  :        -1114.93436560 Eh          -30338.90649 eV
One Electron Energy:        -1901.97906357 Eh          -51755.48152 eV
Two Electron Energy:          787.04469796 Eh           21416.57503 eV
Max COSX asymmetry :            0.00000400 Eh               0.00011 eV
CPCM Dielectric    :           -0.07849785 Eh              -2.13604 eV

Virial components:
Potential Energy   :         -918.96989748 Eh          -25006.44221 eV
Kinetic Energy     :          456.84156821 Eh           12431.29107 eV
Virial Ratio       :            2.01157242


DFT components:
N(Alpha)           :       42.000022908596 electrons
N(Beta)            :       42.000022908596 electrons
N(Total)           :       84.000045817192 electrons
E(XC)              :      -47.266647432176 Eh       
DFET-embed. en.    :        0.000000000000 Eh       
CPCM Solvation Model Properties:
Surface-charge          :           -1.02107168
Charge-correction       :            0.00287903 Eh               0.07834 eV
Free-energy (cav+disp)  :  This term is not implemented in the current solvation scheme

---------------
SCF CONVERGENCE
---------------

  Last Energy change         ...   -3.8415e-10  Tolerance :   1.0000e-08
  Last MAX-Density change    ...    3.1086e-15  Tolerance :   1.0000e-07
  Last RMS-Density change    ...    3.6689e-17  Tolerance :   5.0000e-09
  Last Orbital Gradient      ...    5.8921e-07  Tolerance :   1.0000e-05
  Last Orbital Rotation      ...    1.6706e-06  Tolerance :   1.0000e-05

             **** THE GBW FILE WAS UPDATED (4_prot_aq_3.gbw) ****
             **** DENSITY 4_prot_aq_3.scfp WAS UPDATED ****
             **** ENERGY FILE WAS UPDATED (4_prot_aq_3.en.tmp) ****
             **** THE GBW FILE WAS UPDATED (4_prot_aq_3.gbw) ****
             **** DENSITY 4_prot_aq_3.scfp WAS UPDATED ****
----------------
ORBITAL ENERGIES
----------------

  NO   OCC          E(Eh)            E(eV) 
   0   2.0000     -14.511422      -394.8759 
   1   2.0000     -14.510550      -394.8521 
   2   2.0000     -10.381249      -282.4881 
   3   2.0000     -10.335952      -281.2555 
   4   2.0000     -10.335776      -281.2508 
   5   2.0000     -10.331180      -281.1257 
   6   2.0000     -10.330044      -281.0948 
   7   2.0000     -10.271669      -279.5063 
   8   2.0000     -10.270438      -279.4728 
   9   2.0000     -10.270368      -279.4709 
  10   2.0000     -10.270093      -279.4634 
  11   2.0000      -1.222985       -33.2791 
  12   2.0000      -1.104761       -30.0621 
  13   2.0000      -0.969941       -26.3934 
  14   2.0000      -0.922865       -25.1124 
  15   2.0000      -0.913836       -24.8667 
  16   2.0000      -0.825926       -22.4746 
  17   2.0000      -0.824281       -22.4298 
  18   2.0000      -0.809636       -22.0313 
  19   2.0000      -0.785918       -21.3859 
  20   2.0000      -0.735744       -20.0206 
  21   2.0000      -0.726075       -19.7575 
  22   2.0000      -0.662094       -18.0165 
  23   2.0000      -0.634757       -17.2726 
  24   2.0000      -0.615301       -16.7432 
  25   2.0000      -0.598387       -16.2829 
  26   2.0000      -0.589830       -16.0501 
  27   2.0000      -0.575844       -15.6695 
  28   2.0000      -0.567149       -15.4329 
  29   2.0000      -0.560820       -15.2607 
  30   2.0000      -0.555171       -15.1070 
  31   2.0000      -0.520018       -14.1504 
  32   2.0000      -0.506084       -13.7712 
  33   2.0000      -0.501368       -13.6429 
  34   2.0000      -0.499474       -13.5914 
  35   2.0000      -0.494134       -13.4461 
  36   2.0000      -0.474798       -12.9199 
  37   2.0000      -0.462901       -12.5962 
  38   2.0000      -0.462285       -12.5794 
  39   2.0000      -0.459674       -12.5084 
  40   2.0000      -0.414793       -11.2871 
  41   2.0000      -0.373461       -10.1624 
  42   0.0000       0.060520         1.6468 
  43   0.0000       0.096119         2.6155 
  44   0.0000       0.141567         3.8522 
  45   0.0000       0.148318         4.0359 
  46   0.0000       0.162945         4.4340 
  47   0.0000       0.173174         4.7123 
  48   0.0000       0.180012         4.8984 
  49   0.0000       0.195747         5.3265 
  50   0.0000       0.203572         5.5395 
  51   0.0000       0.206470         5.6183 
  52   0.0000       0.211940         5.7672 
  53   0.0000       0.221683         6.0323 
  54   0.0000       0.234226         6.3736 
  55   0.0000       0.242501         6.5988 
  56   0.0000       0.250522         6.8170 
  57   0.0000       0.253566         6.8999 
  58   0.0000       0.255442         6.9509 
  59   0.0000       0.259460         7.0603 
  60   0.0000       0.265959         7.2371 
  61   0.0000       0.269365         7.3298 
  62   0.0000       0.274568         7.4714 
  63   0.0000       0.282035         7.6746 
  64   0.0000       0.297280         8.0894 
  65   0.0000       0.313852         8.5403 
  66   0.0000       0.325634         8.8609 
  67   0.0000       0.335927         9.1410 
  68   0.0000       0.342662         9.3243 
  69   0.0000       0.346770         9.4361 
  70   0.0000       0.400152        10.8887 
  71   0.0000       0.423328        11.5193 
  72   0.0000       0.460129        12.5208 
  73   0.0000       0.479207        13.0399 
  74   0.0000       0.483327        13.1520 
  75   0.0000       0.494902        13.4670 
  76   0.0000       0.508296        13.8314 
  77   0.0000       0.510459        13.8903 
  78   0.0000       0.514216        13.9925 
  79   0.0000       0.536509        14.5992 
  80   0.0000       0.547549        14.8996 
  81   0.0000       0.569663        15.5013 
  82   0.0000       0.589236        16.0339 
  83   0.0000       0.611170        16.6308 
  84   0.0000       0.618756        16.8372 
  85   0.0000       0.650782        17.7087 
  86   0.0000       0.668645        18.1948 
  87   0.0000       0.672557        18.3012 
  88   0.0000       0.676147        18.3989 
  89   0.0000       0.688152        18.7256 
  90   0.0000       0.706918        19.2362 
  91   0.0000       0.721662        19.6374 
  92   0.0000       0.727128        19.7861 
  93   0.0000       0.735870        20.0240 
  94   0.0000       0.739862        20.1327 
  95   0.0000       0.744544        20.2601 
  96   0.0000       0.754639        20.5348 
  97   0.0000       0.757994        20.6261 
  98   0.0000       0.765461        20.8292 
  99   0.0000       0.767986        20.8980 
 100   0.0000       0.772415        21.0185 
 101   0.0000       0.776698        21.1350 
 102   0.0000       0.784499        21.3473 
 103   0.0000       0.794797        21.6275 
 104   0.0000       0.799449        21.7541 
 105   0.0000       0.803720        21.8703 
 106   0.0000       0.804899        21.9024 
 107   0.0000       0.810403        22.0522 
 108   0.0000       0.818125        22.2623 
 109   0.0000       0.821729        22.3604 
 110   0.0000       0.824339        22.4314 
 111   0.0000       0.828572        22.5466 
 112   0.0000       0.838046        22.8044 
 113   0.0000       0.839425        22.8419 
 114   0.0000       0.845755        23.0142 
 115   0.0000       0.855615        23.2825 
 116   0.0000       0.912330        24.8258 
 117   0.0000       0.921182        25.0666 
 118   0.0000       0.969926        26.3930 
 119   0.0000       1.018329        27.7101 
 120   0.0000       1.046895        28.4875 
 121   0.0000       1.054949        28.7066 
 122   0.0000       1.078382        29.3443 
 123   0.0000       1.121127        30.5074 
 124   0.0000       1.154617        31.4187 
 125   0.0000       1.166724        31.7482 
 126   0.0000       1.183019        32.1916 
 127   0.0000       1.187562        32.3152 
 128   0.0000       1.204373        32.7726 
 129   0.0000       1.243885        33.8478 
 130   0.0000       1.271483        34.5988 
 131   0.0000       1.287670        35.0393 
 132   0.0000       1.309143        35.6236 
 133   0.0000       1.329784        36.1853 
 134   0.0000       1.339885        36.4601 
 135   0.0000       1.392928        37.9035 
 136   0.0000       1.403083        38.1798 
 137   0.0000       1.411942        38.4209 
 138   0.0000       1.445287        39.3283 
 139   0.0000       1.458713        39.6936 
 140   0.0000       1.472182        40.0601 
 141   0.0000       1.515459        41.2377 
 142   0.0000       1.542712        41.9793 
 143   0.0000       1.619267        44.0625 
 144   0.0000       1.640546        44.6415 
 145   0.0000       1.650614        44.9155 
 146   0.0000       1.651994        44.9531 
 147   0.0000       1.655420        45.0463 
 148   0.0000       1.658141        45.1203 
 149   0.0000       1.680229        45.7214 
 150   0.0000       1.753549        47.7165 
 151   0.0000       1.786169        48.6041 
 152   0.0000       1.788224        48.6601 
 153   0.0000       1.795907        48.8691 
 154   0.0000       1.821041        49.5531 
 155   0.0000       1.824657        49.6514 
 156   0.0000       1.831602        49.8404 
 157   0.0000       1.854137        50.4536 
 158   0.0000       1.871169        50.9171 
 159   0.0000       1.881264        51.1918 
 160   0.0000       1.895679        51.5840 
 161   0.0000       1.900049        51.7030 
 162   0.0000       1.908871        51.9430 
 163   0.0000       1.916931        52.1623 
 164   0.0000       1.919619        52.2355 
 165   0.0000       1.926240        52.4157 
 166   0.0000       1.942938        52.8700 
 167   0.0000       1.946505        52.9671 
 168   0.0000       1.951274        53.0969 
 169   0.0000       1.964883        53.4672 
 170   0.0000       1.969712        53.5986 
 171   0.0000       1.975866        53.7660 
 172   0.0000       1.979306        53.8597 
 173   0.0000       1.981649        53.9234 
 174   0.0000       1.992430        54.2168 
 175   0.0000       2.007420        54.6247 
 176   0.0000       2.009372        54.6778 
 177   0.0000       2.024515        55.0899 
 178   0.0000       2.037441        55.4416 
 179   0.0000       2.057531        55.9883 
 180   0.0000       2.072645        56.3995 
 181   0.0000       2.083101        56.6841 
 182   0.0000       2.091765        56.9198 
 183   0.0000       2.141690        58.2783 
 184   0.0000       2.148571        58.4656 
 185   0.0000       2.171737        59.0960 
 186   0.0000       2.186919        59.5091 
 187   0.0000       2.253181        61.3122 
 188   0.0000       2.255444        61.3737 
 189   0.0000       2.260959        61.5238 
 190   0.0000       2.277407        61.9714 
 191   0.0000       2.355145        64.0868 
 192   0.0000       2.367506        64.4231 
 193   0.0000       2.373431        64.5843 
 194   0.0000       2.378299        64.7168 
 195   0.0000       2.427888        66.0662 
 196   0.0000       2.453917        66.7745 
 197   0.0000       2.475142        67.3520 
 198   0.0000       2.496133        67.9232 
 199   0.0000       2.512897        68.3794 
 200   0.0000       2.518209        68.5240 
 201   0.0000       2.525127        68.7122 
 202   0.0000       2.549632        69.3790 
 203   0.0000       2.559748        69.6543 
 204   0.0000       2.598409        70.7063 
 205   0.0000       2.601272        70.7842 
 206   0.0000       2.605236        70.8921 
 207   0.0000       2.614064        71.1323 
 208   0.0000       2.671666        72.6997 
 209   0.0000       2.679753        72.9198 
 210   0.0000       2.687815        73.1392 
 211   0.0000       2.698038        73.4173 
 212   0.0000       2.792902        75.9987 
 213   0.0000       2.802521        76.2605 
 214   0.0000       2.823167        76.8223 
 215   0.0000       2.825300        76.8803 
 216   0.0000       2.860224        77.8306 
 217   0.0000       2.878472        78.3272 
 218   0.0000       2.918554        79.4179 
 219   0.0000       2.946817        80.1870 
 220   0.0000       2.949061        80.2480 
 221   0.0000       2.963143        80.6312 
 222   0.0000       2.978787        81.0569 
 223   0.0000       2.993146        81.4476 
 224   0.0000       3.005863        81.7937 
 225   0.0000       3.028154        82.4003 
 226   0.0000       3.032108        82.5078 
 227   0.0000       3.037413        82.6522 
 228   0.0000       3.063980        83.3751 
 229   0.0000       3.089187        84.0611 
 230   0.0000       3.118847        84.8681 
 231   0.0000       3.143674        85.5437 
 232   0.0000       3.147539        85.6489 
 233   0.0000       3.154323        85.8335 
 234   0.0000       3.166399        86.1621 
 235   0.0000       3.298574        89.7588 
 236   0.0000       3.481261        94.7299 
 237   0.0000       3.604241        98.0764 
 238   0.0000       3.630483        98.7905 

                    ********************************
                    * MULLIKEN POPULATION ANALYSIS *
                    ********************************

-----------------------
MULLIKEN ATOMIC CHARGES
-----------------------
   0 N :   -0.165373
   1 C :    0.221309
   2 N :   -0.175175
   3 H :    0.122800
   4 C :    0.072050
   5 C :    0.058473
   6 C :   -0.063639
   7 C :   -0.057326
   8 C :    0.005413
   9 H :    0.076192
  10 C :    0.007542
  11 C :   -0.016490
  12 C :    0.018758
  13 H :    0.077527
  14 H :    0.091029
  15 H :    0.094833
  16 H :    0.058448
  17 H :    0.046121
  18 H :    0.052298
  19 H :    0.045808
  20 H :    0.058222
  21 H :    0.051702
  22 H :    0.061595
  23 H :    0.057156
  24 H :    0.050547
  25 H :    0.044286
  26 H :    0.049446
  27 H :    0.056447
Sum of atomic charges:    1.0000000

--------------------------------
MULLIKEN REDUCED ORBITAL CHARGES
--------------------------------
  0 N s       :     3.377966  s :     3.377966
      pz      :     1.163291  p :     3.753361
      px      :     1.150530
      py      :     1.439540
      dz2     :     0.007605  d :     0.034047
      dxz     :     0.009657
      dyz     :     0.006231
      dx2y2   :     0.004471
      dxy     :     0.006083
  1 C s       :     3.095118  s :     3.095118
      pz      :     0.910240  p :     2.616090
      px      :     0.772393
      py      :     0.933457
      dz2     :     0.012845  d :     0.067482
      dxz     :     0.021732
      dyz     :     0.006714
      dx2y2   :     0.009699
      dxy     :     0.016493
  2 N s       :     3.382950  s :     3.382950
      pz      :     1.149322  p :     3.758433
      px      :     1.166333
      py      :     1.442779
      dz2     :     0.006241  d :     0.033792
      dxz     :     0.010966
      dyz     :     0.006283
      dx2y2   :     0.004536
      dxy     :     0.005765
  3 H s       :     0.852077  s :     0.852077
      pz      :     0.018452  p :     0.025123
      px      :     0.001691
      py      :     0.004981
  4 C s       :     3.144262  s :     3.144262
      pz      :     0.816393  p :     2.735015
      px      :     0.894305
      py      :     1.024317
      dz2     :     0.012927  d :     0.048672
      dxz     :     0.014575
      dyz     :     0.007576
      dx2y2   :     0.005062
      dxy     :     0.008532
  5 C s       :     3.143953  s :     3.143953
      pz      :     0.797717  p :     2.749370
      px      :     0.924085
      py      :     1.027568
      dz2     :     0.015534  d :     0.048204
      dxz     :     0.011392
      dyz     :     0.008855
      dx2y2   :     0.005567
      dxy     :     0.006856
  6 C s       :     3.122370  s :     3.122370
      pz      :     1.033956  p :     2.884897
      px      :     0.806556
      py      :     1.044385
      dz2     :     0.009870  d :     0.056372
      dxz     :     0.011356
      dyz     :     0.007332
      dx2y2   :     0.015308
      dxy     :     0.012507
  7 C s       :     3.114797  s :     3.114797
      pz      :     1.075503  p :     2.886257
      px      :     0.750443
      py      :     1.060311
      dz2     :     0.010910  d :     0.056272
      dxz     :     0.007865
      dyz     :     0.010429
      dx2y2   :     0.017353
      dxy     :     0.009715
  8 C s       :     2.992237  s :     2.992237
      pz      :     1.015595  p :     2.976003
      px      :     1.009065
      py      :     0.951343
      dz2     :     0.007149  d :     0.026347
      dxz     :     0.005034
      dyz     :     0.003091
      dx2y2   :     0.004531
      dxy     :     0.006541
  9 H s       :     0.902466  s :     0.902466
      pz      :     0.015246  p :     0.021342
      px      :     0.002243
      py      :     0.003853
 10 C s       :     2.991261  s :     2.991261
      pz      :     1.027805  p :     2.974845
      px      :     1.003188
      py      :     0.943852
      dz2     :     0.006220  d :     0.026352
      dxz     :     0.004915
      dyz     :     0.003980
      dx2y2   :     0.004620
      dxy     :     0.006617
 11 C s       :     3.001195  s :     3.001195
      pz      :     0.954536  p :     2.989038
      px      :     1.040890
      py      :     0.993611
      dz2     :     0.007627  d :     0.026257
      dxz     :     0.002609
      dyz     :     0.006565
      dx2y2   :     0.006079
      dxy     :     0.003377
 12 C s       :     2.987838  s :     2.987838
      pz      :     1.026825  p :     2.966962
      px      :     1.015196
      py      :     0.924941
      dz2     :     0.005442  d :     0.026443
      dxz     :     0.002739
      dyz     :     0.007480
      dx2y2   :     0.007469
      dxy     :     0.003313
 13 H s       :     0.901159  s :     0.901159
      pz      :     0.010351  p :     0.021314
      px      :     0.004729
      py      :     0.006235
 14 H s       :     0.883823  s :     0.883823
      pz      :     0.013183  p :     0.025149
      px      :     0.006650
      py      :     0.005316
 15 H s       :     0.879874  s :     0.879874
      pz      :     0.009383  p :     0.025292
      px      :     0.010937
      py      :     0.004972
 16 H s       :     0.916791  s :     0.916791
      pz      :     0.007340  p :     0.024761
      px      :     0.012739
      py      :     0.004682
 17 H s       :     0.929268  s :     0.929268
      pz      :     0.014827  p :     0.024611
      px      :     0.005353
      py      :     0.004431
 18 H s       :     0.923455  s :     0.923455
      pz      :     0.004748  p :     0.024247
      px      :     0.007720
      py      :     0.011779
 19 H s       :     0.929591  s :     0.929591
      pz      :     0.014767  p :     0.024601
      px      :     0.005272
      py      :     0.004562
 20 H s       :     0.917023  s :     0.917023
      pz      :     0.007749  p :     0.024755
      px      :     0.012785
      py      :     0.004221
 21 H s       :     0.924041  s :     0.924041
      pz      :     0.006547  p :     0.024257
      px      :     0.007206
      py      :     0.010504
 22 H s       :     0.913655  s :     0.913655
      pz      :     0.004270  p :     0.024750
      px      :     0.015503
      py      :     0.004977
 23 H s       :     0.918531  s :     0.918531
      pz      :     0.004034  p :     0.024313
      px      :     0.006666
      py      :     0.013613
 24 H s       :     0.924825  s :     0.924825
      pz      :     0.011407  p :     0.024628
      px      :     0.005929
      py      :     0.007292
 25 H s       :     0.931278  s :     0.931278
      pz      :     0.011118  p :     0.024436
      px      :     0.006655
      py      :     0.006663
 26 H s       :     0.926235  s :     0.926235
      pz      :     0.012764  p :     0.024319
      px      :     0.005291
      py      :     0.006265
 27 H s       :     0.918788  s :     0.918788
      pz      :     0.005207  p :     0.024765
      px      :     0.015555
      py      :     0.004004


                     *******************************
                     * LOEWDIN POPULATION ANALYSIS *
                     *******************************

----------------------
LOEWDIN ATOMIC CHARGES
----------------------
   0 N :    0.113897
   1 C :    0.125987
   2 N :    0.109426
   3 H :    0.061461
   4 C :    0.023591
   5 C :    0.016852
   6 C :    0.041709
   7 C :    0.041809
   8 C :   -0.048515
   9 H :    0.049056
  10 C :   -0.048427
  11 C :   -0.050425
  12 C :   -0.047617
  13 H :    0.049173
  14 H :    0.056356
  15 H :    0.054505
  16 H :    0.043178
  17 H :    0.033657
  18 H :    0.035895
  19 H :    0.033610
  20 H :    0.042936
  21 H :    0.035674
  22 H :    0.045386
  23 H :    0.036910
  24 H :    0.034370
  25 H :    0.033123
  26 H :    0.034709
  27 H :    0.041717

-------------------------------
LOEWDIN REDUCED ORBITAL CHARGES
-------------------------------
  0 N s       :     3.043327  s :     3.043327
      pz      :     1.207833  p :     3.764551
      px      :     1.191585
      py      :     1.365134
      dz2     :     0.019654  d :     0.078225
      dxz     :     0.024895
      dyz     :     0.012292
      dx2y2   :     0.010729
      dxy     :     0.010654
  1 C s       :     2.830301  s :     2.830301
      pz      :     1.023647  p :     2.885588
      px      :     0.899546
      py      :     0.962395
      dz2     :     0.030155  d :     0.158124
      dxz     :     0.057176
      dyz     :     0.011368
      dx2y2   :     0.024740
      dxy     :     0.034685
  2 N s       :     3.043728  s :     3.043728
      pz      :     1.206856  p :     3.769162
      px      :     1.193153
      py      :     1.369153
      dz2     :     0.016389  d :     0.077684
      dxz     :     0.028876
      dyz     :     0.012389
      dx2y2   :     0.009942
      dxy     :     0.010089
  3 H s       :     0.861683  s :     0.861683
      pz      :     0.052095  p :     0.076856
      px      :     0.008489
      py      :     0.016272
  4 C s       :     2.847707  s :     2.847707
      pz      :     0.952572  p :     3.008377
      px      :     1.032706
      py      :     1.023100
      dz2     :     0.033206  d :     0.120325
      dxz     :     0.040313
      dyz     :     0.014673
      dx2y2   :     0.014232
      dxy     :     0.017901
  5 C s       :     2.845743  s :     2.845743
      pz      :     0.927677  p :     3.018095
      px      :     1.064759
      py      :     1.025660
      dz2     :     0.040739  d :     0.119310
      dxz     :     0.031612
      dyz     :     0.018358
      dx2y2   :     0.015320
      dxy     :     0.013281
  6 C s       :     2.832134  s :     2.832134
      pz      :     1.040091  p :     2.996126
      px      :     0.890799
      py      :     1.065237
      dz2     :     0.025165  d :     0.130030
      dxz     :     0.026048
      dyz     :     0.015032
      dx2y2   :     0.032974
      dxy     :     0.030811
  7 C s       :     2.831771  s :     2.831771
      pz      :     1.078059  p :     2.996722
      px      :     0.845996
      py      :     1.072668
      dz2     :     0.025614  d :     0.129697
      dxz     :     0.018517
      dyz     :     0.023298
      dx2y2   :     0.040585
      dxy     :     0.021684
  8 C s       :     2.828619  s :     2.828619
      pz      :     1.064209  p :     3.149419
      px      :     1.060987
      py      :     1.024223
      dz2     :     0.018659  d :     0.070477
      dxz     :     0.013125
      dyz     :     0.008350
      dx2y2   :     0.011979
      dxy     :     0.018364
  9 H s       :     0.883805  s :     0.883805
      pz      :     0.042624  p :     0.067139
      px      :     0.009499
      py      :     0.015017
 10 C s       :     2.828777  s :     2.828777
      pz      :     1.076091  p :     3.149161
      px      :     1.057702
      py      :     1.015368
      dz2     :     0.016961  d :     0.070489
      dxz     :     0.012726
      dyz     :     0.009532
      dx2y2   :     0.012544
      dxy     :     0.018725
 11 C s       :     2.827854  s :     2.827854
      pz      :     1.019620  p :     3.152160
      px      :     1.079899
      py      :     1.052641
      dz2     :     0.019973  d :     0.070412
      dxz     :     0.006730
      dyz     :     0.018433
      dx2y2   :     0.016222
      dxy     :     0.009053
 12 C s       :     2.829902  s :     2.829902
      pz      :     1.073718  p :     3.147100
      px      :     1.071900
      py      :     1.001482
      dz2     :     0.014898  d :     0.070615
      dxz     :     0.007035
      dyz     :     0.018753
      dx2y2   :     0.020767
      dxy     :     0.009163
 13 H s       :     0.883707  s :     0.883707
      pz      :     0.031212  p :     0.067121
      px      :     0.015060
      py      :     0.020849
 14 H s       :     0.868892  s :     0.868892
      pz      :     0.037533  p :     0.074752
      px      :     0.019931
      py      :     0.017288
 15 H s       :     0.869846  s :     0.869846
      pz      :     0.028366  p :     0.075650
      px      :     0.030795
      py      :     0.016488
 16 H s       :     0.888854  s :     0.888854
      pz      :     0.019711  p :     0.067968
      px      :     0.034593
      py      :     0.013665
 17 H s       :     0.897925  s :     0.897925
      pz      :     0.039782  p :     0.068418
      px      :     0.015162
      py      :     0.013474
 18 H s       :     0.896298  s :     0.896298
      pz      :     0.012938  p :     0.067806
      px      :     0.021152
      py      :     0.033717
 19 H s       :     0.897979  s :     0.897979
      pz      :     0.039203  p :     0.068410
      px      :     0.015083
      py      :     0.014124
 20 H s       :     0.889093  s :     0.889093
      pz      :     0.020308  p :     0.067971
      px      :     0.034818
      py      :     0.012844
 21 H s       :     0.896521  s :     0.896521
      pz      :     0.017472  p :     0.067806
      px      :     0.019908
      py      :     0.030426
 22 H s       :     0.886578  s :     0.886578
      pz      :     0.012961  p :     0.068035
      px      :     0.041586
      py      :     0.013488
 23 H s       :     0.895085  s :     0.895085
      pz      :     0.012569  p :     0.068006
      px      :     0.017932
      py      :     0.037505
 24 H s       :     0.897130  s :     0.897130
      pz      :     0.032328  p :     0.068500
      px      :     0.016028
      py      :     0.020145
 25 H s       :     0.898845  s :     0.898845
      pz      :     0.029639  p :     0.068032
      px      :     0.017892
      py      :     0.020501
 26 H s       :     0.897473  s :     0.897473
      pz      :     0.033992  p :     0.067818
      px      :     0.014350
      py      :     0.019475
 27 H s       :     0.890371  s :     0.890371
      pz      :     0.013591  p :     0.067913
      px      :     0.041694
      py      :     0.012627


                      *****************************
                      * MAYER POPULATION ANALYSIS *
                      *****************************

  NA   - Mulliken gross atomic population
  ZA   - Total nuclear charge
  QA   - Mulliken gross atomic charge
  VA   - Mayer's total valence
  BVA  - Mayer's bonded valence
  FA   - Mayer's free valence

  ATOM       NA         ZA         QA         VA         BVA        FA
  0 N      7.1654     7.0000    -0.1654     3.4363     3.4363    -0.0000
  1 C      5.7787     6.0000     0.2213     3.8631     3.8631    -0.0000
  2 N      7.1752     7.0000    -0.1752     3.4272     3.4272     0.0000
  3 H      0.8772     1.0000     0.1228     1.0002     1.0002     0.0000
  4 C      5.9280     6.0000     0.0720     3.8640     3.8640     0.0000
  5 C      5.9415     6.0000     0.0585     3.8567     3.8567     0.0000
  6 C      6.0636     6.0000    -0.0636     4.0784     4.0784    -0.0000
  7 C      6.0573     6.0000    -0.0573     4.0642     4.0642     0.0000
  8 C      5.9946     6.0000     0.0054     3.9442     3.9442    -0.0000
  9 H      0.9238     1.0000     0.0762     0.9767     0.9767    -0.0000
 10 C      5.9925     6.0000     0.0075     3.9424     3.9424     0.0000
 11 C      6.0165     6.0000    -0.0165     3.9636     3.9636     0.0000
 12 C      5.9812     6.0000     0.0188     3.9430     3.9430     0.0000
 13 H      0.9225     1.0000     0.0775     0.9762     0.9762     0.0000
 14 H      0.9090     1.0000     0.0910     0.9979     0.9979     0.0000
 15 H      0.9052     1.0000     0.0948     0.9976     0.9976    -0.0000
 16 H      0.9416     1.0000     0.0584     0.9962     0.9962     0.0000
 17 H      0.9539     1.0000     0.0461     1.0013     1.0013     0.0000
 18 H      0.9477     1.0000     0.0523     0.9928     0.9928     0.0000
 19 H      0.9542     1.0000     0.0458     1.0015     1.0015    -0.0000
 20 H      0.9418     1.0000     0.0582     0.9963     0.9963     0.0000
 21 H      0.9483     1.0000     0.0517     0.9931     0.9931    -0.0000
 22 H      0.9384     1.0000     0.0616     0.9956     0.9956     0.0000
 23 H      0.9428     1.0000     0.0572     0.9912     0.9912     0.0000
 24 H      0.9495     1.0000     0.0505     0.9976     0.9976     0.0000
 25 H      0.9557     1.0000     0.0443     1.0011     1.0011    -0.0000
[...]
     31      -0.029529   0.001146   0.038161   0.000037   0.000031   0.000032
     32      -0.003937   0.000390   0.015872   0.000617   0.000087   0.000605
     33      -0.000128  -0.075910   0.002094   0.000038  -0.000482   0.000153
     34      -0.000083  -0.041717   0.001072  -0.000071   0.000678  -0.000081
     35      -0.000026  -0.007602   0.000164  -0.000096   0.000850  -0.000091
     36       0.000030  -0.033137   0.001137   0.000042  -0.000205   0.000082
     37      -0.000002   0.010324  -0.000343  -0.000027   0.000019   0.000017
     38       0.000010  -0.010836   0.000329  -0.000041   0.000315  -0.000058
     39      -0.000051   0.010858  -0.000663  -0.003921  -0.001400   0.002673
     40       0.000058  -0.008371   0.000539   0.002198  -0.000565  -0.000938
     41       0.000082  -0.017579   0.001107   0.004395  -0.001207  -0.001861
     42      -0.000042  -0.000512  -0.000262  -0.410747  -0.005134   0.367600
     43       0.000050   0.000175   0.000076   0.174864   0.002335  -0.154045
     44       0.000040   0.000487   0.000269   0.596802   0.007961  -0.525192
     45       0.000148  -0.000793   0.001003  -0.483207  -0.118352  -0.550937
     46      -0.000165  -0.000176   0.000160  -0.103107  -0.025076  -0.115413
     47       0.000153  -0.000693   0.000689  -0.424103  -0.103236  -0.475813
     48       0.521705   0.010616   0.409445   0.000484   0.000365   0.000899
     49      -0.110245  -0.002232  -0.086800  -0.000006  -0.000264  -0.000107
     50      -0.298319  -0.006081  -0.233135  -0.000578  -0.000083  -0.000736
     51      -0.017277  -0.000523  -0.023179  -0.001086  -0.000485  -0.000963
     52      -0.012651  -0.000419  -0.019028  -0.001062  -0.000086  -0.001080
     53      -0.041840  -0.001614  -0.075543  -0.004783  -0.001568  -0.004505
     54       0.283046   0.005295   0.189747  -0.000929  -0.000091  -0.000839
     55       0.424008   0.007901   0.283541  -0.001436  -0.000143  -0.001256
     56       0.018778   0.000345   0.012680  -0.000026   0.000061  -0.000012
     57       0.006897  -0.000697  -0.027685  -0.001232  -0.000552  -0.001108
     58      -0.001016  -0.000481  -0.021408  -0.001796  -0.000778  -0.001669
     59       0.007404  -0.002115  -0.089060  -0.006286  -0.001866  -0.006115
     60      -0.378427   0.015735   0.546052   0.000839   0.000509   0.001230
     61       0.059561  -0.002479  -0.084822  -0.000376   0.000138  -0.000388
     62       0.218761  -0.009088  -0.314313  -0.000728  -0.000279  -0.000902
     63      -0.199888   0.007228   0.236322  -0.001048  -0.000111  -0.000970
     64       0.296924  -0.010713  -0.350155   0.001597   0.000150   0.001439
     65      -0.180044   0.006490   0.212811  -0.000920  -0.000056  -0.000824
     66       0.001222   0.709596  -0.019769  -0.001221   0.002866  -0.000681
     67      -0.000011  -0.011958   0.000341   0.000207   0.000054  -0.000102
     68       0.000115   0.076558  -0.002171  -0.000376   0.000054   0.000115
     69       0.000361   0.177956  -0.004681   0.000159  -0.001338   0.000093
     70       0.001067   0.539963  -0.014218   0.000254  -0.003370   0.000277
     71       0.000121   0.068597  -0.001813   0.000007  -0.000225   0.000008
     72       0.000009   0.018087  -0.000736  -0.000736   0.005942  -0.000689
     73      -0.000031  -0.029496   0.001036   0.000623  -0.005230   0.000673
     74      -0.000043  -0.056131   0.002047   0.001834  -0.010720   0.001007
     75      -0.000059   0.029427  -0.001117  -0.000298   0.001145  -0.000191
     76       0.000057  -0.031942   0.001202   0.000703  -0.001606   0.000081
     77       0.000119  -0.065006   0.002431   0.000864  -0.002576   0.000342
     78      -0.000049   0.049227  -0.001601  -0.000054  -0.000348   0.000132
     79       0.000105  -0.103954   0.003392  -0.000023   0.000835  -0.000241
     80      -0.000134   0.161756  -0.005286  -0.000199  -0.001211   0.000467
     81      -0.000350   0.318260  -0.011075  -0.001072   0.001181  -0.000325
     82      -0.000004   0.013636  -0.000511  -0.000308  -0.000141   0.000121
     83      -0.000031   0.031780  -0.001122  -0.000061  -0.000011   0.000011


-----------
IR SPECTRUM
-----------

 Mode   freq       eps      Int      T**2         TX        TY        TZ
       cm**-1   L/(mol*cm) km/mol    a.u.
----------------------------------------------------------------------------
  6:     40.60   0.000065    0.33  0.000496  (-0.000258  0.020481 -0.008755)
  7:     50.77   0.000002    0.01  0.000009  (-0.001111  0.002687 -0.000879)
  8:    107.42   0.000041    0.21  0.000120  ( 0.000887  0.010666 -0.002279)
  9:    148.04   0.000077    0.39  0.000162  (-0.010113  0.002188  0.007413)
 10:    160.77   0.000000    0.00  0.000001  (-0.000545  0.000549  0.000334)
 11:    236.65   0.000007    0.04  0.000009  ( 0.000214 -0.002698  0.001430)
 12:    240.46   0.000002    0.01  0.000003  (-0.000066  0.001691 -0.000283)
 13:    251.10   0.000003    0.02  0.000004  ( 0.001535 -0.001039  0.000703)
 14:    271.34   0.000041    0.21  0.000047  ( 0.002257 -0.002715 -0.005872)
 15:    279.43   0.000022    0.11  0.000024  (-0.001590  0.001834  0.004271)
 16:    334.55   0.000019    0.09  0.000017  (-0.000788  0.001956  0.003595)
 17:    345.02   0.000050    0.25  0.000045  (-0.005625  0.000441  0.003606)
 18:    396.51   0.000167    0.84  0.000131  (-0.000847  0.010931 -0.003348)
 19:    449.73   0.000007    0.03  0.000005  ( 0.002062  0.000161  0.000584)
 20:    494.96   0.000211    1.07  0.000133  ( 0.001238 -0.003633 -0.010887)
 21:    498.88   0.000062    0.31  0.000039  ( 0.005575 -0.002577  0.000974)
 22:    634.03   0.000094    0.47  0.000046  (-0.003444  0.005649  0.001516)
 23:    680.89   0.014205   71.79  0.006511  (-0.000822  0.077549 -0.022272)
 24:    685.05   0.000969    4.90  0.000441  (-0.018392 -0.008703 -0.005223)
 25:    686.19   0.000067    0.34  0.000030  (-0.002262  0.004361 -0.002480)
 26:    775.79   0.009748   49.26  0.003921  (-0.003001 -0.060219  0.016911)
 27:    894.53   0.005414   27.36  0.001889  ( 0.002622  0.042087 -0.010512)
 28:    915.90   0.000316    1.60  0.000108  (-0.002635  0.001799  0.009881)
 29:    916.82   0.000657    3.32  0.000224  ( 0.011109 -0.003947 -0.009194)
 30:    922.35   0.000061    0.31  0.000021  ( 0.001581  0.004211 -0.000674)
 31:    943.02   0.000433    2.19  0.000143  ( 0.001141 -0.010675  0.005286)
 32:    945.54   0.000629    3.18  0.000208  (-0.000347 -0.013818  0.004066)
 33:    964.51   0.000196    0.99  0.000064  (-0.000124  0.006849 -0.004073)
 34:    966.63   0.000208    1.05  0.000067  ( 0.000260 -0.007980  0.001850)
 35:   1030.13   0.003395   17.16  0.001029  ( 0.031697 -0.001897 -0.004510)
 36:   1043.28   0.000338    1.71  0.000101  ( 0.008886  0.000677  0.004668)
 37:   1101.49   0.001034    5.23  0.000293  (-0.000016 -0.003826 -0.016683)
 38:   1113.06   0.003991   20.17  0.001119  ( 0.002988  0.008688  0.032163)
 39:   1133.53   0.000209    1.05  0.000057  ( 0.004808  0.002108  0.005467)
 40:   1168.36   0.019485   98.47  0.005204  ( 0.068956 -0.007010 -0.020006)
 41:   1174.86   0.000042    0.21  0.000011  ( 0.002941  0.001560 -0.000214)
 42:   1176.07   0.004288   21.67  0.001138  ( 0.004051 -0.032423  0.008368)
 43:   1196.90   0.000856    4.32  0.000223  (-0.013556 -0.002301 -0.005831)
 44:   1217.10   0.034278  173.23  0.008789  ( 0.093715 -0.001728 -0.001863)
 45:   1268.94   0.000379    1.92  0.000093  (-0.004966  0.002822  0.007790)
 46:   1341.80   0.009765   49.35  0.002271  (-0.046516  0.004523  0.009322)
 47:   1348.87   0.001844    9.32  0.000427  (-0.019620 -0.001444  0.006291)
 48:   1349.62   0.000070    0.35  0.000016  (-0.002136 -0.003187  0.001231)
 49:   1377.29   0.000738    3.73  0.000167  (-0.005380  0.004692  0.010781)
 50:   1399.60   0.002258   11.41  0.000503  ( 0.012688  0.008247  0.016567)
 51:   1403.86   0.003878   19.60  0.000862  (-0.000944 -0.026497  0.012612)
 52:   1404.93   0.004725   23.88  0.001049  (-0.004934 -0.031335  0.006576)
 53:   1409.28   0.001339    6.77  0.000296  (-0.003588 -0.008677 -0.014433)
 54:   1412.38   0.009669   48.86  0.002136  (-0.037874 -0.002636 -0.026361)
 55:   1445.33   0.000070    0.35  0.000015  (-0.001569 -0.000663  0.003485)
 56:   1446.94   0.000003    0.02  0.000001  (-0.000075 -0.000821 -0.000068)
 57:   1456.46   0.000703    3.55  0.000151  (-0.009489 -0.007387  0.002457)
 58:   1456.91   0.000743    3.76  0.000159  ( 0.001416  0.008273  0.009421)
 59:   1459.24   0.004162   21.03  0.000890  ( 0.010128  0.002566  0.027945)
 60:   1461.22   0.003785   19.13  0.000808  ( 0.007299 -0.014869 -0.023108)
 61:   1468.08   0.000282    1.43  0.000060  ( 0.003318  0.000839  0.006947)
 62:   1468.90   0.002791   14.11  0.000593  ( 0.013485 -0.006408 -0.019238)
 63:   1493.97   0.000205    1.03  0.000043  (-0.002125 -0.002094 -0.005818)
 64:   1514.08   0.001520    7.68  0.000313  ( 0.016597  0.001685  0.005913)
 65:   1646.70   0.027546  139.20  0.005220  ( 0.071363 -0.003358 -0.010779)
 66:   1648.62   0.009188   46.43  0.001739  (-0.038969 -0.002798 -0.014587)
 67:   3070.37   0.002343   11.84  0.000238  (-0.002887 -0.015133  0.000881)
 68:   3072.24   0.002661   13.45  0.000270  (-0.003074  0.014728 -0.006627)
 69:   3073.70   0.001751    8.85  0.000178  (-0.002780  0.004232 -0.012333)
 70:   3074.71   0.001613    8.15  0.000164  (-0.008903 -0.008056 -0.004420)
 71:   3135.10   0.000690    3.49  0.000069  ( 0.000906  0.002072  0.007974)
 72:   3138.66   0.000714    3.61  0.000071  (-0.004406  0.003429  0.006310)
 73:   3174.89   0.001146    5.79  0.000113  (-0.002424 -0.006418  0.008099)
 74:   3176.09   0.001120    5.66  0.000110  (-0.000985 -0.009930 -0.003244)
 75:   3178.28   0.005147   26.01  0.000505  (-0.010310  0.009891  0.017357)
 76:   3179.73   0.004704   23.77  0.000462  (-0.003393 -0.003116 -0.020987)
 77:   3187.14   0.001601    8.09  0.000157  ( 0.007654 -0.008797  0.004561)
 78:   3187.99   0.001350    6.82  0.000132  (-0.002602 -0.010504  0.003876)
 79:   3189.44   0.002984   15.08  0.000292  (-0.016209 -0.005039 -0.001948)
 80:   3189.86   0.002786   14.08  0.000273  (-0.015119  0.003660  0.005528)
 81:   3299.64   0.005498   27.78  0.000520  (-0.021808  0.002145  0.006306)
 82:   3300.39   0.011813   59.70  0.001117  (-0.006310 -0.008543 -0.031688)
 83:   3317.46   0.003158   15.96  0.000297  (-0.003461 -0.004469 -0.016282)

* The epsilon (eps) is given for a Dirac delta lineshape.
** The dipole moment derivative (T) already includes vibrational overlap.

The first frequency considered to be a vibration is 6
The total number of vibrations considered is 78


--------------------------
THERMOCHEMISTRY AT 298.15K
--------------------------

Temperature         ... 298.15 K
Pressure            ... 1.00 atm
Total Mass          ... 153.25 AMU

Throughout the following assumptions are being made:
  (1) The electronic state is orbitally nondegenerate
  (2) There are no thermally accessible electronically excited states
  (3) Hindered rotations indicated by low frequency modes are not
      treated as such but are treated as vibrations and this may
      cause some error
  (4) All equations used are the standard statistical mechanics
      equations for an ideal gas
  (5) All vibrations are strictly harmonic

freq.      40.60  E(vib)   ...       0.54 
freq.      50.77  E(vib)   ...       0.52 
freq.     107.42  E(vib)   ...       0.45 
freq.     148.04  E(vib)   ...       0.41 
freq.     160.77  E(vib)   ...       0.39 
freq.     236.65  E(vib)   ...       0.32 
freq.     240.46  E(vib)   ...       0.31 
freq.     251.10  E(vib)   ...       0.30 
freq.     271.34  E(vib)   ...       0.29 
freq.     279.43  E(vib)   ...       0.28 
freq.     334.55  E(vib)   ...       0.24 
freq.     345.02  E(vib)   ...       0.23 
freq.     396.51  E(vib)   ...       0.20 
freq.     449.73  E(vib)   ...       0.17 
freq.     494.96  E(vib)   ...       0.14 
freq.     498.88  E(vib)   ...       0.14 
freq.     634.03  E(vib)   ...       0.09 
freq.     680.89  E(vib)   ...       0.08 
freq.     685.05  E(vib)   ...       0.07 
freq.     686.19  E(vib)   ...       0.07 
freq.     775.79  E(vib)   ...       0.05 
freq.     894.53  E(vib)   ...       0.03 
freq.     915.90  E(vib)   ...       0.03 
freq.     916.82  E(vib)   ...       0.03 
freq.     922.35  E(vib)   ...       0.03 
freq.     943.02  E(vib)   ...       0.03 
freq.     945.54  E(vib)   ...       0.03 
freq.     964.51  E(vib)   ...       0.03 
freq.     966.63  E(vib)   ...       0.03 
freq.    1030.13  E(vib)   ...       0.02 
freq.    1043.28  E(vib)   ...       0.02 
freq.    1101.49  E(vib)   ...       0.02 
freq.    1113.06  E(vib)   ...       0.01 
freq.    1133.53  E(vib)   ...       0.01 
freq.    1168.36  E(vib)   ...       0.01 
freq.    1174.86  E(vib)   ...       0.01 
freq.    1176.07  E(vib)   ...       0.01 
freq.    1196.90  E(vib)   ...       0.01 
freq.    1217.10  E(vib)   ...       0.01 
freq.    1268.94  E(vib)   ...       0.01 
freq.    1341.80  E(vib)   ...       0.01 
freq.    1348.87  E(vib)   ...       0.01 
freq.    1349.62  E(vib)   ...       0.01 
freq.    1377.29  E(vib)   ...       0.01 
freq.    1399.60  E(vib)   ...       0.00 
freq.    1403.86  E(vib)   ...       0.00 
freq.    1404.93  E(vib)   ...       0.00 
freq.    1409.28  E(vib)   ...       0.00 
freq.    1412.38  E(vib)   ...       0.00 
freq.    1445.33  E(vib)   ...       0.00 
freq.    1446.94  E(vib)   ...       0.00 
freq.    1456.46  E(vib)   ...       0.00 
freq.    1456.91  E(vib)   ...       0.00 
freq.    1459.24  E(vib)   ...       0.00 
freq.    1461.22  E(vib)   ...       0.00 
freq.    1468.08  E(vib)   ...       0.00 
freq.    1468.90  E(vib)   ...       0.00 
freq.    1493.97  E(vib)   ...       0.00 
freq.    1514.08  E(vib)   ...       0.00 
freq.    1646.70  E(vib)   ...       0.00 
freq.    1648.62  E(vib)   ...       0.00 
freq.    3070.37  E(vib)   ...       0.00 
freq.    3072.24  E(vib)   ...       0.00 
freq.    3073.70  E(vib)   ...       0.00 
freq.    3074.71  E(vib)   ...       0.00 
freq.    3135.10  E(vib)   ...       0.00 
freq.    3138.66  E(vib)   ...       0.00 
freq.    3174.89  E(vib)   ...       0.00 
freq.    3176.09  E(vib)   ...       0.00 
freq.    3178.28  E(vib)   ...       0.00 
freq.    3179.73  E(vib)   ...       0.00 
freq.    3187.14  E(vib)   ...       0.00 
freq.    3187.99  E(vib)   ...       0.00 
freq.    3189.44  E(vib)   ...       0.00 
freq.    3189.86  E(vib)   ...       0.00 
freq.    3299.64  E(vib)   ...       0.00 
freq.    3300.39  E(vib)   ...       0.00 
freq.    3317.46  E(vib)   ...       0.00 

------------
INNER ENERGY
------------

The inner energy is: U= E(el) + E(ZPE) + E(vib) + E(rot) + E(trans)
    E(el)   - is the total energy from the electronic structure calculation
              = E(kin-el) + E(nuc-el) + E(el-el) + E(nuc-nuc)
    E(ZPE)  - the the zero temperature vibrational energy from the frequency calculation
    E(vib)  - the the finite temperature correction to E(ZPE) due to population
              of excited vibrational states
    E(rot)  - is the rotational thermal energy
    E(trans)- is the translational thermal energy

Summary of contributions to the inner energy U:
Electronic energy                ...   -462.13624347 Eh
Zero point energy                ...      0.25565818 Eh     160.43 kcal/mol
Thermal vibrational correction   ...      0.00918663 Eh       5.76 kcal/mol
Thermal rotational correction    ...      0.00141627 Eh       0.89 kcal/mol
Thermal translational correction ...      0.00141627 Eh       0.89 kcal/mol
-----------------------------------------------------------------------
Total thermal energy                   -461.86856611 Eh


Summary of corrections to the electronic energy:
(perhaps to be used in another calculation)
Total thermal correction                  0.01201917 Eh       7.54 kcal/mol
Non-thermal (ZPE) correction              0.25565818 Eh     160.43 kcal/mol
-----------------------------------------------------------------------
Total correction                          0.26767735 Eh     167.97 kcal/mol


--------
ENTHALPY
--------

The enthalpy is H = U + kB*T
                kB is Boltzmann's constant
Total free energy                 ...   -461.86856611 Eh 
Thermal Enthalpy correction       ...      0.00094421 Eh       0.59 kcal/mol
-----------------------------------------------------------------------
Total Enthalpy                    ...   -461.86762190 Eh


Note: Only C1 symmetry has been detected, increase convergence thresholds 
      if your molecule has a higher symmetry. Symmetry factor of 1.0 is   
      used for the rotational entropy correction. 
 

Note: Rotational entropy computed according to Herzberg 
Infrared and Raman Spectra, Chapter V,1, Van Nostrand Reinhold, 1945 
Point Group:  C1, Symmetry Number:   1  
Rotational constants in cm-1:     0.078399     0.019101     0.018882 

Vibrational entropy computed according to the QRRHO of S. Grimme
Chem.Eur.J. 2012 18 9955


-------
ENTROPY
-------

The entropy contributions are T*S = T*(S(el)+S(vib)+S(rot)+S(trans))
     S(el)   - electronic entropy
     S(vib)  - vibrational entropy
     S(rot)  - rotational entropy
     S(trans)- translational entropy
The entropies will be listed as multiplied by the temperature to get
units of energy

Electronic entropy                ...      0.00000000 Eh      0.00 kcal/mol
Vibrational entropy               ...      0.01577380 Eh      9.90 kcal/mol
Rotational entropy                ...      0.01445525 Eh      9.07 kcal/mol
Translational entropy             ...      0.01947584 Eh     12.22 kcal/mol
-----------------------------------------------------------------------
Final entropy term                ...      0.04970489 Eh     31.19 kcal/mol

In case the symmetry of your molecule has not been determined correctly
or in case you have a reason to use a different symmetry number we print 
out the resulting rotational entropy values for sn=1,12 :
 --------------------------------------------------------
|  sn= 1 | S(rot)=       0.01445525 Eh      9.07 kcal/mol|
|  sn= 2 | S(rot)=       0.01380080 Eh      8.66 kcal/mol|
|  sn= 3 | S(rot)=       0.01341797 Eh      8.42 kcal/mol|
|  sn= 4 | S(rot)=       0.01314634 Eh      8.25 kcal/mol|
|  sn= 5 | S(rot)=       0.01293565 Eh      8.12 kcal/mol|
|  sn= 6 | S(rot)=       0.01276351 Eh      8.01 kcal/mol|
|  sn= 7 | S(rot)=       0.01261796 Eh      7.92 kcal/mol|
|  sn= 8 | S(rot)=       0.01249189 Eh      7.84 kcal/mol|
|  sn= 9 | S(rot)=       0.01238068 Eh      7.77 kcal/mol|
|  sn=10 | S(rot)=       0.01228120 Eh      7.71 kcal/mol|
|  sn=11 | S(rot)=       0.01219121 Eh      7.65 kcal/mol|
|  sn=12 | S(rot)=       0.01210905 Eh      7.60 kcal/mol|
 --------------------------------------------------------


-------------------
GIBBS FREE ENERGY
-------------------

The Gibbs free energy is G = H - T*S

Total enthalpy                    ...   -461.86762190 Eh 
Total entropy correction          ...     -0.04970489 Eh    -31.19 kcal/mol
-----------------------------------------------------------------------
Final Gibbs free energy         ...   -461.91732679 Eh

For completeness - the Gibbs free energy minus the electronic energy
G-E(el)                           ...      0.21891667 Eh    137.37 kcal/mol


Timings for individual modules:

Sum of individual times         ...     5458.072 sec (=  90.968 min)
GTO integral calculation        ...        3.623 sec (=   0.060 min)   0.1 %
SCF iterations                  ...     3034.610 sec (=  50.577 min)  55.6 %
SCF Gradient evaluation         ...      838.003 sec (=  13.967 min)  15.4 %
Geometry relaxation             ...        0.694 sec (=   0.012 min)   0.0 %
Analytical frequency calculation...     1581.142 sec (=  26.352 min)  29.0 %
                             ****ORCA TERMINATED NORMALLY****
TOTAL RUN TIME: 0 days 1 hours 30 minutes 59 seconds 556 msec
