
                                 *****************
                                 * O   R   C   A *
                                 *****************

                                            #,                                       
                                            ###                                      
                                            ####                                     
                                            #####                                    
                                            ######                                   
                                           ########,                                 
                                     ,,################,,,,,                         
                               ,,#################################,,                 
                          ,,##########################################,,             
                       ,#########################################, ''#####,          
                    ,#############################################,,   '####,        
                  ,##################################################,,,,####,       
                ,###########''''           ''''###############################       
              ,#####''   ,,,,##########,,,,          '''####'''          '####       
            ,##' ,,,,###########################,,,                        '##       
           ' ,,###''''                  '''############,,,                           
         ,,##''                                '''############,,,,        ,,,,,,###''
      ,#''                                            '''#######################'''  
     '                                                          ''''####''''         
             ,#######,   #######,   ,#######,      ##                                
            ,#'     '#,  ##    ##  ,#'     '#,    #''#        ######   ,####,        
            ##       ##  ##   ,#'  ##            #'  '#       #        #'  '#        
            ##       ##  #######   ##           ,######,      #####,   #    #        
            '#,     ,#'  ##    ##  '#,     ,#' ,#      #,         ##   #,  ,#        
             '#######'   ##     ##  '#######'  #'      '#     #####' # '####'        



                  #######################################################
                  #                        -***-                        #
                  #          Department of theory and spectroscopy      #
                  #    Directorship and core code : Frank Neese         #
                  #        Max Planck Institute fuer Kohlenforschung    #
                  #                Kaiser Wilhelm Platz 1               #
                  #                 D-45470 Muelheim/Ruhr               #
                  #                      Germany                        #
                  #                                                     #
                  #                  All rights reserved                #
                  #                        -***-                        #
                  #######################################################


                         Program Version 5.0.4 -  RELEASE  -


 With contributions from (in alphabetic order):
   Daniel Aravena         : Magnetic Suceptibility
   Michael Atanasov       : Ab Initio Ligand Field Theory (pilot matlab implementation)
   Alexander A. Auer      : GIAO ZORA, VPT2 properties, NMR spectrum
   Ute Becker             : Parallelization
   Giovanni Bistoni       : ED, misc. LED, open-shell LED, HFLD
   Martin Brehm           : Molecular dynamics
   Dmytro Bykov           : SCF Hessian
   Vijay G. Chilkuri      : MRCI spin determinant printing, contributions to CSF-ICE
   Dipayan Datta          : RHF DLPNO-CCSD density
   Achintya Kumar Dutta   : EOM-CC, STEOM-CC
   Dmitry Ganyushin       : Spin-Orbit,Spin-Spin,Magnetic field MRCI
   Miquel Garcia          : C-PCM and meta-GGA Hessian, CC/C-PCM, Gaussian charge scheme
   Yang Guo               : DLPNO-NEVPT2, F12-NEVPT2, CIM, IAO-localization
   Andreas Hansen         : Spin unrestricted coupled pair/coupled cluster methods
   Benjamin Helmich-Paris : MC-RPA, TRAH-SCF, COSX integrals
   Lee Huntington         : MR-EOM, pCC
   Robert Izsak           : Overlap fitted RIJCOSX, COSX-SCS-MP3, EOM
   Marcus Kettner         : VPT2
   Christian Kollmar      : KDIIS, OOCD, Brueckner-CCSD(T), CCSD density, CASPT2, CASPT2-K
   Simone Kossmann        : Meta GGA functionals, TD-DFT gradient, OOMP2, MP2 Hessian
   Martin Krupicka        : Initial AUTO-CI
   Lucas Lang             : DCDCAS
   Marvin Lechner         : AUTO-CI (C++ implementation), FIC-MRCC
   Dagmar Lenk            : GEPOL surface, SMD
   Dimitrios Liakos       : Extrapolation schemes; Compound Job, initial MDCI parallelization
   Dimitrios Manganas     : Further ROCIS development; embedding schemes
   Dimitrios Pantazis     : SARC Basis sets
   Anastasios Papadopoulos: AUTO-CI, single reference methods and gradients
   Taras Petrenko         : DFT Hessian,TD-DFT gradient, ASA, ECA, R-Raman, ABS, FL, XAS/XES, NRVS
   Peter Pinski           : DLPNO-MP2, DLPNO-MP2 Gradient
   Christoph Reimann      : Effective Core Potentials
   Marius Retegan         : Local ZFS, SOC
   Christoph Riplinger    : Optimizer, TS searches, QM/MM, DLPNO-CCSD(T), (RO)-DLPNO pert. Triples
   Tobias Risthaus        : Range-separated hybrids, TD-DFT gradient, RPA, STAB
   Michael Roemelt        : Original ROCIS implementation
   Masaaki Saitow         : Open-shell DLPNO-CCSD energy and density
   Barbara Sandhoefer     : DKH picture change effects
   Avijit Sen             : IP-ROCIS
   Kantharuban Sivalingam : CASSCF convergence, NEVPT2, FIC-MRCI
   Bernardo de Souza      : ESD, SOC TD-DFT
   Georgi Stoychev        : AutoAux, RI-MP2 NMR, DLPNO-MP2 response
   Willem Van den Heuvel  : Paramagnetic NMR
   Boris Wezisla          : Elementary symmetry handling
   Frank Wennmohs         : Technical directorship


 We gratefully acknowledge several colleagues who have allowed us to
 interface, adapt or use parts of their codes:
   Stefan Grimme, W. Hujo, H. Kruse, P. Pracht,  : VdW corrections, initial TS optimization,
                  C. Bannwarth, S. Ehlert          DFT functionals, gCP, sTDA/sTD-DF
   Ed Valeev, F. Pavosevic, A. Kumar             : LibInt (2-el integral package), F12 methods
   Garnet Chan, S. Sharma, J. Yang, R. Olivares  : DMRG
   Ulf Ekstrom                                   : XCFun DFT Library
   Mihaly Kallay                                 : mrcc  (arbitrary order and MRCC methods)
   Jiri Pittner, Ondrej Demel                    : Mk-CCSD
   Frank Weinhold                                : gennbo (NPA and NBO analysis)
   Christopher J. Cramer and Donald G. Truhlar   : smd solvation model
   Lars Goerigk                                  : TD-DFT with DH, B97 family of functionals
   V. Asgeirsson, H. Jonsson                     : NEB implementation
   FAccTs GmbH                                   : IRC, NEB, NEB-TS, DLPNO-Multilevel, CI-OPT
                                                   MM, QMMM, 2- and 3-layer-ONIOM, Crystal-QMMM,
                                                   LR-CPCM, SF, NACMEs, symmetry and pop. for TD-DFT,
                                                   nearIR, NL-DFT gradient (VV10), updates on ESD,
                                                   ML-optimized integration grids
   S Lehtola, MJT Oliveira, MAL Marques          : LibXC Library
   Liviu Ungur et al                             : ANISO software


 Your calculation uses the libint2 library for the computation of 2-el integrals
 For citations please refer to: http://libint.valeyev.net

 Your ORCA version has been built with support for libXC version: 5.1.0
 For citations please refer to: https://tddft.org/programs/libxc/

 This ORCA versions uses:
   CBLAS   interface :  Fast vector & matrix operations
   LAPACKE interface :  Fast linear algebra routines
   SCALAPACK package :  Parallel linear algebra routines
   Shared memory     :  Shared parallel matrices
   BLAS/LAPACK       :  OpenBLAS 0.3.15  USE64BITINT DYNAMIC_ARCH NO_AFFINITY SkylakeX SINGLE_THREADED
        Core in use  :  SkylakeX
   Copyright (c) 2011-2014, The OpenBLAS Project




***************************************
The coordinates will be read from file: 5_deprot_aq_3.xyz
***************************************


Your calculation utilizes the atom-pairwise dispersion correction
based on tight binding partial charges (D4)
Cite in your paper:
E.Caldeweyher, C.Bannwarth, S.Grimme, J.Chem.Phys., (2017), 147, 034112.
E.Caldeweyher, S.Ehlert, A.Hansen, H.Neugebauer, S.Grimme, J.Chem.Phys., (2018), in progress.
   

XCFun DFT library Copyright 2009-2010 Ulf Ekstrom and contributors.
See http://admol.org/xcfun for more information.
This is free software; see the source code for copying conditions.
There is ABSOLUTELY NO WARRANTY; not even for MERCHANTABILITY or FITNESS FOR A PARTICULAR PURPOSE.
For details see the documentation.
Scientific users of this library should cite U. Ekstrom, L. Visscher, R. Bast, A. J. Thorvaldsen and K. Ruud;
J.Chem.Theor.Comp. 2010, DOI: 10.1021/ct100117s
XCFun Version 0.99 

================================================================================

----- Orbital basis set information -----
Your calculation utilizes the basis: def2-SVP
   F. Weigend and R. Ahlrichs, Phys. Chem. Chem. Phys. 7, 3297 (2005).

----- AuxJ basis set information -----
Your calculation utilizes the auxiliary basis: def2/J
   F. Weigend, Phys. Chem. Chem. Phys. 8, 1057 (2006).

================================================================================
                                        WARNINGS
                       Please study these warnings very carefully!
================================================================================


WARNING: Geometry Optimization
  ===> : Switching off AutoStart
         For restart on a previous wavefunction, please use MOREAD

INFO   : the flag for use of the SHARK integral package has been found!

================================================================================
                                       INPUT FILE
================================================================================
NAME = 5_deprot_aq_3.inp
|  1> # ORCA 5.0.4 - /users/bwb16179/postgrad/2024_03/DFT_Crest_Conformers/Opt/deprot/5_deprot_aq_3.inp # write input file
|  2> # Basic Mode
|  3> #
|  4> ! Opt Freq wB97X Def2-SVP D4 SlowConv TightSCF Defgrid2 Def2/J RIJCOSX CPCM(Water)
|  5> 
|  6> 
|  7> 
|  8> %maxcore 4500
|  9> 
| 10> %geom
| 11> Maxiter 150
| 12> END
| 13> 
| 14> * xyzfile 0 1 5_deprot_aq_3.xyz
| 15> 
| 16>                          ****END OF INPUT****
================================================================================

                       *****************************
                       * Geometry Optimization Run *
                       *****************************

Geometry optimization settings:
Update method            Update   .... BFGS
Choice of coordinates    CoordSys .... Z-matrix Internals
Initial Hessian          InHess   .... Almoef's Model

Convergence Tolerances:
Energy Change            TolE     ....  5.0000e-06 Eh
Max. Gradient            TolMAXG  ....  3.0000e-04 Eh/bohr
RMS Gradient             TolRMSG  ....  1.0000e-04 Eh/bohr
Max. Displacement        TolMAXD  ....  4.0000e-03 bohr
RMS Displacement         TolRMSD  ....  2.0000e-03 bohr
Strict Convergence                ....  False
------------------------------------------------------------------------------
                        ORCA OPTIMIZATION COORDINATE SETUP
------------------------------------------------------------------------------

The optimization will be done in new redundant internal coordinates
Making redundant internal coordinates   ...  (new redundants) done
Evaluating the initial hessian          ...  (Almloef) done
Evaluating the coordinates              ...  done
Calculating the B-matrix                .... done
Calculating the G-matrix                .... done
Diagonalizing the G-matrix              .... done
Small eigenvalue found = 9.592e-03
Small eigenvalue found = 2.358e-02
The first mode is                       ....   83
The number of degrees of freedom        ....   93

    -----------------------------------------------------------------
                    Redundant Internal Coordinates


    -----------------------------------------------------------------
         Definition                    Initial Value    Approx d2E/dq
    -----------------------------------------------------------------
      1. B(C   1,N   0)                  1.3587         0.627679   
      2. B(N   2,C   1)                  1.3587         0.627830   
      3. B(C   3,N   2)                  1.3713         0.599302   
      4. B(C   4,N   0)                  1.3713         0.599367   
      5. B(C   4,C   3)                  1.3533         0.714946   
      6. B(C   5,N   0)                  1.4549         0.440967   
      7. B(C   6,N   2)                  1.4549         0.440935   
      8. B(C   7,C   5)                  1.5331         0.369410   
      9. B(C   8,C   5)                  1.5278         0.376620   
     10. B(C   9,C   5)                  1.5330         0.369466   
     11. B(C  10,C   6)                  1.5330         0.369524   
     12. B(C  11,C   6)                  1.5331         0.369330   
     13. B(C  12,C   6)                  1.5278         0.376635   
     14. B(H  13,C   3)                  1.0698         0.387856   
     15. B(H  14,C   4)                  1.0698         0.387825   
     16. B(H  15,C   9)                  1.0865         0.364775   
     17. B(H  16,C   9)                  1.0867         0.364475   
     18. B(H  17,C   9)                  1.0881         0.362678   
     19. B(H  18,C   7)                  1.0881         0.362624   
     20. B(H  19,C   7)                  1.0867         0.364462   
     21. B(H  20,C   7)                  1.0865         0.364749   
     22. B(H  21,C  12)                  1.0881         0.362588   
     23. B(H  22,C  12)                  1.0882         0.362553   
     24. B(H  23,C  12)                  1.0872         0.363801   
     25. B(H  24,C  11)                  1.0881         0.362584   
     26. B(H  25,C  11)                  1.0868         0.364410   
     27. B(H  26,C  11)                  1.0865         0.364718   
     28. B(H  27,C   8)                  1.0882         0.362552   
     29. B(H  28,C   8)                  1.0882         0.362543   
     30. B(H  29,C   8)                  1.0872         0.363773   
     31. B(H  30,C  10)                  1.0865         0.364822   
     32. B(H  31,C  10)                  1.0867         0.364475   
     33. B(H  32,C  10)                  1.0881         0.362637   
     34. A(C   1,N   0,C   4)          111.4462         0.426760   
     35. A(C   4,N   0,C   5)          127.6694         0.400820   
     36. A(C   1,N   0,C   5)          120.8844         0.404094   
     37. A(N   0,C   1,N   2)          103.8218         0.430326   
     38. A(C   1,N   2,C   3)          111.4489         0.426770   
     39. A(C   1,N   2,C   6)          120.8875         0.404106   
     40. A(C   3,N   2,C   6)          127.6632         0.400807   
     41. A(C   4,C   3,H  13)          129.1369         0.366178   
     42. A(N   2,C   3,C   4)          106.6399         0.439738   
     43. A(N   2,C   3,H  13)          124.2232         0.353136   
     44. A(N   0,C   4,C   3)          106.6431         0.439746   
     45. A(N   0,C   4,H  14)          124.2172         0.353137   
     46. A(C   3,C   4,H  14)          129.1397         0.366173   
     47. A(N   0,C   5,C   7)          107.9243         0.370786   
     48. A(N   0,C   5,C   9)          107.9134         0.370796   
     49. A(C   7,C   5,C   8)          109.8247         0.363159   
     50. A(N   0,C   5,C   8)          111.5275         0.372022   
     51. A(C   8,C   5,C   9)          109.8149         0.363169   
     52. A(C   7,C   5,C   9)          109.7897         0.361972   
     53. A(C  10,C   6,C  11)          109.7890         0.361968   
     54. A(N   2,C   6,C  11)          107.9174         0.370768   
     55. A(C  11,C   6,C  12)          109.8334         0.363149   
     56. A(C  10,C   6,C  12)          109.8064         0.363181   
     57. A(N   2,C   6,C  12)          111.5260         0.372020   
     58. A(N   2,C   6,C  10)          107.9223         0.370801   
     59. A(H  19,C   7,H  20)          109.3686         0.291979   
     60. A(H  18,C   7,H  20)          108.5515         0.291747   
     61. A(C   5,C   7,H  20)          109.2188         0.324405   
     62. A(H  18,C   7,H  19)          108.7980         0.291710   
     63. A(C   5,C   7,H  19)          110.5534         0.324363   
     64. A(C   5,C   7,H  18)          110.3159         0.324094   
     65. A(H  27,C   8,H  28)          109.1394         0.291459   
     66. A(C   5,C   8,H  28)          111.0241         0.325113   
     67. A(C   5,C   8,H  27)          111.0332         0.325114   
     68. A(H  28,C   8,H  29)          108.1846         0.291613   
     69. A(H  27,C   8,H  29)          108.1784         0.291615   
     70. A(C   5,C   8,H  29)          109.1933         0.325294   
     71. A(H  16,C   9,H  17)          108.8039         0.291719   
     72. A(H  15,C   9,H  16)          109.3741         0.291984   
     73. A(C   5,C   9,H  16)          110.5559         0.324373   
     74. A(C   5,C   9,H  15)          109.2140         0.324417   
     75. A(C   5,C   9,H  17)          110.3091         0.324110   
     76. A(H  15,C   9,H  17)          108.5493         0.291757   
     77. A(H  31,C  10,H  32)          108.8017         0.291714   
     78. A(H  30,C  10,H  32)          108.5506         0.291757   
     79. A(H  30,C  10,H  31)          109.3834         0.291989   
     80. A(C   6,C  10,H  31)          110.5493         0.324381   
     81. A(C   6,C  10,H  30)          109.2125         0.324432   
     82. A(C   6,C  10,H  32)          110.3090         0.324112   
     83. A(H  25,C  11,H  26)          109.3618         0.291968   
     84. A(H  24,C  11,H  26)          108.5505         0.291738   
     85. A(C   6,C  11,H  26)          109.2269         0.324389   
     86. A(H  24,C  11,H  25)          108.7954         0.291699   
     87. A(C   6,C  11,H  25)          110.5594         0.324344   
     88. A(C   6,C  11,H  24)          110.3119         0.324076   
     89. A(H  22,C  12,H  23)          108.1893         0.291618   
     90. A(H  21,C  12,H  23)          108.1730         0.291623   
     91. A(C   6,C  12,H  23)          109.1952         0.325300   
     92. A(H  21,C  12,H  22)          109.1413         0.291465   
     93. A(C   6,C  12,H  22)          111.0132         0.325116   
     94. A(C   6,C  12,H  21)          111.0412         0.325121   
     95. D(N   2,C   1,N   0,C   5)    179.9676         0.028958   
     96. D(N   2,C   1,N   0,C   4)     -0.0087         0.028958   
     97. D(C   3,N   2,C   1,N   0)      0.0246         0.028973   
     98. D(C   6,N   2,C   1,N   0)    179.8162         0.028973   
     99. D(C   4,C   3,N   2,C   1)     -0.0315         0.028936   
    100. D(H  13,C   3,N   2,C   1)    179.9718         0.028936   
    101. D(H  13,C   3,N   2,C   6)      0.1977         0.028936   
    102. D(C   4,C   3,N   2,C   6)   -179.8056         0.028936   
    103. D(H  14,C   4,C   3,H  13)      0.0255         0.036132   
    104. D(H  14,C   4,N   0,C   5)      0.0113         0.028943   
    105. D(N   0,C   4,C   3,N   2)      0.0244         0.036132   
    106. D(N   0,C   4,C   3,H  13)   -179.9791         0.036132   
    107. D(C   3,C   4,N   0,C   5)   -179.9844         0.028943   
    108. D(H  14,C   4,C   3,N   2)   -179.9710         0.036132   
    109. D(C   3,C   4,N   0,C   1)     -0.0101         0.028943   
    110. D(H  14,C   4,N   0,C   1)    179.9857         0.028943   
    111. D(C   8,C   5,N   0,C   1)    179.7510         0.016582   
    112. D(C   9,C   5,N   0,C   4)   -120.9726         0.016582   
    113. D(C   8,C   5,N   0,C   4)     -0.2768         0.016582   
    114. D(C   9,C   5,N   0,C   1)     59.0552         0.016582   
    115. D(C   7,C   5,N   0,C   1)    -59.5341         0.016582   
    116. D(C   7,C   5,N   0,C   4)    120.4381         0.016582   
    117. D(C  12,C   6,N   2,C   3)     -0.9165         0.016579   
    118. D(C  11,C   6,N   2,C   3)    119.8038         0.016579   
    119. D(C  11,C   6,N   2,C   1)    -59.9511         0.016579   
    120. D(C  12,C   6,N   2,C   1)    179.3285         0.016579   
    121. D(C  10,C   6,N   2,C   3)   -121.6067         0.016579   
    122. D(C  10,C   6,N   2,C   1)     58.6384         0.016579   
    123. D(H  18,C   7,C   5,C   8)     58.7345         0.010911   
    124. D(H  18,C   7,C   5,N   0)    -63.0398         0.010911   
    125. D(H  18,C   7,C   5,C   9)    179.5766         0.010911   
    126. D(H  20,C   7,C   5,C   9)    -61.1914         0.010911   
    127. D(H  20,C   7,C   5,C   8)    177.9665         0.010911   
    128. D(H  20,C   7,C   5,N   0)     56.1923         0.010911   
    129. D(H  19,C   7,C   5,C   9)     59.1933         0.010911   
    130. D(H  19,C   7,C   5,C   8)    -61.6488         0.010911   
    131. D(H  19,C   7,C   5,N   0)    176.5770         0.010911   
    132. D(H  29,C   8,C   5,C   9)    -60.3395         0.011316   
    133. D(H  29,C   8,C   5,C   7)     60.4873         0.011316   
    134. D(H  29,C   8,C   5,N   0)   -179.9161         0.011316   
    135. D(H  28,C   8,C   5,C   9)     58.8571         0.011316   
    136. D(H  28,C   8,C   5,C   7)    179.6839         0.011316   
    137. D(H  28,C   8,C   5,N   0)    -60.7195         0.011316   
    138. D(H  27,C   8,C   5,C   9)   -179.5341         0.011316   
    139. D(H  27,C   8,C   5,C   7)    -58.7073         0.011316   
    140. D(H  27,C   8,C   5,N   0)     60.8893         0.011316   
    141. D(H  17,C   9,C   5,C   7)   -179.5744         0.010914   
    142. D(H  17,C   9,C   5,N   0)     63.0351         0.010914   
    143. D(H  16,C   9,C   5,C   8)     61.6614         0.010914   
    144. D(H  16,C   9,C   5,C   7)    -59.1866         0.010914   
    145. D(H  16,C   9,C   5,N   0)   -176.5771         0.010914   
    146. D(H  15,C   9,C   5,C   8)   -177.9487         0.010914   
    147. D(H  15,C   9,C   5,C   7)     61.2033         0.010914   
    148. D(H  17,C   9,C   5,C   8)    -58.7265         0.010914   
    149. D(H  15,C   9,C   5,N   0)    -56.1872         0.010914   
    150. D(H  32,C  10,C   6,N   2)     63.1480         0.010917   
    151. D(H  31,C  10,C   6,C  12)     61.7685         0.010917   
    152. D(H  31,C  10,C   6,C  11)    -59.0844         0.010917   
    153. D(H  31,C  10,C   6,N   2)   -176.4713         0.010917   
    154. D(H  30,C  10,C   6,C  12)   -177.8351         0.010917   
    155. D(H  30,C  10,C   6,C  11)     61.3120         0.010917   
    156. D(H  32,C  10,C   6,C  11)   -179.4651         0.010917   
    157. D(H  30,C  10,C   6,N   2)    -56.0749         0.010917   
    158. D(H  32,C  10,C   6,C  12)    -58.6122         0.010917   
    159. D(H  26,C  11,C   6,C  12)    178.1361         0.010907   
    160. D(H  26,C  11,C   6,C  10)    -61.0273         0.010907   
    161. D(H  26,C  11,C   6,N   2)     56.3627         0.010907   
    162. D(H  25,C  11,C   6,C  12)    -61.4786         0.010907   
    163. D(H  25,C  11,C   6,C  10)     59.3580         0.010907   
    164. D(H  25,C  11,C   6,N   2)    176.7479         0.010907   
    165. D(H  24,C  11,C   6,C  12)     58.9027         0.010907   
    166. D(H  24,C  11,C   6,C  10)    179.7393         0.010907   
    167. D(H  24,C  11,C   6,N   2)    -62.8707         0.010907   
    168. D(H  23,C  12,C   6,C  11)     60.7725         0.011317   
    169. D(H  23,C  12,C   6,C  10)    -60.0535         0.011317   
    170. D(H  23,C  12,C   6,N   2)   -179.6347         0.011317   
    171. D(H  22,C  12,C   6,C  11)    179.9694         0.011317   
    172. D(H  22,C  12,C   6,C  10)     59.1433         0.011317   
    173. D(H  22,C  12,C   6,N   2)    -60.4378         0.011317   
    174. D(H  21,C  12,C   6,C  11)    -58.4214         0.011317   
    175. D(H  21,C  12,C   6,C  10)   -179.2475         0.011317   
    176. D(H  21,C  12,C   6,N   2)     61.1714         0.011317   
    -----------------------------------------------------------------

Number of atoms                         .... 33
Number of degrees of freedom            .... 176

         *************************************************************
         *                GEOMETRY OPTIMIZATION CYCLE   1            *
         *************************************************************
---------------------------------
CARTESIAN COORDINATES (ANGSTROEM)
---------------------------------
  N     -1.066845    0.175400    0.246249
  C     -0.004684   -0.315682   -0.444291
  N      1.071831    0.167801    0.229042
  C      0.690440    0.932604    1.301511
  C     -0.662820    0.937683    1.312167
  C     -2.429261   -0.122689   -0.167956
  C      2.425325   -0.143698   -0.204176
  C     -2.613484    0.401813   -1.596664
  C     -3.452759    0.530106    0.759651
  C     -2.605929   -1.645345   -0.147232
  C      2.585998    0.354838   -1.644882
  C      2.596001   -1.666634   -0.159848
  C      3.468047    0.521091    0.692983
  H      1.372765    1.412175    1.971505
  H     -1.330946    1.422612    1.992566
  H     -1.850692   -2.101592   -0.781198
  H     -3.593464   -1.919842   -0.508301
  H     -2.484243   -2.025906    0.864814
  H     -2.497171    1.483427   -1.619958
  H     -3.601155    0.147664   -1.972004
  H     -1.858449   -0.040997   -2.240357
  H      3.380456    0.170974    1.719513
  H      3.364431    1.604155    0.675329
  H      4.462408    0.269369    0.332539
  H      2.488069   -2.029281    0.860378
  H      3.576890   -1.951701   -0.530854
  H      1.829561   -2.130617   -0.774534
  H     -3.350177    1.613396    0.753723
  H     -3.342847    0.166905    1.779503
  H     -4.454534    0.282379    0.417361
  H      1.816348   -0.094166   -2.266506
  H      3.564984    0.088023   -2.033908
  H      2.475729    1.436593   -1.684696

----------------------------
CARTESIAN COORDINATES (A.U.)
----------------------------
  NO LB      ZA    FRAG     MASS         X           Y           Z
   0 N     7.0000    0    14.007   -2.016046    0.331457    0.465343
   1 C     6.0000    0    12.011   -0.008851   -0.596553   -0.839588
   2 N     7.0000    0    14.007    2.025467    0.317098    0.432827
   3 C     6.0000    0    12.011    1.304742    1.762367    2.459500
   4 C     6.0000    0    12.011   -1.252548    1.771963    2.479636
   5 C     6.0000    0    12.011   -4.590638   -0.231848   -0.317391
   6 C     6.0000    0    12.011    4.583200   -0.271550   -0.385836
   7 C     6.0000    0    12.011   -4.938769    0.759317   -3.017258
   8 C     6.0000    0    12.011   -6.524768    1.001755    1.435533
   9 C     6.0000    0    12.011   -4.924492   -3.109251   -0.278228
  10 C     6.0000    0    12.011    4.886828    0.670547   -3.108377
  11 C     6.0000    0    12.011    4.905732   -3.149481   -0.302069
  12 C     6.0000    0    12.011    6.553659    0.984720    1.309548
  13 H     1.0000    0     1.008    2.594149    2.668624    3.725604
  14 H     1.0000    0     1.008   -2.515123    2.688347    3.765404
  15 H     1.0000    0     1.008   -3.497301   -3.971434   -1.476250
  16 H     1.0000    0     1.008   -6.790662   -3.627975   -0.960550
  17 H     1.0000    0     1.008   -4.694539   -3.828407    1.634261
  18 H     1.0000    0     1.008   -4.718970    2.803270   -3.061276
  19 H     1.0000    0     1.008   -6.805197    0.279044   -3.726548
  20 H     1.0000    0     1.008   -3.511959   -0.077473   -4.233662
  21 H     1.0000    0     1.008    6.388136    0.323094    3.249408
  22 H     1.0000    0     1.008    6.357854    3.031414    1.276186
  23 H     1.0000    0     1.008    8.432730    0.509034    0.628407
  24 H     1.0000    0     1.008    4.701769   -3.834785    1.625879
  25 H     1.0000    0     1.008    6.759342   -3.688181   -1.003168
  26 H     1.0000    0     1.008    3.457370   -4.026283   -1.463657
  27 H     1.0000    0     1.008   -6.330917    3.048877    1.424330
  28 H     1.0000    0     1.008   -6.317066    0.315404    3.362772
  29 H     1.0000    0     1.008   -8.417849    0.533619    0.788697
  30 H     1.0000    0     1.008    3.432400   -0.177949   -4.283075
  31 H     1.0000    0     1.008    6.736843    0.166339   -3.843529
  32 H     1.0000    0     1.008    4.678449    2.714767   -3.183615

--------------------------------
INTERNAL COORDINATES (ANGSTROEM)
--------------------------------
 N      0   0   0     0.000000000000     0.00000000     0.00000000
 C      1   0   0     1.358746909132     0.00000000     0.00000000
 N      2   1   0     1.358681698886   103.82181069     0.00000000
 C      3   2   1     1.371340342377   111.44892471     0.02464965
 C      4   3   2     1.353311087312   106.63988678   359.96845371
 C      1   2   3     1.454853587267   120.88441151   179.96764061
 C      3   2   1     1.454873235592   120.88750434   179.81619895
 C      6   1   2     1.533051623079   107.92431225   300.46591953
 C      6   1   2     1.527790309189   111.52751437   179.75095277
 C      6   1   2     1.533010730452   107.91343279    59.05516476
 C      7   3   2     1.532967653127   107.92230639    58.63837175
 C      7   3   2     1.533110516445   107.91743982   300.04887892
 C      7   3   2     1.527778839797   111.52604910   179.32853708
 H      4   3   2     1.069788063987   124.22319859   179.97175358
 H      5   4   3     1.069809164260   129.13967036   180.02901358
 H     10   6   1     1.086488506230   109.21398080   303.81281968
 H     10   6   1     1.086712798882   110.55587924   183.42291363
 H     10   6   1     1.088057997772   110.30912183    63.03509119
 H      8   6   1     1.088098898919   110.31585799   296.96023893
 H      8   6   1     1.086722553344   110.55344753   176.57696135
 H      8   6   1     1.086508220792   109.21878648    56.19229754
 H     13   7   3     1.088125831701   111.04121350    61.17136642
 H     13   7   3     1.088152099867   111.01320847   299.56218516
 H     13   7   3     1.087216365257   109.19517481   180.36533095
 H     12   7   3     1.088128520913   110.31190463   297.12928262
 H     12   7   3     1.086761274379   110.55943339   176.74794471
 H     12   7   3     1.086531182328   109.22690568    56.36272039
 H      9   6   1     1.088152844611   111.03319850    60.88930100
 H      9   6   1     1.088159801694   111.02407415   299.28051351
 H      9   6   1     1.087237276927   109.19334548   180.08389237
 H     11   7   3     1.086453908447   109.21249714   303.92505820
 H     11   7   3     1.086712779126   110.54929194   183.52868625
 H     11   7   3     1.088088854053   110.30903525    63.14795549

---------------------------
INTERNAL COORDINATES (A.U.)
---------------------------
 N      0   0   0     0.000000000000     0.00000000     0.00000000
 C      1   0   0     2.567659543572     0.00000000     0.00000000
 N      2   1   0     2.567536314066   103.82181069     0.00000000
 C      3   2   1     2.591457683490   111.44892471     0.02464965
 C      4   3   2     2.557387329018   106.63988678   359.96845371
 C      1   2   3     2.749274844888   120.88441151   179.96764061
 C      3   2   1     2.749311974842   120.88750434   179.81619895
 C      6   1   2     2.897047716783   107.92431225   300.46591953
 C      6   1   2     2.887105274427   111.52751437   179.75095277
 C      6   1   2     2.896970440917   107.91343279    59.05516476
 C      7   3   2     2.896889036571   107.92230639    58.63837175
 C      7   3   2     2.897159009115   107.91743982   300.04887892
 C      7   3   2     2.887083600416   111.52604910   179.32853708
 H      4   3   2     2.021606462273   124.22319859   179.97175358
 H      5   4   3     2.021646336011   129.13967036   180.02901358
 H     10   6   1     2.053165724429   109.21398080   303.81281968
 H     10   6   1     2.053589576114   110.55587924   183.42291363
 H     10   6   1     2.056131633611   110.30912183    63.03509119
 H      8   6   1     2.056208925578   110.31585799   296.96023893
 H      8   6   1     2.053608009376   110.55344753   176.57696135
 H      8   6   1     2.053202979551   109.21878648    56.19229754
 H     13   7   3     2.056259821160   111.04121350    61.17136642
 H     13   7   3     2.056309460801   111.01320847   299.56218516
 H     13   7   3     2.054541178653   109.19517481   180.36533095
 H     12   7   3     2.056264903034   110.31190463   297.12928262
 H     12   7   3     2.053681181528   110.55943339   176.74794471
 H     12   7   3     2.053246370566   109.22690568    56.36272039
 H      9   6   1     2.056310868162   111.03319850    60.88930100
 H      9   6   1     2.056324015144   111.02407415   299.28051351
 H      9   6   1     2.054580695982   109.19334548   180.08389237
 H     11   7   3     2.053100344093   109.21249714   303.92505820
 H     11   7   3     2.053589538781   110.54929194   183.52868625
 H     11   7   3     2.056189943533   110.30903525    63.14795549

---------------------
BASIS SET INFORMATION
---------------------
There are 3 groups of distinct atoms

 Group   1 Type N   : 7s4p1d contracted to 3s2p1d pattern {511/31/1}
 Group   2 Type C   : 7s4p1d contracted to 3s2p1d pattern {511/31/1}
 Group   3 Type H   : 4s1p contracted to 2s1p pattern {31/1}

Atom   0N    basis set group =>   1
Atom   1C    basis set group =>   2
Atom   2N    basis set group =>   1
Atom   3C    basis set group =>   2
Atom   4C    basis set group =>   2
Atom   5C    basis set group =>   2
Atom   6C    basis set group =>   2
Atom   7C    basis set group =>   2
Atom   8C    basis set group =>   2
Atom   9C    basis set group =>   2
Atom  10C    basis set group =>   2
Atom  11C    basis set group =>   2
Atom  12C    basis set group =>   2
Atom  13H    basis set group =>   3
Atom  14H    basis set group =>   3
Atom  15H    basis set group =>   3
Atom  16H    basis set group =>   3
Atom  17H    basis set group =>   3
Atom  18H    basis set group =>   3
Atom  19H    basis set group =>   3
Atom  20H    basis set group =>   3
Atom  21H    basis set group =>   3
Atom  22H    basis set group =>   3
Atom  23H    basis set group =>   3
Atom  24H    basis set group =>   3
Atom  25H    basis set group =>   3
Atom  26H    basis set group =>   3
Atom  27H    basis set group =>   3
Atom  28H    basis set group =>   3
Atom  29H    basis set group =>   3
Atom  30H    basis set group =>   3
Atom  31H    basis set group =>   3
Atom  32H    basis set group =>   3
---------------------------------
AUXILIARY/J BASIS SET INFORMATION
---------------------------------
There are 3 groups of distinct atoms

 Group   1 Type N   : 12s5p4d2f1g contracted to 6s4p3d1f1g pattern {711111/2111/211/2/1}
 Group   2 Type C   : 12s5p4d2f1g contracted to 6s4p3d1f1g pattern {711111/2111/211/2/1}
 Group   3 Type H   : 5s2p1d contracted to 3s1p1d pattern {311/2/1}

Atom   0N    basis set group =>   1
Atom   1C    basis set group =>   2
Atom   2N    basis set group =>   1
Atom   3C    basis set group =>   2
Atom   4C    basis set group =>   2
Atom   5C    basis set group =>   2
Atom   6C    basis set group =>   2
Atom   7C    basis set group =>   2
Atom   8C    basis set group =>   2
Atom   9C    basis set group =>   2
Atom  10C    basis set group =>   2
Atom  11C    basis set group =>   2
Atom  12C    basis set group =>   2
Atom  13H    basis set group =>   3
Atom  14H    basis set group =>   3
Atom  15H    basis set group =>   3
Atom  16H    basis set group =>   3
Atom  17H    basis set group =>   3
Atom  18H    basis set group =>   3
Atom  19H    basis set group =>   3
Atom  20H    basis set group =>   3
Atom  21H    basis set group =>   3
Atom  22H    basis set group =>   3
Atom  23H    basis set group =>   3
Atom  24H    basis set group =>   3
Atom  25H    basis set group =>   3
Atom  26H    basis set group =>   3
Atom  27H    basis set group =>   3
Atom  28H    basis set group =>   3
Atom  29H    basis set group =>   3
Atom  30H    basis set group =>   3
Atom  31H    basis set group =>   3
Atom  32H    basis set group =>   3
------------------------------------------------------------------------------
                           ORCA GTO INTEGRAL CALCULATION
                           -- RI-GTO INTEGRALS CHOSEN --
------------------------------------------------------------------------------
------------------------------------------------------------------------------
                   ___                                                        
                  /   \      - P O W E R E D   B Y -                         
                 /     \                                                     
                 |  |  |   _    _      __       _____    __    __             
                 |  |  |  | |  | |    /  \     |  _  \  |  |  /  |          
                  \  \/   | |  | |   /    \    | | | |  |  | /  /          
                 / \  \   | |__| |  /  /\  \   | |_| |  |  |/  /          
                |  |  |   |  __  | /  /__\  \  |    /   |      \           
                |  |  |   | |  | | |   __   |  |    \   |  |\   \          
                \     /   | |  | | |  |  |  |  | |\  \  |  | \   \       
                 \___/    |_|  |_| |__|  |__|  |_| \__\ |__|  \__/        
                                                                              
                      - O R C A' S   B I G   F R I E N D -                    
                                      &                                       
                       - I N T E G R A L  F E E D E R -                       
                                                                              
 v1 FN, 2020, v2 2021                                                         
------------------------------------------------------------------------------


Reading SHARK input file 5_deprot_aq_3.SHARKINP.tmp ... ok
----------------------
SHARK INTEGRAL PACKAGE
----------------------

Number of atoms                             ...     33
Number of basis functions                   ...    282
Number of shells                            ...    138
Maximum angular momentum                    ...      2
Integral batch strategy                     ... SHARK/LIBINT Hybrid
RI-J (if used) integral strategy            ... SPLIT-RIJ (Revised 2003 algorithm where possible)
Printlevel                                  ...      1
Contraction scheme used                     ... SEGMENTED contraction
Coulomb Range Separation                    ... NOT USED
Exchange Range Separation                   ... Long Range
   Mu parameter                             ...  0.300000
   Scaling (regular/separated)              ...  0.157706  0.842294
Finite Nucleus Model                        ... NOT USED
Auxiliary Coulomb fitting basis             ... AVAILABLE
   # of basis functions in Aux-J            ...    857
   # of shells in Aux-J                     ...    295
   Maximum angular momentum in Aux-J        ...      4
Auxiliary J/K fitting basis                 ... NOT available
Auxiliary Correlation fitting basis         ... NOT available
Auxiliary 'external' fitting basis          ... NOT available
Integral threshold                          ...     2.500000e-11
Primitive cut-off                           ...     2.500000e-12
Primitive pair pre-selection threshold      ...     2.500000e-12

Calculating pre-screening integrals         ... done (  0.1 sec) Dimension = 138
Organizing shell pair data                  ... done (  0.1 sec)
Shell pair information
Total number of shell pairs                 ...      9591
Shell pairs after pre-screening             ...      8243
Total number of primitive shell pairs       ...     33125
Primitive shell pairs kept                  ...     19841
          la=0 lb=0:   2809 shell pairs
          la=1 lb=0:   3114 shell pairs
          la=1 lb=1:    891 shell pairs
          la=2 lb=0:    871 shell pairs
          la=2 lb=1:    482 shell pairs
          la=2 lb=2:     76 shell pairs

Calculating one electron integrals          ... done (  0.1 sec)
Calculating RI/J V-Matrix + Cholesky decomp.... done (  0.1 sec)
Calculating Nuclear repulsion               ... done (  0.0 sec) ENN=    862.328804697376 Eh

SHARK setup successfully completed in   0.4 seconds

Maximum memory used throughout the entire GTOINT-calculation: 47.7 MB
-------------------------------------------------------------------------------
                                 ORCA SCF
-------------------------------------------------------------------------------

------------
SCF SETTINGS
------------
Hamiltonian:
 Density Functional     Method          .... DFT(GTOs)
 Exchange Functional    Exchange        .... WB97X
 Correlation Functional Correlation     .... WB97X
 Gradients option       PostSCFGGA      .... off
 Hybrid DFT is turned on
   Fraction HF Exchange ScalHFX         ....  0.157706
   Scaling of DF-GGA-X  ScalDFX         ....  0.000000
   Scaling of DF-GGA-C  ScalDFC         ....  1.000000
   Scaling of DF-LDA-C  ScalLDAC        ....  1.000000
   Perturbative correction              ....  0.000000
   Density functional embedding theory  .... OFF
 Long-range corrected/Screened/Range-Separated Hybrid DFT is turned on
   Amount of maximum screened exact exchange              ....  0.842294
   Range separation parameter mu (erf(mu*r12)/r12)        ....  0.300000
 RI-approximation to the Coulomb term is turned on
   Number of AuxJ basis functions       .... 857
   RIJ-COSX (HFX calculated with COS-X)).... on


General Settings:
 Integral files         IntName         .... 5_deprot_aq_3
 Hartree-Fock type      HFTyp           .... RHF
 Total Charge           Charge          ....    0
 Multiplicity           Mult            ....    1
 Number of Electrons    NEL             ....  100
 Basis Dimension        Dim             ....  282
 Nuclear Repulsion      ENuc            ....    862.3288046974 Eh

Convergence Acceleration:
 DIIS                   CNVDIIS         .... on
   Start iteration      DIISMaxIt       ....     0
   Startup error        DIISStart       ....  0.200000
   # of expansion vecs  DIISMaxEq       ....     5
   Bias factor          DIISBfac        ....   1.050
   Max. coefficient     DIISMaxC        ....  10.000
 Trust-Rad. Augm. Hess. CNVTRAH         .... auto
   Auto Start mean grad. ratio tolernc. ....  1.125000
   Auto Start start iteration           ....    20
   Auto Start num. interpolation iter.  ....    10
   Max. Number of Micro iterations      ....    16
   Max. Number of Macro iterations      .... Maxiter - #DIIS iter
   Number of Davidson start vectors     ....     2
   Converg. threshold I  (grad. norm)   ....   1.000e-05
   Converg. threshold II (energy diff.) ....   1.000e-08
   Grad. Scal. Fac. for Micro threshold ....   0.100
   Minimum threshold for Micro iter.    ....   0.010
   NR start threshold (gradient norm)   ....   0.001
   Initial trust radius                 ....   0.400
   Minimum AH scaling param. (alpha)    ....   1.000
   Maximum AH scaling param. (alpha)    .... 1000.000
   Orbital update algorithm             .... Taylor
   White noise on init. David. guess    .... on
   Maximum white noise                  ....   0.010
   Quad. conv. algorithm                .... NR
 SOSCF                  CNVSOSCF        .... on
   Start iteration      SOSCFMaxIt      ....   150
   Startup grad/error   SOSCFStart      ....  0.001000
 Level Shifting         CNVShift        .... on
   Level shift para.    LevelShift      ....    0.2500
   Turn off err/grad.   ShiftErr        ....    0.0000
 Zerner damping         CNVZerner       .... off
 Static damping         CNVDamp         .... on
   Fraction old density DampFac         ....    0.8500
   Max. Damping (<1)    DampMax         ....    0.9800
   Min. Damping (>=0)   DampMin         ....    0.0000
   Turn off err/grad.   DampErr         ....    0.0300
 Fernandez-Rico         CNVRico         .... off

SCF Procedure:
 Maximum # iterations   MaxIter         ....   125
 SCF integral mode      SCFMode         .... Direct
   Integral package                     .... SHARK and LIBINT hybrid scheme
 Reset frequency        DirectResetFreq ....    20
 Integral Threshold     Thresh          ....  2.500e-11 Eh
 Primitive CutOff       TCut            ....  2.500e-12 Eh

Convergence Tolerance:
 Convergence Check Mode ConvCheckMode   .... Total+1el-Energy
 Convergence forced     ConvForced      .... 0
 Energy Change          TolE            ....  1.000e-08 Eh
 1-El. energy change                    ....  1.000e-05 Eh
 Orbital Gradient       TolG            ....  1.000e-05
 Orbital Rotation angle TolX            ....  1.000e-05
 DIIS Error             TolErr          ....  5.000e-07


Diagonalization of the overlap matrix:
Smallest eigenvalue                        ... 9.621e-04
Time for diagonalization                   ...    0.013 sec
Threshold for overlap eigenvalues          ... 1.000e-08
Number of eigenvalues below threshold      ... 0
Time for construction of square roots      ...    0.006 sec
Total time needed                          ...    0.020 sec

Time for model grid setup =    0.680 sec

------------------------------
INITIAL GUESS: MODEL POTENTIAL
------------------------------
Loading Hartree-Fock densities                     ... done
Calculating cut-offs                               ... done
Initializing the effective Hamiltonian             ... done
Setting up the integral package (SHARK)            ... done
Starting the Coulomb interaction                   ... done (   0.8 sec)
Reading the grid                                   ... done
Mapping shells                                     ... done
Starting the XC term evaluation                    ... done (   0.8 sec)
  promolecular density results
     # of electrons  =     99.988479647
     EX              =    -75.335164952
     EC              =     -3.323302667
     EX+EC           =    -78.658467619
Transforming the Hamiltonian                       ... done (   0.0 sec)
Diagonalizing the Hamiltonian                      ... done (   0.0 sec)
Back transforming the eigenvectors                 ... done (   0.0 sec)
Now organizing SCF variables                       ... done
                      ------------------
                      INITIAL GUESS DONE (   2.2 sec)
                      ------------------
-------------------
DFT GRID GENERATION
-------------------

General Integration Accuracy     IntAcc      ... 4.388
Radial Grid Type                 RadialGrid  ... OptM3 with GC (2021)
Angular Grid (max. ang.)         AngularGrid ... 4 (Lebedev-302)
Angular grid pruning method      GridPruning ... 4 (adaptive)
Weight generation scheme         WeightScheme... Becke
Basis function cutoff            BFCut       ... 1.0000e-11
Integration weight cutoff        WCut        ... 1.0000e-14
Angular grids for H and He will be reduced by one unit
Partially contracted basis set               ... off
Rotationally invariant grid construction     ... off

Total number of grid points                  ...   141075
Total number of batches                      ...     2221
Average number of points per batch           ...       63
Average number of grid points per atom       ...     4275
Time for grid setup =    2.482 sec

--------------------
COSX GRID GENERATION
--------------------

GRIDX 1
-------
General Integration Accuracy     IntAcc      ... 3.816
Radial Grid Type                 RadialGrid  ... OptM3 with GC (2021)
Angular Grid (max. ang.)         AngularGrid ... 1 (Lebedev-50)
Angular grid pruning method      GridPruning ... 4 (adaptive)
Weight generation scheme         WeightScheme... Becke
Basis function cutoff            BFCut       ... 1.0000e-11
Integration weight cutoff        WCut        ... 1.0000e-14
Angular grids for H and He will be reduced by one unit
Partially contracted basis set               ... on
Rotationally invariant grid construction     ... off

Total number of grid points                  ...    18011
Total number of batches                      ...      301
Average number of points per batch           ...       59
Average number of grid points per atom       ...      546
UseSFitting                                  ... on

GRIDX 2
-------
General Integration Accuracy     IntAcc      ... 4.020
Radial Grid Type                 RadialGrid  ... OptM3 with GC (2021)
Angular Grid (max. ang.)         AngularGrid ... 2 (Lebedev-110)
Angular grid pruning method      GridPruning ... 4 (adaptive)
Weight generation scheme         WeightScheme... Becke
Basis function cutoff            BFCut       ... 1.0000e-11
Integration weight cutoff        WCut        ... 1.0000e-14
Angular grids for H and He will be reduced by one unit
Partially contracted basis set               ... on
Rotationally invariant grid construction     ... off

Total number of grid points                  ...    37494
Total number of batches                      ...      601
Average number of points per batch           ...       62
Average number of grid points per atom       ...     1136
UseSFitting                                  ... on

GRIDX 3
-------
General Integration Accuracy     IntAcc      ... 4.338
Radial Grid Type                 RadialGrid  ... OptM3 with GC (2021)
Angular Grid (max. ang.)         AngularGrid ... 3 (Lebedev-194)
Angular grid pruning method      GridPruning ... 4 (adaptive)
Weight generation scheme         WeightScheme... Becke
Basis function cutoff            BFCut       ... 1.0000e-11
Integration weight cutoff        WCut        ... 1.0000e-14
Angular grids for H and He will be reduced by one unit
Partially contracted basis set               ... on
Rotationally invariant grid construction     ... off

Total number of grid points                  ...    81604
Total number of batches                      ...     1293
Average number of points per batch           ...       63
Average number of grid points per atom       ...     2473
UseSFitting                                  ... on

Time for X-Grid setup             =    3.260 sec


--------------------
CPCM SOLVATION MODEL
--------------------
CPCM parameters:
  Epsilon                                         ...      80.4000
  Refrac                                          ...       1.3300
  Rsolv                                           ...       1.3000
  Surface type                                    ... GAUSSIAN VDW
  Epsilon function type                           ...         CPCM
Radii:
 Radius for N  used is    3.5149 Bohr (=   1.8600 Ang.)
 Radius for C  used is    3.8550 Bohr (=   2.0400 Ang.)
 Radius for H  used is    2.4944 Bohr (=   1.3200 Ang.)
Calculating surface                               ...        done! (  0.0s)
GEPOL surface points                              ...         1684
GEPOL Volume                                      ...    1673.0372
GEPOL Surface-area                                ...     892.6159
Calculating surface distance matrix               ...        done! (  0.0s)
Performing Cholesky decomposition & store         ...        done! (  0.1s)
Overall time for CPCM initialization              ...                 0.1s
--------------
SCF ITERATIONS
--------------
ITER       Energy         Delta-E        Max-DP      RMS-DP      [F,P]     Damp
               ***  Starting incremental Fock matrix formation  ***
  0   -539.8393454381   0.000000000000 0.03433833  0.00069602  0.1582599 0.8500
  1   -539.9090284316  -0.069682993460 0.03372595  0.00066013  0.1276008 0.8500
                               ***Turning on DIIS***
  2   -539.9621483562  -0.053119924620 0.02930755  0.00054015  0.0980325 0.8500
  3   -540.0015829481  -0.039434591872 0.02349433  0.00038102  0.0743542 0.8500
  4   -540.0319211189  -0.030338170778 0.01920398  0.00028949  0.0592316 0.8500
  5   -540.0557547814  -0.023833662565 0.01605850  0.00023640  0.0489837 0.8500
  6   -540.0750723661  -0.019317584689 0.01358331  0.00019901  0.0411946 0.8500
  7   -540.0910165820  -0.015944215844 0.01159943  0.00017116  0.0348816 0.8500
  8   -540.1043209675  -0.013304385513 0.06637164  0.00098213  0.0295007 0.0000
  9   -540.1755908692  -0.071269901723 0.00148221  0.00003822  0.0012566 0.0000
                      *** Initiating the SOSCF procedure ***
                           *** Shutting down DIIS ***
                      *** Re-Reading the Fockian *** 
                      *** Removing any level shift *** 
ITER      Energy       Delta-E        Grad      Rot      Max-DP    RMS-DP
 10   -540.17561858  -0.0000277078  0.000345  0.000345  0.000517  0.000018
               *** Restarting incremental Fock matrix formation ***
 11   -540.17555138   0.0000671994  0.000257  0.000586  0.000312  0.000011
 12   -540.17555227  -0.0000008973  0.000068  0.000379  0.000269  0.000008
 13   -540.17555252  -0.0000002464  0.000028  0.000025  0.000092  0.000002
 14   -540.17555256  -0.0000000407  0.000007  0.000013  0.000050  0.000001
                  ***Gradient check signals convergence***
              ***Rediagonalizing the Fockian in SOSCF/NRSCF***

               *****************************************************
               *                     SUCCESS                       *
               *           SCF CONVERGED AFTER  15 CYCLES          *
               *****************************************************

Old exchange energy                            =    -25.341891098 Eh
New exchange energy                            =    -25.341974854 Eh
Exchange energy change after final integration =     -0.000083756 Eh
Total energy after final integration           =   -540.175636337 Eh
Final COS-X integration done in                =    91.779 sec

----------------
TOTAL SCF ENERGY
----------------

Total Energy       :         -540.17563634 Eh          -14698.92634 eV

Components:
Nuclear Repulsion  :          862.32880470 Eh           23465.15972 eV
Electronic Energy  :        -1402.50444103 Eh          -38164.08607 eV
One Electron Energy:        -2439.88931341 Eh          -66392.76356 eV
Two Electron Energy:         1037.38487237 Eh           28228.67750 eV
Max COSX asymmetry :            0.00000244 Eh               0.00007 eV
CPCM Dielectric    :           -0.01199812 Eh              -0.32649 eV

Virial components:
Potential Energy   :        -1074.17307219 Eh          -29229.73531 eV
Kinetic Energy     :          533.99743585 Eh           14530.80896 eV
Virial Ratio       :            2.01156972


DFT components:
N(Alpha)           :       49.999891079812 electrons
N(Beta)            :       49.999891079812 electrons
N(Total)           :       99.999782159624 electrons
E(XC)              :      -55.563008068163 Eh       
DFET-embed. en.    :        0.000000000000 Eh       
CPCM Solvation Model Properties:
Surface-charge          :           -0.02885172
Charge-correction       :           -0.00034275 Eh              -0.00933 eV
Free-energy (cav+disp)  :  This term is not implemented in the current solvation scheme

---------------
SCF CONVERGENCE
---------------

  Last Energy change         ...   -1.9208e-08  Tolerance :   1.0000e-08
  Last MAX-Density change    ...    4.4409e-15  Tolerance :   1.0000e-07
  Last RMS-Density change    ...    3.6193e-17  Tolerance :   5.0000e-09
  Last Orbital Gradient      ...    2.2613e-06  Tolerance :   1.0000e-05
  Last Orbital Rotation      ...    1.1256e-05  Tolerance :   1.0000e-05

             **** THE GBW FILE WAS UPDATED (5_deprot_aq_3.gbw) ****
             **** DENSITY 5_deprot_aq_3.scfp WAS UPDATED ****
             **** ENERGY FILE WAS UPDATED (5_deprot_aq_3.en.tmp) ****
             **** THE GBW FILE WAS UPDATED (5_deprot_aq_3.gbw) ****
             **** DENSITY 5_deprot_aq_3.scfp WAS UPDATED ****
----------------
ORBITAL ENERGIES
----------------

  NO   OCC          E(Eh)            E(eV) 
   0   2.0000     -14.444631      -393.0584 
   1   2.0000     -14.444622      -393.0582 
   2   2.0000     -10.311941      -280.6022 
   3   2.0000     -10.311919      -280.6016 
   4   2.0000     -10.288460      -279.9632 
   5   2.0000     -10.287863      -279.9470 
   6   2.0000     -10.268456      -279.4189 
   7   2.0000     -10.258953      -279.1603 
   8   2.0000     -10.258936      -279.1598 
   9   2.0000     -10.252084      -278.9734 
  10   2.0000     -10.252050      -278.9725 
  11   2.0000     -10.251942      -278.9695 
  12   2.0000     -10.251932      -278.9693 
  13   2.0000      -1.151284       -31.3280 
  14   2.0000      -1.050237       -28.5784 
  15   2.0000      -0.953659       -25.9504 
  16   2.0000      -0.900430       -24.5019 
  17   2.0000      -0.866469       -23.5778 
  18   2.0000      -0.817019       -22.2322 
  19   2.0000      -0.807978       -21.9862 
  20   2.0000      -0.807083       -21.9618 
  21   2.0000      -0.806052       -21.9338 
  22   2.0000      -0.760428       -20.6923 
  23   2.0000      -0.725427       -19.7399 
  24   2.0000      -0.657231       -17.8842 
  25   2.0000      -0.654890       -17.8205 
  26   2.0000      -0.616126       -16.7656 
  27   2.0000      -0.583948       -15.8900 
  28   2.0000      -0.582151       -15.8411 
  29   2.0000      -0.563512       -15.3339 
  30   2.0000      -0.558937       -15.2094 
  31   2.0000      -0.544937       -14.8285 
  32   2.0000      -0.537450       -14.6247 
  33   2.0000      -0.531820       -14.4716 
  34   2.0000      -0.517750       -14.0887 
  35   2.0000      -0.502092       -13.6626 
  36   2.0000      -0.495130       -13.4732 
  37   2.0000      -0.488863       -13.3026 
  38   2.0000      -0.481858       -13.1120 
  39   2.0000      -0.474320       -12.9069 
  40   2.0000      -0.467822       -12.7301 
  41   2.0000      -0.467100       -12.7104 
  42   2.0000      -0.466543       -12.6953 
  43   2.0000      -0.447414       -12.1748 
  44   2.0000      -0.437355       -11.9010 
  45   2.0000      -0.433020       -11.7831 
  46   2.0000      -0.428650       -11.6642 
  47   2.0000      -0.368921       -10.0388 
  48   2.0000      -0.316229        -8.6050 
  49   2.0000      -0.313695        -8.5361 
  50   0.0000       0.123336         3.3561 
  51   0.0000       0.129907         3.5349 
  52   0.0000       0.145980         3.9723 
  53   0.0000       0.152855         4.1594 
  54   0.0000       0.187743         5.1087 
  55   0.0000       0.193892         5.2761 
  56   0.0000       0.194964         5.3052 
  57   0.0000       0.200701         5.4614 
  58   0.0000       0.201000         5.4695 
  59   0.0000       0.211564         5.7569 
  60   0.0000       0.214199         5.8286 
  61   0.0000       0.217526         5.9192 
  62   0.0000       0.235380         6.4050 
  63   0.0000       0.241594         6.5741 
  64   0.0000       0.243563         6.6277 
  65   0.0000       0.253341         6.8938 
  66   0.0000       0.269417         7.3312 
  67   0.0000       0.271500         7.3879 
  68   0.0000       0.274626         7.4730 
  69   0.0000       0.279257         7.5990 
  70   0.0000       0.279642         7.6094 
  71   0.0000       0.281866         7.6700 
  72   0.0000       0.292595         7.9619 
  73   0.0000       0.293940         7.9985 
  74   0.0000       0.307623         8.3708 
  75   0.0000       0.312785         8.5113 
  76   0.0000       0.319728         8.7002 
  77   0.0000       0.329042         8.9537 
  78   0.0000       0.334972         9.1150 
  79   0.0000       0.345765         9.4087 
  80   0.0000       0.353912         9.6304 
  81   0.0000       0.374913        10.2019 
  82   0.0000       0.401866        10.9353 
  83   0.0000       0.446381        12.1467 
  84   0.0000       0.458088        12.4652 
  85   0.0000       0.476761        12.9733 
  86   0.0000       0.489684        13.3250 
  87   0.0000       0.490329        13.3425 
  88   0.0000       0.505258        13.7488 
  89   0.0000       0.505703        13.7609 
  90   0.0000       0.528698        14.3866 
  91   0.0000       0.533356        14.5133 
  92   0.0000       0.567342        15.4382 
  93   0.0000       0.573204        15.5977 
  94   0.0000       0.592395        16.1199 
  95   0.0000       0.612971        16.6798 
  96   0.0000       0.619494        16.8573 
  97   0.0000       0.640479        17.4283 
  98   0.0000       0.659582        17.9481 
  99   0.0000       0.659928        17.9576 
 100   0.0000       0.661233        17.9931 
 101   0.0000       0.665749        18.1160 
 102   0.0000       0.684863        18.6361 
 103   0.0000       0.687475        18.7072 
 104   0.0000       0.713236        19.4081 
 105   0.0000       0.719763        19.5857 
 106   0.0000       0.731290        19.8994 
 107   0.0000       0.739356        20.1189 
 108   0.0000       0.744692        20.2641 
 109   0.0000       0.759126        20.6569 
 110   0.0000       0.759308        20.6618 
 111   0.0000       0.761486        20.7211 
 112   0.0000       0.772831        21.0298 
 113   0.0000       0.775685        21.1075 
 114   0.0000       0.784267        21.3410 
 115   0.0000       0.793284        21.5864 
 116   0.0000       0.796591        21.6763 
 117   0.0000       0.802021        21.8241 
 118   0.0000       0.803289        21.8586 
 119   0.0000       0.805787        21.9266 
 120   0.0000       0.806054        21.9338 
 121   0.0000       0.811074        22.0705 
 122   0.0000       0.821917        22.3655 
 123   0.0000       0.825007        22.4496 
 124   0.0000       0.827063        22.5055 
 125   0.0000       0.829444        22.5703 
 126   0.0000       0.832479        22.6529 
 127   0.0000       0.833754        22.6876 
 128   0.0000       0.841845        22.9078 
 129   0.0000       0.848099        23.0780 
 130   0.0000       0.857934        23.3456 
 131   0.0000       0.861883        23.4530 
 132   0.0000       0.863139        23.4872 
 133   0.0000       0.866372        23.5752 
 134   0.0000       0.876715        23.8566 
 135   0.0000       0.906071        24.6554 
 136   0.0000       0.909865        24.7587 
 137   0.0000       0.920549        25.0494 
 138   0.0000       0.958724        26.0882 
 139   0.0000       1.031596        28.0711 
 140   0.0000       1.037078        28.2203 
 141   0.0000       1.055153        28.7122 
 142   0.0000       1.057217        28.7683 
 143   0.0000       1.081529        29.4299 
 144   0.0000       1.097151        29.8550 
 145   0.0000       1.098262        29.8852 
 146   0.0000       1.170939        31.8629 
 147   0.0000       1.205348        32.7992 
 148   0.0000       1.210403        32.9367 
 149   0.0000       1.224542        33.3215 
 150   0.0000       1.246927        33.9306 
 151   0.0000       1.254933        34.1485 
 152   0.0000       1.265048        34.4237 
 153   0.0000       1.302126        35.4327 
 154   0.0000       1.306330        35.5470 
 155   0.0000       1.321141        35.9501 
 156   0.0000       1.356627        36.9157 
 157   0.0000       1.368909        37.2499 
 158   0.0000       1.383219        37.6393 
 159   0.0000       1.387652        37.7599 
 160   0.0000       1.400603        38.1123 
 161   0.0000       1.424457        38.7615 
 162   0.0000       1.461107        39.7587 
 163   0.0000       1.519379        41.3444 
 164   0.0000       1.543938        42.0127 
 165   0.0000       1.552951        42.2580 
 166   0.0000       1.583843        43.0986 
 167   0.0000       1.657793        45.1108 
 168   0.0000       1.659723        45.1634 
 169   0.0000       1.662868        45.2489 
 170   0.0000       1.663716        45.2720 
 171   0.0000       1.672685        45.5161 
 172   0.0000       1.675783        45.6004 
 173   0.0000       1.682671        45.7878 
 174   0.0000       1.693045        46.0701 
 175   0.0000       1.697579        46.1935 
 176   0.0000       1.701858        46.3099 
 177   0.0000       1.704662        46.3862 
 178   0.0000       1.717206        46.7275 
 179   0.0000       1.809156        49.2296 
 180   0.0000       1.812209        49.3127 
 181   0.0000       1.829402        49.7806 
 182   0.0000       1.843745        50.1709 
 183   0.0000       1.844508        50.1916 
 184   0.0000       1.851679        50.3868 
 185   0.0000       1.871099        50.9152 
 186   0.0000       1.874490        51.0075 
 187   0.0000       1.884112        51.2693 
 188   0.0000       1.900622        51.7185 
 189   0.0000       1.907418        51.9035 
 190   0.0000       1.933919        52.6246 
 191   0.0000       1.936960        52.7074 
 192   0.0000       1.941835        52.8400 
 193   0.0000       1.958471        53.2927 
 194   0.0000       1.959032        53.3080 
 195   0.0000       1.960885        53.3584 
 196   0.0000       1.968197        53.5574 
 197   0.0000       1.971822        53.6560 
 198   0.0000       1.976782        53.7910 
 199   0.0000       1.986518        54.0559 
 200   0.0000       1.989831        54.1460 
 201   0.0000       1.997385        54.3516 
 202   0.0000       1.998149        54.3724 
 203   0.0000       2.019934        54.9652 
 204   0.0000       2.037085        55.4319 
 205   0.0000       2.038159        55.4611 
 206   0.0000       2.042135        55.5693 
 207   0.0000       2.058080        56.0032 
 208   0.0000       2.061304        56.0909 
 209   0.0000       2.080299        56.6078 
 210   0.0000       2.097852        57.0855 
 211   0.0000       2.103045        57.2268 
 212   0.0000       2.114070        57.5268 
 213   0.0000       2.118611        57.6503 
 214   0.0000       2.138257        58.1849 
 215   0.0000       2.149620        58.4941 
 216   0.0000       2.150201        58.5099 
 217   0.0000       2.196365        59.7661 
 218   0.0000       2.234404        60.8012 
 219   0.0000       2.271982        61.8238 
 220   0.0000       2.274966        61.9050 
 221   0.0000       2.282242        62.1030 
 222   0.0000       2.285755        62.1986 
 223   0.0000       2.318335        63.0851 
 224   0.0000       2.320360        63.1402 
 225   0.0000       2.328567        63.3635 
 226   0.0000       2.332606        63.4734 
 227   0.0000       2.338307        63.6286 
 228   0.0000       2.392354        65.0993 
 229   0.0000       2.399222        65.2862 
 230   0.0000       2.477429        67.4143 
 231   0.0000       2.487853        67.6979 
 232   0.0000       2.500011        68.0288 
 233   0.0000       2.504152        68.1414 
 234   0.0000       2.505356        68.1742 
 235   0.0000       2.521483        68.6130 
 236   0.0000       2.528688        68.8091 
 237   0.0000       2.539431        69.1014 
 238   0.0000       2.556950        69.5781 
 239   0.0000       2.578666        70.1691 
 240   0.0000       2.581574        70.2482 
 241   0.0000       2.584362        70.3241 
 242   0.0000       2.625329        71.4388 
 243   0.0000       2.642966        71.9188 
 244   0.0000       2.660353        72.3919 
 245   0.0000       2.675349        72.7999 
 246   0.0000       2.693705        73.2994 
 247   0.0000       2.696570        73.3774 
 248   0.0000       2.773828        75.4797 
 249   0.0000       2.774489        75.4977 
 250   0.0000       2.774547        75.4993 
 251   0.0000       2.779064        75.6222 
 252   0.0000       2.819070        76.7108 
 253   0.0000       2.841037        77.3086 
 254   0.0000       2.842723        77.3544 
 255   0.0000       2.858070        77.7720 
 256   0.0000       2.880902        78.3933 
 257   0.0000       2.926542        79.6353 
 258   0.0000       2.962983        80.6269 
 259   0.0000       2.964898        80.6790 
 260   0.0000       3.005293        81.7782 
 261   0.0000       3.009045        81.8803 
 262   0.0000       3.017566        82.1122 
 263   0.0000       3.021788        82.2270 
 264   0.0000       3.022687        82.2515 
 265   0.0000       3.038144        82.6721 
 266   0.0000       3.051933        83.0473 
 267   0.0000       3.082045        83.8667 
 268   0.0000       3.083870        83.9164 
 269   0.0000       3.085594        83.9633 
 270   0.0000       3.090911        84.1080 
 271   0.0000       3.113396        84.7198 
 272   0.0000       3.122860        84.9773 
 273   0.0000       3.140523        85.4580 
 274   0.0000       3.143758        85.5460 
 275   0.0000       3.188069        86.7518 
 276   0.0000       3.210929        87.3738 
 277   0.0000       3.217741        87.5592 
 278   0.0000       3.351704        91.2045 
 279   0.0000       3.478097        94.6438 
 280   0.0000       3.499876        95.2365 
 281   0.0000       3.700057       100.6837 

                    ********************************
                    * MULLIKEN POPULATION ANALYSIS *
                    ********************************

-----------------------
MULLIKEN ATOMIC CHARGES
-----------------------
   0 N :   -0.194645
   1 C :   -0.160689
   2 N :   -0.194593
   3 C :    0.018612
   4 C :    0.018578
   5 C :   -0.206439
   6 C :   -0.206502
   7 C :    0.064361
   8 C :    0.041924
   9 C :    0.064203
  10 C :    0.064031
  11 C :    0.064376
  12 C :    0.042121
  13 H :    0.045198
  14 H :    0.045156
  15 H :    0.017663
  16 H :    0.027579
  17 H :    0.022830
  18 H :    0.022861
  19 H :    0.027557
  20 H :    0.017541
  21 H :    0.035541
  22 H :    0.035334
  23 H :    0.040116
  24 H :    0.022973
  25 H :    0.027735
  26 H :    0.017794
  27 H :    0.035453
  28 H :    0.035495
  29 H :    0.040129
  30 H :    0.017479
  31 H :    0.027459
  32 H :    0.022770
Sum of atomic charges:    0.0000000

--------------------------------
MULLIKEN REDUCED ORBITAL CHARGES
--------------------------------
  0 N s       :     3.388346  s :     3.388346
      pz      :     1.243669  p :     3.773901
      px      :     1.159378
      py      :     1.370853
      dz2     :     0.007691  d :     0.032398
      dxz     :     0.007433
      dyz     :     0.004081
      dx2y2   :     0.007473
      dxy     :     0.005720
  1 C s       :     3.587032  s :     3.587032
      pz      :     1.000881  p :     2.509066
      px      :     0.648499
      py      :     0.859687
      dz2     :     0.009178  d :     0.064591
      dxz     :     0.022194
      dyz     :     0.008161
      dx2y2   :     0.008070
      dxy     :     0.016988
  2 N s       :     3.388337  s :     3.388337
      pz      :     1.243480  p :     3.773856
      px      :     1.159815
      py      :     1.370561
      dz2     :     0.007705  d :     0.032400
      dxz     :     0.007429
      dyz     :     0.004084
      dx2y2   :     0.007454
      dxy     :     0.005728
  3 C s       :     3.145051  s :     3.145051
      pz      :     0.898263  p :     2.787632
      px      :     0.898627
      py      :     0.990742
      dz2     :     0.010535  d :     0.048704
      dxz     :     0.011436
      dyz     :     0.008846
      dx2y2   :     0.008161
      dxy     :     0.009726
  4 C s       :     3.145103  s :     3.145103
      pz      :     0.899031  p :     2.787611
      px      :     0.897952
      py      :     0.990628
      dz2     :     0.010384  d :     0.048708
      dxz     :     0.011591
      dyz     :     0.008767
      dx2y2   :     0.008107
      dxy     :     0.009859
  5 C s       :     3.205200  s :     3.205200
      pz      :     1.039692  p :     2.935928
      px      :     0.849266
      py      :     1.046970
      dz2     :     0.013369  d :     0.065312
      dxz     :     0.013131
      dyz     :     0.010299
      dx2y2   :     0.016923
      dxy     :     0.011590
  6 C s       :     3.205238  s :     3.205238
      pz      :     1.037959  p :     2.935958
      px      :     0.852005
      py      :     1.045994
      dz2     :     0.013398  d :     0.065306
      dxz     :     0.013244
      dyz     :     0.010199
      dx2y2   :     0.016717
      dxy     :     0.011748
  7 C s       :     2.970784  s :     2.970784
      pz      :     0.939775  p :     2.938468
      px      :     1.000182
      py      :     0.998512
      dz2     :     0.006508  d :     0.026386
      dxz     :     0.005963
      dyz     :     0.004045
      dx2y2   :     0.007467
      dxy     :     0.002403
  8 C s       :     2.972900  s :     2.972900
      pz      :     0.984014  p :     2.958818
      px      :     0.979175
      py      :     0.995629
      dz2     :     0.007501  d :     0.026358
      dxz     :     0.004666
      dyz     :     0.003359
      dx2y2   :     0.007942
      dxy     :     0.002890
  9 C s       :     2.970827  s :     2.970827
      pz      :     1.011119  p :     2.938583
      px      :     1.000184
      py      :     0.927280
      dz2     :     0.005643  d :     0.026386
      dxz     :     0.004401
      dyz     :     0.005321
      dx2y2   :     0.007057
      dxy     :     0.003964
 10 C s       :     2.970765  s :     2.970765
      pz      :     0.938316  p :     2.938822
      px      :     1.000969
      py      :     0.999537
      dz2     :     0.006564  d :     0.026382
      dxz     :     0.005963
      dyz     :     0.003991
      dx2y2   :     0.007350
      dxy     :     0.002514
 11 C s       :     2.970919  s :     2.970919
      pz      :     1.010602  p :     2.938316
      px      :     1.000548
      py      :     0.927166
      dz2     :     0.005805  d :     0.026389
      dxz     :     0.004348
      dyz     :     0.005157
      dx2y2   :     0.006962
      dxy     :     0.004117
 12 C s       :     2.972777  s :     2.972777
      pz      :     0.985827  p :     2.958746
      px      :     0.977857
      py      :     0.995063
      dz2     :     0.007571  d :     0.026355
      dxz     :     0.004677
      dyz     :     0.003203
      dx2y2   :     0.007896
      dxy     :     0.003008
 13 H s       :     0.929700  s :     0.929700
      pz      :     0.009188  p :     0.025102
      px      :     0.008507
      py      :     0.007407
 14 H s       :     0.929746  s :     0.929746
      pz      :     0.009369  p :     0.025098
      px      :     0.008257
      py      :     0.007472
 15 H s       :     0.957410  s :     0.957410
      pz      :     0.008532  p :     0.024927
      px      :     0.010867
      py      :     0.005527
 16 H s       :     0.948093  s :     0.948093
      pz      :     0.006255  p :     0.024328
      px      :     0.013615
      py      :     0.004459
 17 H s       :     0.953032  s :     0.953032
      pz      :     0.013936  p :     0.024137
      px      :     0.005202
      py      :     0.004999
 18 H s       :     0.952998  s :     0.952998
      pz      :     0.003821  p :     0.024141
      px      :     0.005187
      py      :     0.015133
 19 H s       :     0.948108  s :     0.948108
      pz      :     0.005249  p :     0.024334
      px      :     0.013620
      py      :     0.005465
 20 H s       :     0.957550  s :     0.957550
      pz      :     0.007448  p :     0.024910
      px      :     0.010846
      py      :     0.006615
 21 H s       :     0.940171  s :     0.940171
      pz      :     0.014052  p :     0.024288
      px      :     0.004497
      py      :     0.005739
 22 H s       :     0.940382  s :     0.940382
      pz      :     0.004499  p :     0.024283
      px      :     0.004513
      py      :     0.015272
 23 H s       :     0.935454  s :     0.935454
      pz      :     0.005657  p :     0.024430
      px      :     0.013432
      py      :     0.005341
 24 H s       :     0.952892  s :     0.952892
      pz      :     0.014084  p :     0.024134
      px      :     0.005174
      py      :     0.004877
 25 H s       :     0.947937  s :     0.947937
      pz      :     0.006312  p :     0.024328
      px      :     0.013499
      py      :     0.004517
 26 H s       :     0.957314  s :     0.957314
      pz      :     0.008317  p :     0.024893
      px      :     0.010990
      py      :     0.005586
 27 H s       :     0.940261  s :     0.940261
      pz      :     0.004464  p :     0.024286
      px      :     0.004540
      py      :     0.015282
 28 H s       :     0.940224  s :     0.940224
      pz      :     0.013906  p :     0.024281
      px      :     0.004546
      py      :     0.005829
 29 H s       :     0.935441  s :     0.935441
      pz      :     0.005512  p :     0.024430
      px      :     0.013583
      py      :     0.005335
 30 H s       :     0.957581  s :     0.957581
      pz      :     0.007183  p :     0.024940
      px      :     0.011088
      py      :     0.006670
 31 H s       :     0.948210  s :     0.948210
      pz      :     0.005324  p :     0.024331
      px      :     0.013468
      py      :     0.005539
 32 H s       :     0.953089  s :     0.953089
      pz      :     0.003813  p :     0.024141
      px      :     0.005183
      py      :     0.015145


                     *******************************
                     * LOEWDIN POPULATION ANALYSIS *
                     *******************************

----------------------
LOEWDIN ATOMIC CHARGES
----------------------
   0 N :    0.047927
   1 C :   -0.281151
   2 N :    0.047942
   3 C :   -0.039854
   4 C :   -0.039833
   5 C :    0.005111
   6 C :    0.005108
   7 C :   -0.045655
   8 C :   -0.047113
   9 C :   -0.045656
  10 C :   -0.045740
  11 C :   -0.045593
  12 C :   -0.047082
  13 H :    0.033465
  14 H :    0.033452
  15 H :    0.018824
  16 H :    0.026871
  17 H :    0.024202
  18 H :    0.024206
  19 H :    0.026943
  20 H :    0.018834
  21 H :    0.028029
  22 H :    0.028017
  23 H :    0.036382
  24 H :    0.024251
  25 H :    0.026965
  26 H :    0.018988
  27 H :    0.027985
  28 H :    0.028062
  29 H :    0.036396
  30 H :    0.018650
  31 H :    0.026885
  32 H :    0.024183

-------------------------------
LOEWDIN REDUCED ORBITAL CHARGES
-------------------------------
  0 N s       :     3.056296  s :     3.056296
      pz      :     1.273457  p :     3.818448
      px      :     1.197985
      py      :     1.347006
      dz2     :     0.017133  d :     0.077329
      dxz     :     0.019645
      dyz     :     0.009957
      dx2y2   :     0.017081
      dxy     :     0.013514
  1 C s       :     3.176931  s :     3.176931
      pz      :     1.166789  p :     2.964402
      px      :     0.828560
      py      :     0.969054
      dz2     :     0.015601  d :     0.139818
      dxz     :     0.051415
      dyz     :     0.012857
      dx2y2   :     0.021508
      dxy     :     0.038437
  2 N s       :     3.056297  s :     3.056297
      pz      :     1.272790  p :     3.818426
      px      :     1.199016
      py      :     1.346620
      dz2     :     0.017157  d :     0.077334
      dxz     :     0.019607
      dyz     :     0.009970
      dx2y2   :     0.017072
      dxy     :     0.013528
  3 C s       :     2.849418  s :     2.849418
      pz      :     0.985906  p :     3.067950
      px      :     1.054117
      py      :     1.027927
      dz2     :     0.025788  d :     0.122486
      dxz     :     0.029555
      dyz     :     0.021184
      dx2y2   :     0.022987
      dxy     :     0.022972
  4 C s       :     2.849418  s :     2.849418
      pz      :     0.987137  p :     3.067919
      px      :     1.052538
      py      :     1.028244
      dz2     :     0.025375  d :     0.122496
      dxz     :     0.029971
      dyz     :     0.020972
      dx2y2   :     0.022855
      dxy     :     0.023324
  5 C s       :     2.836181  s :     2.836181
[...]
     43      -0.000382   0.304760  -0.305218
     44      -0.000259   0.448165  -0.448835
     45       0.033397  -0.000114   0.000073
     46      -0.025356   0.000237  -0.000161
     47      -0.033977   0.000178  -0.000127
     48       0.029725  -0.001496   0.000490
     49       0.006840  -0.000666   0.000304
     50       0.008563  -0.000362   0.000087
     51      -0.002691   0.000092  -0.000098
     52       0.004784  -0.000095   0.000125
     53      -0.012345   0.000256  -0.000362
     54      -0.002925   0.000084  -0.000095
     55      -0.014721   0.000232  -0.000384
     56       0.000575   0.000012  -0.000009
     57       0.035561  -0.001521   0.000514
     58       0.007423  -0.000144  -0.000019
     59       0.011041  -0.000757   0.000326
     60       0.039791  -0.000004   0.000030
     61      -0.027743   0.000011  -0.000030
     62      -0.041377   0.000178  -0.000157
     63      -0.002266   0.001817   0.001694
     64      -0.008320   0.002561   0.002080
     65       0.023027  -0.008435  -0.007036
     66      -0.002836   0.001340   0.001290
     67       0.025900  -0.005133  -0.004367
     68      -0.001620   0.000031  -0.000004
     69      -0.057018   0.003270   0.002792
     70       0.012561  -0.001451  -0.001244
     71       0.017210  -0.002089  -0.001795
     72       0.008756   0.000091   0.000085
     73       0.015567   0.000104   0.000120
     74      -0.042786  -0.000274  -0.000346
     75      -0.138292  -0.001489  -0.000462
     76       0.033561   0.000687   0.000300
     77       0.041459   0.000368   0.000093
     78      -0.143608  -0.000136  -0.000069
     79      -0.109820  -0.000253  -0.000149
     80      -0.138766  -0.000192  -0.000113
     81       0.000387   0.001438  -0.001403
     82       0.003799   0.005544  -0.004730
     83      -0.000149   0.000080  -0.000106
     84       0.000420   0.001656  -0.001572
     85      -0.001437  -0.002210   0.001823
     86       0.003629   0.006701  -0.005675
     87       0.009285   0.003269  -0.002859
     88       0.001931   0.001398  -0.001227
     89       0.002642   0.002019  -0.001775
     90      -0.519608   0.000042  -0.000038
     91      -0.363092   0.000019  -0.000034
     92      -0.510476  -0.000134  -0.000157
     93      -0.407914  -0.001540  -0.000522
     94       0.091630   0.000177  -0.000006
     95       0.132362   0.000795   0.000343
     96       0.039854   0.000080   0.000087
     97      -0.209170  -0.000215  -0.000392
     98       0.011669  -0.000013  -0.000000


-----------
IR SPECTRUM
-----------

 Mode   freq       eps      Int      T**2         TX        TY        TZ
       cm**-1   L/(mol*cm) km/mol    a.u.
----------------------------------------------------------------------------
  7:     21.00   0.001112    5.62  0.016523  (-0.000211  0.101471 -0.078909)
  8:     78.88   0.002302   11.64  0.009109  ( 0.000208  0.078282 -0.054602)
  9:    144.87   0.000326    1.65  0.000703  ( 0.000492 -0.016767 -0.020533)
 10:    174.06   0.000003    0.02  0.000006  ( 0.002443 -0.000252  0.000127)
 11:    233.97   0.000027    0.14  0.000036  ( 0.003396  0.003242 -0.003730)
 12:    235.92   0.000018    0.09  0.000023  ( 0.004265 -0.001361  0.001803)
 13:    265.19   0.000708    3.58  0.000833  ( 0.028868  0.000015 -0.000006)
 14:    273.64   0.000020    0.10  0.000022  (-0.003092  0.001209  0.003384)
 15:    291.80   0.000079    0.40  0.000084  ( 0.009177  0.000207  0.000272)
 16:    306.74   0.000157    0.79  0.000160  (-0.000175 -0.010071 -0.007652)
 17:    330.48   0.000010    0.05  0.000009  ( 0.001308  0.002226  0.001592)
 18:    332.05   0.000320    1.62  0.000301  ( 0.000438 -0.004956  0.016620)
 19:    334.66   0.000135    0.68  0.000126  ( 0.000386  0.009123  0.006523)
 20:    342.28   0.001484    7.50  0.001353  ( 0.000081  0.030978 -0.019831)
 21:    359.84   0.000133    0.67  0.000115  (-0.010723  0.000451 -0.000080)
 22:    366.94   0.001006    5.08  0.000856  (-0.029246 -0.000087  0.000399)
 23:    413.32   0.000244    1.23  0.000184  ( 0.013559 -0.000147 -0.000036)
 24:    446.33   0.001618    8.17  0.001131  (-0.000032  0.027735 -0.019020)
 25:    466.75   0.000195    0.99  0.000131  (-0.000121 -0.001972 -0.011257)
 26:    481.90   0.000003    0.01  0.000002  (-0.001367  0.000017 -0.000020)
 27:    534.72   0.002697   13.63  0.001574  ( 0.039669  0.000153 -0.000690)
 28:    582.84   0.000244    1.23  0.000130  (-0.000040  0.006884  0.009114)
 29:    653.96   0.004337   21.92  0.002069  (-0.045489  0.000324  0.000256)
 30:    672.93   0.000001    0.01  0.000001  (-0.000706 -0.000126  0.000117)
 31:    689.21   0.002678   13.53  0.001212  ( 0.000123  0.028929 -0.019379)
 32:    736.56   0.015237   77.00  0.006456  (-0.000170  0.066380 -0.045269)
 33:    845.66   0.000075    0.38  0.000028  (-0.000034 -0.003695 -0.003731)
 34:    855.30   0.000590    2.98  0.000215  (-0.014676  0.000084  0.000009)
 35:    879.81   0.000000    0.00  0.000000  ( 0.000362 -0.000065  0.000098)
 36:    943.50   0.000124    0.63  0.000041  (-0.003913  0.003136 -0.003996)
 37:    944.12   0.000498    2.52  0.000165  ( 0.001834  0.007941 -0.009913)
 38:    946.88   0.000804    4.06  0.000265  ( 0.015123  0.004719  0.003733)
 39:    947.27   0.000595    3.01  0.000196  (-0.007470  0.009244  0.007399)
 40:    955.94   0.000023    0.12  0.000008  (-0.002565 -0.000833 -0.000603)
 41:    956.81   0.000027    0.14  0.000009  ( 0.002449 -0.001246 -0.001134)
 42:   1008.84   0.003753   18.97  0.001161  (-0.034072  0.000234  0.000290)
 43:   1023.25   0.000590    2.98  0.000180  ( 0.000120  0.007619  0.011039)
 44:   1041.65   0.000001    0.01  0.000000  (-0.000124  0.000111  0.000563)
 45:   1041.81   0.000010    0.05  0.000003  ( 0.000542  0.000814 -0.001415)
 46:   1044.87   0.000082    0.42  0.000025  ( 0.002482  0.003140  0.002922)
 47:   1046.46   0.000253    1.28  0.000076  ( 0.008600 -0.000835 -0.000947)
 48:   1116.73   0.005635   28.48  0.001575  ( 0.000774  0.022347  0.032784)
 49:   1171.10   0.000761    3.84  0.000203  ( 0.014235 -0.000183 -0.000093)
 50:   1219.22   0.001752    8.85  0.000448  (-0.000119 -0.012249 -0.017273)
 51:   1261.10   0.000726    3.67  0.000180  (-0.000915  0.009419  0.009490)
 52:   1269.24   0.044704  225.91  0.010991  ( 0.104811 -0.002300  0.000673)
 53:   1271.20   0.004386   22.16  0.001077  ( 0.016361 -0.023308  0.016299)
 54:   1271.39   0.007334   37.06  0.001800  ( 0.037392  0.016061 -0.012005)
 55:   1274.36   0.005485   27.72  0.001343  (-0.036629  0.001121 -0.000509)
 56:   1359.60   0.000626    3.16  0.000144  (-0.011977 -0.000056  0.000453)
 57:   1380.49   0.006334   32.01  0.001432  ( 0.000420  0.027023  0.026483)
 58:   1382.86   0.002025   10.24  0.000457  (-0.000008  0.006242 -0.020448)
 59:   1383.67   0.000043    0.22  0.000010  ( 0.001827  0.002172 -0.001244)
 60:   1384.19   0.009486   47.94  0.002139  (-0.000028  0.037518 -0.027036)
 61:   1390.15   0.000003    0.01  0.000001  (-0.000409 -0.000515  0.000407)
 62:   1401.44   0.000598    3.02  0.000133  (-0.003287  0.004915  0.009914)
 63:   1404.21   0.005998   30.31  0.001333  (-0.036503 -0.000313 -0.000664)
 64:   1423.00   0.015668   79.18  0.003436  (-0.000209 -0.032429 -0.048829)
 65:   1436.83   0.000041    0.21  0.000009  (-0.002539  0.001564 -0.000227)
 66:   1436.99   0.000070    0.36  0.000015  ( 0.000864  0.003497 -0.001523)
 67:   1448.30   0.000073    0.37  0.000016  ( 0.002601 -0.002918 -0.000746)
 68:   1449.16   0.000053    0.27  0.000011  (-0.002005 -0.002667 -0.000581)
 69:   1451.46   0.000416    2.10  0.000089  ( 0.009397  0.000559  0.000898)
 70:   1451.93   0.000205    1.04  0.000044  ( 0.002296 -0.003701 -0.005005)
 71:   1458.25   0.004102   20.73  0.000878  (-0.029623 -0.000424  0.000336)
 72:   1464.82   0.004329   21.88  0.000922  (-0.028564 -0.008075  0.006422)
 73:   1465.46   0.001326    6.70  0.000282  ( 0.008936 -0.011111  0.008890)
 74:   1466.19   0.000755    3.82  0.000161  ( 0.004283  0.010687 -0.005304)
 75:   1466.37   0.012467   63.00  0.002653  (-0.051306  0.003953 -0.002292)
 76:   1481.11   0.000016    0.08  0.000003  ( 0.001736 -0.000551 -0.000245)
 77:   1482.63   0.000077    0.39  0.000016  ( 0.000072  0.003157  0.002483)
 78:   1652.19   0.000305    1.54  0.000058  (-0.000002 -0.004378 -0.006202)
 79:   3064.24   0.007985   40.35  0.000813  ( 0.001388 -0.026489  0.010468)
 80:   3064.31   0.004708   23.79  0.000479  (-0.001040 -0.019152  0.010565)
 81:   3065.49   0.003313   16.74  0.000337  (-0.001229 -0.005958 -0.017327)
 82:   3065.77   0.004317   21.82  0.000439  (-0.000089 -0.002577 -0.020803)
 83:   3070.15   0.003258   16.46  0.000331  (-0.017897  0.002451  0.002197)
 84:   3070.33   0.001406    7.11  0.000143  ( 0.010534  0.005433  0.001558)
 85:   3164.85   0.002035   10.28  0.000201  ( 0.004431 -0.007157  0.011393)
 86:   3164.90   0.001925    9.73  0.000190  ( 0.006072  0.005232 -0.011206)
 87:   3166.25   0.005147   26.01  0.000507  (-0.015535 -0.010046 -0.012844)
 88:   3166.43   0.004850   24.51  0.000478  ( 0.014042 -0.011119 -0.012536)
 89:   3168.56   0.006891   34.82  0.000679  (-0.001468 -0.022175  0.013593)
 90:   3168.75   0.006788   34.30  0.000668  (-0.001739  0.021704 -0.013941)
 91:   3175.98   0.006659   33.65  0.000654  ( 0.023194 -0.006346 -0.008723)
 92:   3176.06   0.007017   35.46  0.000689  ( 0.010360  0.013901  0.019720)
 93:   3181.70   0.002252   11.38  0.000221  ( 0.013302 -0.001553  0.006446)
 94:   3182.47   0.000915    4.62  0.000090  ( 0.007531  0.003119 -0.004822)
 95:   3185.11   0.007909   39.97  0.000775  (-0.026004  0.006349  0.007639)
 96:   3186.05   0.005072   25.63  0.000497  ( 0.019395  0.008468  0.006992)
 97:   3308.37   0.002695   13.62  0.000254  (-0.015943  0.000044  0.000138)
 98:   3327.69   0.000203    1.03  0.000019  ( 0.000248 -0.002469 -0.003594)

* The epsilon (eps) is given for a Dirac delta lineshape.
** The dipole moment derivative (T) already includes vibrational overlap.

The first frequency considered to be a vibration is 7
The total number of vibrations considered is 92


--------------------------
THERMOCHEMISTRY AT 298.15K
--------------------------

Temperature         ... 298.15 K
Pressure            ... 1.00 atm
Total Mass          ... 180.30 AMU

Throughout the following assumptions are being made:
  (1) The electronic state is orbitally nondegenerate
  (2) There are no thermally accessible electronically excited states
  (3) Hindered rotations indicated by low frequency modes are not
      treated as such but are treated as vibrations and this may
      cause some error
  (4) All equations used are the standard statistical mechanics
      equations for an ideal gas
  (5) All vibrations are strictly harmonic

freq.      21.00  E(vib)   ...       0.56 
freq.      78.88  E(vib)   ...       0.49 
freq.     144.87  E(vib)   ...       0.41 
freq.     174.06  E(vib)   ...       0.38 
freq.     233.97  E(vib)   ...       0.32 
freq.     235.92  E(vib)   ...       0.32 
freq.     265.19  E(vib)   ...       0.29 
freq.     273.64  E(vib)   ...       0.29 
freq.     291.80  E(vib)   ...       0.27 
freq.     306.74  E(vib)   ...       0.26 
freq.     330.48  E(vib)   ...       0.24 
freq.     332.05  E(vib)   ...       0.24 
freq.     334.66  E(vib)   ...       0.24 
freq.     342.28  E(vib)   ...       0.23 
freq.     359.84  E(vib)   ...       0.22 
freq.     366.94  E(vib)   ...       0.22 
freq.     413.32  E(vib)   ...       0.19 
freq.     446.33  E(vib)   ...       0.17 
freq.     466.75  E(vib)   ...       0.16 
freq.     481.90  E(vib)   ...       0.15 
freq.     534.72  E(vib)   ...       0.13 
freq.     582.84  E(vib)   ...       0.11 
freq.     653.96  E(vib)   ...       0.08 
freq.     672.93  E(vib)   ...       0.08 
freq.     689.21  E(vib)   ...       0.07 
freq.     736.56  E(vib)   ...       0.06 
freq.     845.66  E(vib)   ...       0.04 
freq.     855.30  E(vib)   ...       0.04 
freq.     879.81  E(vib)   ...       0.04 
freq.     943.50  E(vib)   ...       0.03 
freq.     944.12  E(vib)   ...       0.03 
freq.     946.88  E(vib)   ...       0.03 
freq.     947.27  E(vib)   ...       0.03 
freq.     955.94  E(vib)   ...       0.03 
freq.     956.81  E(vib)   ...       0.03 
freq.    1008.84  E(vib)   ...       0.02 
freq.    1023.25  E(vib)   ...       0.02 
freq.    1041.65  E(vib)   ...       0.02 
freq.    1041.81  E(vib)   ...       0.02 
freq.    1044.87  E(vib)   ...       0.02 
freq.    1046.46  E(vib)   ...       0.02 
freq.    1116.73  E(vib)   ...       0.01 
freq.    1171.10  E(vib)   ...       0.01 
freq.    1219.22  E(vib)   ...       0.01 
freq.    1261.10  E(vib)   ...       0.01 
freq.    1269.24  E(vib)   ...       0.01 
freq.    1271.20  E(vib)   ...       0.01 
freq.    1271.39  E(vib)   ...       0.01 
freq.    1274.36  E(vib)   ...       0.01 
freq.    1359.60  E(vib)   ...       0.01 
freq.    1380.49  E(vib)   ...       0.01 
freq.    1382.86  E(vib)   ...       0.01 
freq.    1383.67  E(vib)   ...       0.00 
freq.    1384.19  E(vib)   ...       0.00 
freq.    1390.15  E(vib)   ...       0.00 
freq.    1401.44  E(vib)   ...       0.00 
freq.    1404.21  E(vib)   ...       0.00 
freq.    1423.00  E(vib)   ...       0.00 
freq.    1436.83  E(vib)   ...       0.00 
freq.    1436.99  E(vib)   ...       0.00 
freq.    1448.30  E(vib)   ...       0.00 
freq.    1449.16  E(vib)   ...       0.00 
freq.    1451.46  E(vib)   ...       0.00 
freq.    1451.93  E(vib)   ...       0.00 
freq.    1458.25  E(vib)   ...       0.00 
freq.    1464.82  E(vib)   ...       0.00 
freq.    1465.46  E(vib)   ...       0.00 
freq.    1466.19  E(vib)   ...       0.00 
freq.    1466.37  E(vib)   ...       0.00 
freq.    1481.11  E(vib)   ...       0.00 
freq.    1482.63  E(vib)   ...       0.00 
freq.    1652.19  E(vib)   ...       0.00 
freq.    3064.24  E(vib)   ...       0.00 
freq.    3064.31  E(vib)   ...       0.00 
freq.    3065.49  E(vib)   ...       0.00 
freq.    3065.77  E(vib)   ...       0.00 
freq.    3070.15  E(vib)   ...       0.00 
freq.    3070.33  E(vib)   ...       0.00 
freq.    3164.85  E(vib)   ...       0.00 
freq.    3164.90  E(vib)   ...       0.00 
freq.    3166.25  E(vib)   ...       0.00 
freq.    3166.43  E(vib)   ...       0.00 
freq.    3168.56  E(vib)   ...       0.00 
freq.    3168.75  E(vib)   ...       0.00 
freq.    3175.98  E(vib)   ...       0.00 
freq.    3176.06  E(vib)   ...       0.00 
freq.    3181.70  E(vib)   ...       0.00 
freq.    3182.47  E(vib)   ...       0.00 
freq.    3185.11  E(vib)   ...       0.00 
freq.    3186.05  E(vib)   ...       0.00 
freq.    3308.37  E(vib)   ...       0.00 
freq.    3327.69  E(vib)   ...       0.00 

------------
INNER ENERGY
------------

The inner energy is: U= E(el) + E(ZPE) + E(vib) + E(rot) + E(trans)
    E(el)   - is the total energy from the electronic structure calculation
              = E(kin-el) + E(nuc-el) + E(el-el) + E(nuc-nuc)
    E(ZPE)  - the the zero temperature vibrational energy from the frequency calculation
    E(vib)  - the the finite temperature correction to E(ZPE) due to population
              of excited vibrational states
    E(rot)  - is the rotational thermal energy
    E(trans)- is the translational thermal energy

Summary of contributions to the inner energy U:
Electronic energy                ...   -540.18687991 Eh
Zero point energy                ...      0.29696401 Eh     186.35 kcal/mol
Thermal vibrational correction   ...      0.01072689 Eh       6.73 kcal/mol
Thermal rotational correction    ...      0.00141627 Eh       0.89 kcal/mol
Thermal translational correction ...      0.00141627 Eh       0.89 kcal/mol
-----------------------------------------------------------------------
Total thermal energy                   -539.87635646 Eh


Summary of corrections to the electronic energy:
(perhaps to be used in another calculation)
Total thermal correction                  0.01355944 Eh       8.51 kcal/mol
Non-thermal (ZPE) correction              0.29696401 Eh     186.35 kcal/mol
-----------------------------------------------------------------------
Total correction                          0.31052345 Eh     194.86 kcal/mol


--------
ENTHALPY
--------

The enthalpy is H = U + kB*T
                kB is Boltzmann's constant
Total free energy                 ...   -539.87635646 Eh 
Thermal Enthalpy correction       ...      0.00094421 Eh       0.59 kcal/mol
-----------------------------------------------------------------------
Total Enthalpy                    ...   -539.87541225 Eh


Note: Only C1 symmetry has been detected, increase convergence thresholds 
      if your molecule has a higher symmetry. Symmetry factor of 1.0 is   
      used for the rotational entropy correction. 
 

Note: Rotational entropy computed according to Herzberg 
Infrared and Raman Spectra, Chapter V,1, Van Nostrand Reinhold, 1945 
Point Group:  C1, Symmetry Number:   1  
Rotational constants in cm-1:     0.055507     0.015061     0.014048 

Vibrational entropy computed according to the QRRHO of S. Grimme
Chem.Eur.J. 2012 18 9955


-------
ENTROPY
-------

The entropy contributions are T*S = T*(S(el)+S(vib)+S(rot)+S(trans))
     S(el)   - electronic entropy
     S(vib)  - vibrational entropy
     S(rot)  - rotational entropy
     S(trans)- translational entropy
The entropies will be listed as multiplied by the temperature to get
units of energy

Electronic entropy                ...      0.00000000 Eh      0.00 kcal/mol
Vibrational entropy               ...      0.01786381 Eh     11.21 kcal/mol
Rotational entropy                ...      0.01487007 Eh      9.33 kcal/mol
Translational entropy             ...      0.01970603 Eh     12.37 kcal/mol
-----------------------------------------------------------------------
Final entropy term                ...      0.05243991 Eh     32.91 kcal/mol

In case the symmetry of your molecule has not been determined correctly
or in case you have a reason to use a different symmetry number we print 
out the resulting rotational entropy values for sn=1,12 :
 --------------------------------------------------------
|  sn= 1 | S(rot)=       0.01487007 Eh      9.33 kcal/mol|
|  sn= 2 | S(rot)=       0.01421561 Eh      8.92 kcal/mol|
|  sn= 3 | S(rot)=       0.01383278 Eh      8.68 kcal/mol|
|  sn= 4 | S(rot)=       0.01356115 Eh      8.51 kcal/mol|
|  sn= 5 | S(rot)=       0.01335047 Eh      8.38 kcal/mol|
|  sn= 6 | S(rot)=       0.01317832 Eh      8.27 kcal/mol|
|  sn= 7 | S(rot)=       0.01303278 Eh      8.18 kcal/mol|
|  sn= 8 | S(rot)=       0.01290670 Eh      8.10 kcal/mol|
|  sn= 9 | S(rot)=       0.01279549 Eh      8.03 kcal/mol|
|  sn=10 | S(rot)=       0.01269601 Eh      7.97 kcal/mol|
|  sn=11 | S(rot)=       0.01260602 Eh      7.91 kcal/mol|
|  sn=12 | S(rot)=       0.01252387 Eh      7.86 kcal/mol|
 --------------------------------------------------------


-------------------
GIBBS FREE ENERGY
-------------------

The Gibbs free energy is G = H - T*S

Total enthalpy                    ...   -539.87541225 Eh 
Total entropy correction          ...     -0.05243991 Eh    -32.91 kcal/mol
-----------------------------------------------------------------------
Final Gibbs free energy         ...   -539.92785216 Eh

For completeness - the Gibbs free energy minus the electronic energy
G-E(el)                           ...      0.25902775 Eh    162.54 kcal/mol


Timings for individual modules:

Sum of individual times         ...     6323.103 sec (= 105.385 min)
GTO integral calculation        ...        2.874 sec (=   0.048 min)   0.0 %
SCF iterations                  ...     3057.072 sec (=  50.951 min)  48.3 %
SCF Gradient evaluation         ...      753.833 sec (=  12.564 min)  11.9 %
Geometry relaxation             ...        0.537 sec (=   0.009 min)   0.0 %
Analytical frequency calculation...     2508.787 sec (=  41.813 min)  39.7 %
                             ****ORCA TERMINATED NORMALLY****
TOTAL RUN TIME: 0 days 1 hours 45 minutes 24 seconds 251 msec
