
                                 *****************
                                 * O   R   C   A *
                                 *****************

                                            #,                                       
                                            ###                                      
                                            ####                                     
                                            #####                                    
                                            ######                                   
                                           ########,                                 
                                     ,,################,,,,,                         
                               ,,#################################,,                 
                          ,,##########################################,,             
                       ,#########################################, ''#####,          
                    ,#############################################,,   '####,        
                  ,##################################################,,,,####,       
                ,###########''''           ''''###############################       
              ,#####''   ,,,,##########,,,,          '''####'''          '####       
            ,##' ,,,,###########################,,,                        '##       
           ' ,,###''''                  '''############,,,                           
         ,,##''                                '''############,,,,        ,,,,,,###''
      ,#''                                            '''#######################'''  
     '                                                          ''''####''''         
             ,#######,   #######,   ,#######,      ##                                
            ,#'     '#,  ##    ##  ,#'     '#,    #''#        ######   ,####,        
            ##       ##  ##   ,#'  ##            #'  '#       #        #'  '#        
            ##       ##  #######   ##           ,######,      #####,   #    #        
            '#,     ,#'  ##    ##  '#,     ,#' ,#      #,         ##   #,  ,#        
             '#######'   ##     ##  '#######'  #'      '#     #####' # '####'        



                  #######################################################
                  #                        -***-                        #
                  #          Department of theory and spectroscopy      #
                  #    Directorship and core code : Frank Neese         #
                  #        Max Planck Institute fuer Kohlenforschung    #
                  #                Kaiser Wilhelm Platz 1               #
                  #                 D-45470 Muelheim/Ruhr               #
                  #                      Germany                        #
                  #                                                     #
                  #                  All rights reserved                #
                  #                        -***-                        #
                  #######################################################


                         Program Version 5.0.4 -  RELEASE  -


 With contributions from (in alphabetic order):
   Daniel Aravena         : Magnetic Suceptibility
   Michael Atanasov       : Ab Initio Ligand Field Theory (pilot matlab implementation)
   Alexander A. Auer      : GIAO ZORA, VPT2 properties, NMR spectrum
   Ute Becker             : Parallelization
   Giovanni Bistoni       : ED, misc. LED, open-shell LED, HFLD
   Martin Brehm           : Molecular dynamics
   Dmytro Bykov           : SCF Hessian
   Vijay G. Chilkuri      : MRCI spin determinant printing, contributions to CSF-ICE
   Dipayan Datta          : RHF DLPNO-CCSD density
   Achintya Kumar Dutta   : EOM-CC, STEOM-CC
   Dmitry Ganyushin       : Spin-Orbit,Spin-Spin,Magnetic field MRCI
   Miquel Garcia          : C-PCM and meta-GGA Hessian, CC/C-PCM, Gaussian charge scheme
   Yang Guo               : DLPNO-NEVPT2, F12-NEVPT2, CIM, IAO-localization
   Andreas Hansen         : Spin unrestricted coupled pair/coupled cluster methods
   Benjamin Helmich-Paris : MC-RPA, TRAH-SCF, COSX integrals
   Lee Huntington         : MR-EOM, pCC
   Robert Izsak           : Overlap fitted RIJCOSX, COSX-SCS-MP3, EOM
   Marcus Kettner         : VPT2
   Christian Kollmar      : KDIIS, OOCD, Brueckner-CCSD(T), CCSD density, CASPT2, CASPT2-K
   Simone Kossmann        : Meta GGA functionals, TD-DFT gradient, OOMP2, MP2 Hessian
   Martin Krupicka        : Initial AUTO-CI
   Lucas Lang             : DCDCAS
   Marvin Lechner         : AUTO-CI (C++ implementation), FIC-MRCC
   Dagmar Lenk            : GEPOL surface, SMD
   Dimitrios Liakos       : Extrapolation schemes; Compound Job, initial MDCI parallelization
   Dimitrios Manganas     : Further ROCIS development; embedding schemes
   Dimitrios Pantazis     : SARC Basis sets
   Anastasios Papadopoulos: AUTO-CI, single reference methods and gradients
   Taras Petrenko         : DFT Hessian,TD-DFT gradient, ASA, ECA, R-Raman, ABS, FL, XAS/XES, NRVS
   Peter Pinski           : DLPNO-MP2, DLPNO-MP2 Gradient
   Christoph Reimann      : Effective Core Potentials
   Marius Retegan         : Local ZFS, SOC
   Christoph Riplinger    : Optimizer, TS searches, QM/MM, DLPNO-CCSD(T), (RO)-DLPNO pert. Triples
   Tobias Risthaus        : Range-separated hybrids, TD-DFT gradient, RPA, STAB
   Michael Roemelt        : Original ROCIS implementation
   Masaaki Saitow         : Open-shell DLPNO-CCSD energy and density
   Barbara Sandhoefer     : DKH picture change effects
   Avijit Sen             : IP-ROCIS
   Kantharuban Sivalingam : CASSCF convergence, NEVPT2, FIC-MRCI
   Bernardo de Souza      : ESD, SOC TD-DFT
   Georgi Stoychev        : AutoAux, RI-MP2 NMR, DLPNO-MP2 response
   Willem Van den Heuvel  : Paramagnetic NMR
   Boris Wezisla          : Elementary symmetry handling
   Frank Wennmohs         : Technical directorship


 We gratefully acknowledge several colleagues who have allowed us to
 interface, adapt or use parts of their codes:
   Stefan Grimme, W. Hujo, H. Kruse, P. Pracht,  : VdW corrections, initial TS optimization,
                  C. Bannwarth, S. Ehlert          DFT functionals, gCP, sTDA/sTD-DF
   Ed Valeev, F. Pavosevic, A. Kumar             : LibInt (2-el integral package), F12 methods
   Garnet Chan, S. Sharma, J. Yang, R. Olivares  : DMRG
   Ulf Ekstrom                                   : XCFun DFT Library
   Mihaly Kallay                                 : mrcc  (arbitrary order and MRCC methods)
   Jiri Pittner, Ondrej Demel                    : Mk-CCSD
   Frank Weinhold                                : gennbo (NPA and NBO analysis)
   Christopher J. Cramer and Donald G. Truhlar   : smd solvation model
   Lars Goerigk                                  : TD-DFT with DH, B97 family of functionals
   V. Asgeirsson, H. Jonsson                     : NEB implementation
   FAccTs GmbH                                   : IRC, NEB, NEB-TS, DLPNO-Multilevel, CI-OPT
                                                   MM, QMMM, 2- and 3-layer-ONIOM, Crystal-QMMM,
                                                   LR-CPCM, SF, NACMEs, symmetry and pop. for TD-DFT,
                                                   nearIR, NL-DFT gradient (VV10), updates on ESD,
                                                   ML-optimized integration grids
   S Lehtola, MJT Oliveira, MAL Marques          : LibXC Library
   Liviu Ungur et al                             : ANISO software


 Your calculation uses the libint2 library for the computation of 2-el integrals
 For citations please refer to: http://libint.valeyev.net

 Your ORCA version has been built with support for libXC version: 5.1.0
 For citations please refer to: https://tddft.org/programs/libxc/

 This ORCA versions uses:
   CBLAS   interface :  Fast vector & matrix operations
   LAPACKE interface :  Fast linear algebra routines
   SCALAPACK package :  Parallel linear algebra routines
   Shared memory     :  Shared parallel matrices
   BLAS/LAPACK       :  OpenBLAS 0.3.15  USE64BITINT DYNAMIC_ARCH NO_AFFINITY SkylakeX SINGLE_THREADED
        Core in use  :  SkylakeX
   Copyright (c) 2011-2014, The OpenBLAS Project




***************************************
The coordinates will be read from file: 5_deprot_aq_1.xyz
***************************************


Your calculation utilizes the atom-pairwise dispersion correction
based on tight binding partial charges (D4)
Cite in your paper:
E.Caldeweyher, C.Bannwarth, S.Grimme, J.Chem.Phys., (2017), 147, 034112.
E.Caldeweyher, S.Ehlert, A.Hansen, H.Neugebauer, S.Grimme, J.Chem.Phys., (2018), in progress.
   

XCFun DFT library Copyright 2009-2010 Ulf Ekstrom and contributors.
See http://admol.org/xcfun for more information.
This is free software; see the source code for copying conditions.
There is ABSOLUTELY NO WARRANTY; not even for MERCHANTABILITY or FITNESS FOR A PARTICULAR PURPOSE.
For details see the documentation.
Scientific users of this library should cite U. Ekstrom, L. Visscher, R. Bast, A. J. Thorvaldsen and K. Ruud;
J.Chem.Theor.Comp. 2010, DOI: 10.1021/ct100117s
XCFun Version 0.99 

================================================================================

----- Orbital basis set information -----
Your calculation utilizes the basis: def2-SVP
   F. Weigend and R. Ahlrichs, Phys. Chem. Chem. Phys. 7, 3297 (2005).

----- AuxJ basis set information -----
Your calculation utilizes the auxiliary basis: def2/J
   F. Weigend, Phys. Chem. Chem. Phys. 8, 1057 (2006).

================================================================================
                                        WARNINGS
                       Please study these warnings very carefully!
================================================================================


WARNING: Geometry Optimization
  ===> : Switching off AutoStart
         For restart on a previous wavefunction, please use MOREAD

INFO   : the flag for use of the SHARK integral package has been found!

================================================================================
                                       INPUT FILE
================================================================================
NAME = 5_deprot_aq_1.inp
|  1> # ORCA 5.0.4 - /users/bwb16179/postgrad/2024_03/DFT_Crest_Conformers/Opt/deprot/5_deprot_aq_1.inp # write input file
|  2> # Basic Mode
|  3> #
|  4> ! Opt Freq wB97X Def2-SVP D4 SlowConv TightSCF Defgrid2 Def2/J RIJCOSX CPCM(Water)
|  5> 
|  6> 
|  7> 
|  8> %maxcore 4500
|  9> 
| 10> %geom
| 11> Maxiter 150
| 12> END
| 13> 
| 14> * xyzfile 0 1 5_deprot_aq_1.xyz
| 15> 
| 16>                          ****END OF INPUT****
================================================================================

                       *****************************
                       * Geometry Optimization Run *
                       *****************************

Geometry optimization settings:
Update method            Update   .... BFGS
Choice of coordinates    CoordSys .... Z-matrix Internals
Initial Hessian          InHess   .... Almoef's Model

Convergence Tolerances:
Energy Change            TolE     ....  5.0000e-06 Eh
Max. Gradient            TolMAXG  ....  3.0000e-04 Eh/bohr
RMS Gradient             TolRMSG  ....  1.0000e-04 Eh/bohr
Max. Displacement        TolMAXD  ....  4.0000e-03 bohr
RMS Displacement         TolRMSD  ....  2.0000e-03 bohr
Strict Convergence                ....  False
------------------------------------------------------------------------------
                        ORCA OPTIMIZATION COORDINATE SETUP
------------------------------------------------------------------------------

The optimization will be done in new redundant internal coordinates
Making redundant internal coordinates   ...  (new redundants) done
Evaluating the initial hessian          ...  (Almloef) done
Evaluating the coordinates              ...  done
Calculating the B-matrix                .... done
Calculating the G-matrix                .... done
Diagonalizing the G-matrix              .... done
Small eigenvalue found = 1.007e-02
Small eigenvalue found = 2.375e-02
The first mode is                       ....   83
The number of degrees of freedom        ....   93

    -----------------------------------------------------------------
                    Redundant Internal Coordinates


    -----------------------------------------------------------------
         Definition                    Initial Value    Approx d2E/dq
    -----------------------------------------------------------------
      1. B(C   1,N   0)                  1.3578         0.629889   
      2. B(N   2,C   1)                  1.3578         0.629795   
      3. B(C   3,N   2)                  1.3741         0.593178   
      4. B(C   4,N   0)                  1.3742         0.593096   
      5. B(C   4,C   3)                  1.3505         0.722281   
      6. B(C   5,N   0)                  1.4518         0.445912   
      7. B(C   6,N   2)                  1.4518         0.445934   
      8. B(C   7,C   5)                  1.5337         0.368473   
      9. B(C   8,C   5)                  1.5337         0.368464   
     10. B(C   9,C   5)                  1.5283         0.375956   
     11. B(C  10,C   6)                  1.5338         0.368457   
     12. B(C  11,C   6)                  1.5337         0.368466   
     13. B(C  12,C   6)                  1.5283         0.375950   
     14. B(H  13,C   3)                  1.0710         0.386133   
     15. B(H  14,C   4)                  1.0710         0.386143   
     16. B(H  15,C   9)                  1.0856         0.365980   
     17. B(H  16,C   9)                  1.0856         0.365992   
     18. B(H  17,C   9)                  1.0869         0.364172   
     19. B(H  18,C   7)                  1.0876         0.363259   
     20. B(H  19,C   7)                  1.0869         0.364183   
     21. B(H  20,C   7)                  1.0879         0.362841   
     22. B(H  21,C  12)                  1.0856         0.365977   
     23. B(H  22,C  12)                  1.0856         0.365993   
     24. B(H  23,C  12)                  1.0869         0.364173   
     25. B(H  24,C  11)                  1.0869         0.364198   
     26. B(H  25,C  11)                  1.0876         0.363280   
     27. B(H  26,C  11)                  1.0879         0.362824   
     28. B(H  27,C   8)                  1.0869         0.364200   
     29. B(H  28,C   8)                  1.0876         0.363285   
     30. B(H  29,C   8)                  1.0879         0.362828   
     31. B(H  30,C  10)                  1.0869         0.364202   
     32. B(H  31,C  10)                  1.0879         0.362832   
     33. B(H  32,C  10)                  1.0876         0.363269   
     34. A(C   1,N   0,C   4)          111.5427         0.426225   
     35. A(C   4,N   0,C   5)          124.0814         0.400865   
     36. A(C   1,N   0,C   5)          124.3760         0.405142   
     37. A(N   0,C   1,N   2)          103.7136         0.430839   
     38. A(C   1,N   2,C   3)          111.5412         0.426225   
     39. A(C   1,N   2,C   6)          124.3768         0.405135   
     40. A(C   3,N   2,C   6)          124.0820         0.400878   
     41. A(C   4,C   3,H  13)          129.7078         0.366539   
     42. A(N   2,C   3,C   4)          106.6030         0.439733   
     43. A(N   2,C   3,H  13)          123.6892         0.352257   
     44. A(N   0,C   4,C   3)          106.5996         0.439722   
     45. A(N   0,C   4,H  14)          123.6843         0.352250   
     46. A(C   3,C   4,H  14)          129.7161         0.366541   
     47. A(N   0,C   5,C   7)          109.2427         0.371336   
     48. A(N   0,C   5,C   9)          108.9147         0.372624   
     49. A(C   7,C   5,C   8)          110.2518         0.361648   
     50. A(N   0,C   5,C   8)          109.2459         0.371334   
     51. A(C   8,C   5,C   9)          109.5797         0.362891   
     52. A(C   7,C   5,C   9)          109.5832         0.362893   
     53. A(C  10,C   6,C  11)          110.2524         0.361645   
     54. A(N   2,C   6,C  11)          109.2484         0.371338   
     55. A(C  11,C   6,C  12)          109.5797         0.362890   
     56. A(C  10,C   6,C  12)          109.5859         0.362889   
     57. A(N   2,C   6,C  12)          108.9130         0.372626   
     58. A(N   2,C   6,C  10)          109.2385         0.371336   
     59. A(H  19,C   7,H  20)          108.6765         0.291703   
     60. A(H  18,C   7,H  20)          108.4771         0.291586   
     61. A(C   5,C   7,H  20)          109.9733         0.323991   
     62. A(H  18,C   7,H  19)          108.3961         0.291756   
     63. A(C   5,C   7,H  19)          110.1125         0.324187   
     64. A(C   5,C   7,H  18)          111.1431         0.324052   
     65. A(H  27,C   8,H  28)          108.3906         0.291761   
     66. A(C   5,C   8,H  28)          111.1502         0.324054   
     67. A(C   5,C   8,H  27)          110.1108         0.324188   
     68. A(H  28,C   8,H  29)          108.4784         0.291588   
     69. A(H  27,C   8,H  29)          108.6748         0.291703   
     70. A(C   5,C   8,H  29)          109.9736         0.323987   
     71. A(H  16,C   9,H  17)          109.3528         0.292098   
     72. A(H  15,C   9,H  16)          107.9442         0.292326   
     73. A(C   5,C   9,H  16)          110.1195         0.325525   
     74. A(C   5,C   9,H  15)          110.1203         0.325523   
     75. A(C   5,C   9,H  17)          109.9203         0.325258   
     76. A(H  15,C   9,H  17)          109.3496         0.292097   
     77. A(H  31,C  10,H  32)          108.4770         0.291586   
     78. A(H  30,C  10,H  32)          108.3950         0.291759   
     79. A(H  30,C  10,H  31)          108.6767         0.291704   
     80. A(C   6,C  10,H  31)          109.9727         0.323987   
     81. A(C   6,C  10,H  30)          110.1128         0.324187   
     82. A(C   6,C  10,H  32)          111.1444         0.324051   
     83. A(H  25,C  11,H  26)          108.4794         0.291587   
     84. A(H  24,C  11,H  26)          108.6751         0.291703   
     85. A(C   6,C  11,H  26)          109.9750         0.323987   
     86. A(H  24,C  11,H  25)          108.3895         0.291760   
     87. A(C   6,C  11,H  25)          111.1510         0.324054   
     88. A(C   6,C  11,H  24)          110.1084         0.324188   
     89. A(H  22,C  12,H  23)          109.3523         0.292099   
     90. A(H  21,C  12,H  23)          109.3503         0.292097   
     91. A(C   6,C  12,H  23)          109.9229         0.325257   
     92. A(H  21,C  12,H  22)          107.9440         0.292326   
     93. A(C   6,C  12,H  22)          110.1183         0.325524   
     94. A(C   6,C  12,H  21)          110.1189         0.325522   
     95. D(N   2,C   1,N   0,C   5)   -179.9996         0.029178   
     96. D(N   2,C   1,N   0,C   4)      0.0033         0.029178   
     97. D(C   3,N   2,C   1,N   0)      0.0006         0.029168   
     98. D(C   6,N   2,C   1,N   0)    179.9738         0.029168   
     99. D(C   4,C   3,N   2,C   1)     -0.0042         0.028307   
    100. D(H  13,C   3,N   2,C   1)    179.9972         0.028307   
    101. D(H  13,C   3,N   2,C   6)      0.0239         0.028307   
    102. D(C   4,C   3,N   2,C   6)   -179.9775         0.028307   
    103. D(H  14,C   4,C   3,H  13)      0.0033         0.036944   
    104. D(H  14,C   4,N   0,C   5)     -0.0021         0.028298   
    105. D(N   0,C   4,C   3,N   2)      0.0060         0.036944   
    106. D(N   0,C   4,C   3,H  13)   -179.9956         0.036944   
    107. D(C   3,C   4,N   0,C   5)    179.9969         0.028298   
    108. D(H  14,C   4,C   3,N   2)   -179.9951         0.036944   
    109. D(C   3,C   4,N   0,C   1)     -0.0060         0.028298   
    110. D(H  14,C   4,N   0,C   1)    179.9951         0.028298   
    111. D(C   8,C   5,N   0,C   1)    119.7610         0.016959   
    112. D(C   9,C   5,N   0,C   4)   -179.9022         0.016959   
    113. D(C   8,C   5,N   0,C   4)    -60.2422         0.016959   
    114. D(C   9,C   5,N   0,C   1)      0.1010         0.016959   
    115. D(C   7,C   5,N   0,C   1)   -119.5613         0.016959   
    116. D(C   7,C   5,N   0,C   4)     60.4354         0.016959   
    117. D(C  12,C   6,N   2,C   3)   -179.8993         0.016960   
    118. D(C  11,C   6,N   2,C   3)    -60.2387         0.016960   
    119. D(C  11,C   6,N   2,C   1)    119.7914         0.016960   
    120. D(C  12,C   6,N   2,C   1)      0.1308         0.016960   
    121. D(C  10,C   6,N   2,C   3)     60.4386         0.016960   
    122. D(C  10,C   6,N   2,C   1)   -119.5313         0.016960   
    123. D(H  18,C   7,C   5,C   8)     57.9410         0.010859   
    124. D(H  18,C   7,C   5,N   0)    -62.1203         0.010859   
    125. D(H  18,C   7,C   5,C   9)    178.6308         0.010859   
    126. D(H  20,C   7,C   5,C   9)    -61.2302         0.010859   
    127. D(H  20,C   7,C   5,C   8)    178.0801         0.010859   
    128. D(H  20,C   7,C   5,N   0)     58.0188         0.010859   
    129. D(H  19,C   7,C   5,C   9)     58.5013         0.010859   
    130. D(H  19,C   7,C   5,C   8)    -62.1884         0.010859   
    131. D(H  19,C   7,C   5,N   0)    177.7503         0.010859   
    132. D(H  29,C   8,C   5,C   9)     61.4119         0.010859   
    133. D(H  29,C   8,C   5,C   7)   -177.8963         0.010859   
    134. D(H  29,C   8,C   5,N   0)    -57.8370         0.010859   
    135. D(H  28,C   8,C   5,C   9)   -178.4425         0.010859   
    136. D(H  28,C   8,C   5,C   7)    -57.7507         0.010859   
    137. D(H  28,C   8,C   5,N   0)     62.3086         0.010859   
    138. D(H  27,C   8,C   5,C   9)    -58.3165         0.010859   
    139. D(H  27,C   8,C   5,C   7)     62.3753         0.010859   
    140. D(H  27,C   8,C   5,N   0)   -177.5654         0.010859   
    141. D(H  17,C   9,C   5,C   7)    -60.5140         0.011278   
    142. D(H  17,C   9,C   5,N   0)   -179.9647         0.011278   
    143. D(H  16,C   9,C   5,C   8)   -178.8775         0.011278   
    144. D(H  16,C   9,C   5,C   7)     60.0258         0.011278   
    145. D(H  16,C   9,C   5,N   0)    -59.4249         0.011278   
    146. D(H  15,C   9,C   5,C   8)    -59.9538         0.011278   
    147. D(H  15,C   9,C   5,C   7)    178.9495         0.011278   
    148. D(H  17,C   9,C   5,C   8)     60.5827         0.011278   
    149. D(H  15,C   9,C   5,N   0)     59.4988         0.011278   
    150. D(H  32,C  10,C   6,N   2)    -62.2252         0.010858   
    151. D(H  31,C  10,C   6,C  12)    -61.3317         0.010858   
    152. D(H  31,C  10,C   6,C  11)    177.9764         0.010858   
    153. D(H  31,C  10,C   6,N   2)     57.9143         0.010858   
    154. D(H  30,C  10,C   6,C  12)     58.3997         0.010858   
    155. D(H  30,C  10,C   6,C  11)    -62.2921         0.010858   
    156. D(H  32,C  10,C   6,C  11)     57.8370         0.010858   
    157. D(H  30,C  10,C   6,N   2)    177.6457         0.010858   
    158. D(H  32,C  10,C   6,C  12)    178.5288         0.010858   
    159. D(H  26,C  11,C   6,C  12)     61.4615         0.010859   
    160. D(H  26,C  11,C   6,C  10)   -177.8430         0.010859   
    161. D(H  26,C  11,C   6,N   2)    -57.7868         0.010859   
    162. D(H  25,C  11,C   6,C  12)   -178.3903         0.010859   
    163. D(H  25,C  11,C   6,C  10)    -57.6947         0.010859   
    164. D(H  25,C  11,C   6,N   2)     62.3614         0.010859   
    165. D(H  24,C  11,C   6,C  12)    -58.2667         0.010859   
    166. D(H  24,C  11,C   6,C  10)     62.4289         0.010859   
    167. D(H  24,C  11,C   6,N   2)   -177.5150         0.010859   
    168. D(H  23,C  12,C   6,C  11)     60.5407         0.011278   
    169. D(H  23,C  12,C   6,C  10)    -60.5584         0.011278   
    170. D(H  23,C  12,C   6,N   2)    179.9953         0.011278   
    171. D(H  22,C  12,C   6,C  11)   -178.9192         0.011278   
    172. D(H  22,C  12,C   6,C  10)     59.9817         0.011278   
    173. D(H  22,C  12,C   6,N   2)    -59.4645         0.011278   
    174. D(H  21,C  12,C   6,C  11)    -59.9974         0.011278   
    175. D(H  21,C  12,C   6,C  10)    178.9035         0.011278   
    176. D(H  21,C  12,C   6,N   2)     59.4573         0.011278   
    -----------------------------------------------------------------

Number of atoms                         .... 33
Number of degrees of freedom            .... 176

         *************************************************************
         *                GEOMETRY OPTIMIZATION CYCLE   1            *
         *************************************************************
---------------------------------
CARTESIAN COORDINATES (ANGSTROEM)
---------------------------------
  N     -1.067862    0.214153   -0.000096
  C     -0.000013   -0.624472   -0.000298
  N      1.067891    0.214150   -0.000315
  C      0.675286    1.531007   -0.000116
  C     -0.675246    1.531046   -0.000064
  C     -2.452637   -0.221935    0.000007
  C      2.452648   -0.221950    0.000044
  C     -3.149494    0.307780   -1.259421
  C     -3.150620    0.311664    1.257179
  C     -2.490900   -1.749724    0.002400
  C      3.148861    0.307363    1.260012
  C      3.151254    0.312064   -1.256604
  C      2.490850   -1.749744   -0.002870
  H      1.359542    2.354920   -0.000049
  H     -1.359569    2.354896    0.000007
  H     -1.983410   -2.134611    0.881504
  H     -1.981537   -2.137389   -0.874387
  H     -3.521756   -2.094359    0.001878
  H     -3.157976    1.395257   -1.275087
  H     -4.177424   -0.043796   -1.293693
  H     -2.630557   -0.045811   -2.147837
  H      1.983091   -2.134292   -0.881970
  H      1.981685   -2.137661    0.873919
  H      3.521675   -2.094466   -0.002725
  H      4.177948   -0.042882   -1.292749
  H      3.163627    1.399555   -1.266569
  H      2.631111   -0.035052   -2.146881
  H     -4.177580   -0.042511    1.293279
  H     -3.162127    1.399153    1.267968
  H     -2.630563   -0.036520    2.147085
  H      4.176219   -0.045703    1.295627
  H      2.628385   -0.045033    2.148010
  H      3.158946    1.394825    1.275171

----------------------------
CARTESIAN COORDINATES (A.U.)
----------------------------
  NO LB      ZA    FRAG     MASS         X           Y           Z
   0 N     7.0000    0    14.007   -2.017967    0.404691   -0.000181
   1 C     6.0000    0    12.011   -0.000024   -1.180081   -0.000563
   2 N     7.0000    0    14.007    2.018021    0.404685   -0.000594
   3 C     6.0000    0    12.011    1.276106    2.893183   -0.000219
   4 C     6.0000    0    12.011   -1.276030    2.893259   -0.000122
   5 C     6.0000    0    12.011   -4.634813   -0.419396    0.000013
   6 C     6.0000    0    12.011    4.634833   -0.419424    0.000083
   7 C     6.0000    0    12.011   -5.951682    0.581620   -2.379962
   8 C     6.0000    0    12.011   -5.953808    0.588960    2.375723
   9 C     6.0000    0    12.011   -4.707118   -3.306500    0.004535
  10 C     6.0000    0    12.011    5.950485    0.580832    2.381078
  11 C     6.0000    0    12.011    5.955007    0.589715   -2.374637
  12 C     6.0000    0    12.011    4.707024   -3.306537   -0.005423
  13 H     1.0000    0     1.008    2.569163    4.450155   -0.000092
  14 H     1.0000    0     1.008   -2.569214    4.450108    0.000013
  15 H     1.0000    0     1.008   -3.748102   -4.033830    1.665802
  16 H     1.0000    0     1.008   -3.744562   -4.039079   -1.652352
  17 H     1.0000    0     1.008   -6.655154   -3.957765    0.003550
  18 H     1.0000    0     1.008   -5.967710    2.636653   -2.409566
  19 H     1.0000    0     1.008   -7.894187   -0.082762   -2.444725
  20 H     1.0000    0     1.008   -4.971033   -0.086570   -4.058823
  21 H     1.0000    0     1.008    3.747499   -4.033227   -1.666681
  22 H     1.0000    0     1.008    3.744841   -4.039594    1.651468
  23 H     1.0000    0     1.008    6.655002   -3.957968   -0.005149
  24 H     1.0000    0     1.008    7.895178   -0.081036   -2.442941
  25 H     1.0000    0     1.008    5.978389    2.644775   -2.393469
  26 H     1.0000    0     1.008    4.972079   -0.066240   -4.057017
  27 H     1.0000    0     1.008   -7.894482   -0.080334    2.443943
  28 H     1.0000    0     1.008   -5.975553    2.644016    2.396112
  29 H     1.0000    0     1.008   -4.971043   -0.069012    4.057403
  30 H     1.0000    0     1.008    7.891910   -0.086366    2.448381
  31 H     1.0000    0     1.008    4.966928   -0.085099    4.059152
  32 H     1.0000    0     1.008    5.969543    2.635838    2.409724

--------------------------------
INTERNAL COORDINATES (ANGSTROEM)
--------------------------------
 N      0   0   0     0.000000000000     0.00000000     0.00000000
 C      1   0   0     1.357790412102     0.00000000     0.00000000
 N      2   1   0     1.357830798043   103.71356866     0.00000000
 C      3   2   1     1.374136057995   111.54115127     0.00000000
 C      4   3   2     1.350532551560   106.60299035     0.00000000
 C      1   2   3     1.451818052030   124.37595962   180.00044841
 C      3   2   1     1.451804246795   124.37683631   179.97377996
 C      6   1   2     1.533743052368   109.24266575   240.43865208
 C      6   1   2     1.533749746533   109.24594499   119.76104525
 C      6   1   2     1.528270426073   108.91468015     0.10098463
 C      7   3   2     1.533754756052   109.23850387   240.46870798
 C      7   3   2     1.533748163230   109.24844568   119.79135961
 C      7   3   2     1.528274842586   108.91298476     0.13083571
 H      4   3   2     1.070999700803   123.68924121   179.99719324
 H      5   4   3     1.070992808511   129.71609903   180.00485301
 H     10   6   1     1.085591205565   110.12034876    59.49882854
 H     10   6   1     1.085582197851   110.11945309   300.57511815
 H     10   6   1     1.086939369800   109.92032182   180.03529356
 H      8   6   1     1.087622294024   111.14309490   297.87972776
 H      8   6   1     1.086931054045   110.11248912   177.75025507
 H      8   6   1     1.087935580390   109.97326234    58.01878340
 H     13   7   3     1.085593014893   110.11888930    59.45725441
 H     13   7   3     1.085581701740   110.11828351   300.53547553
 H     13   7   3     1.086938420137   109.92292472   179.99533679
 H     12   7   3     1.086919660196   110.10835080   182.48503815
 H     12   7   3     1.087606815174   111.15102662    62.36142751
 H     12   7   3     1.087948334778   109.97504876   302.21320482
 H      9   6   1     1.086917940311   110.11082131   182.43460695
 H      9   6   1     1.087602824969   111.15023212    62.30859806
 H      9   6   1     1.087945400547   109.97358364   302.16303831
 H     11   7   3     1.086916809962   110.11276742   177.64573739
 H     11   7   3     1.087942438050   109.97271848    57.91426122
 H     11   7   3     1.087614900917   111.14439290   297.77479224

---------------------------
INTERNAL COORDINATES (A.U.)
---------------------------
 N      0   0   0     0.000000000000     0.00000000     0.00000000
 C      1   0   0     2.565852026136     0.00000000     0.00000000
 N      2   1   0     2.565928344504   103.71356866     0.00000000
 C      3   2   1     2.596740820356   111.54115127     0.00000000
 C      4   3   2     2.552136657395   106.60299035     0.00000000
 C      1   2   3     2.743538514620   124.37595962   180.00044841
 C      3   2   1     2.743512426507   124.37683631   179.97377996
 C      6   1   2     2.898354328779   109.24266575   240.43865208
 C      6   1   2     2.898366978918   109.24594499   119.76104525
 C      6   1   2     2.888012563848   108.91468015     0.10098463
 C      7   3   2     2.898376445537   109.23850387   240.46870798
 C      7   3   2     2.898363986910   109.24844568   119.79135961
 C      7   3   2     2.888020909849   108.91298476     0.13083571
 H      4   3   2     2.023896124029   123.68924121   179.99719324
 H      5   4   3     2.023883099485   129.71609903   180.00485301
 H     10   6   1     2.051470071911   110.12034876    59.49882854
 H     10   6   1     2.051453049798   110.11945309   300.57511815
 H     10   6   1     2.054017733098   109.92032182   180.03529356
 H      8   6   1     2.055308272852   111.14309490   297.87972776
 H      8   6   1     2.054002018600   110.11248912   177.75025507
 H      8   6   1     2.055900298285   109.97326234    58.01878340
 H     13   7   3     2.051473491045   110.11888930    59.45725441
 H     13   7   3     2.051452112284   110.11828351   300.53547553
 H     13   7   3     2.054015938496   109.92292472   179.99533679
 H     12   7   3     2.053980487344   110.10835080   182.48503815
 H     12   7   3     2.055279022066   111.15102662    62.36142751
 H     12   7   3     2.055924400586   109.97504876   302.21320482
 H      9   6   1     2.053977237233   110.11082131   182.43460695
 H      9   6   1     2.055271481671   111.15023212    62.30859806
 H      9   6   1     2.055918855693   109.97358364   302.16303831
 H     11   7   3     2.053975101184   110.11276742   177.64573739
 H     11   7   3     2.055913257386   109.97271848    57.91426122
 H     11   7   3     2.055294301906   111.14439290   297.77479224

---------------------
BASIS SET INFORMATION
---------------------
There are 3 groups of distinct atoms

 Group   1 Type N   : 7s4p1d contracted to 3s2p1d pattern {511/31/1}
 Group   2 Type C   : 7s4p1d contracted to 3s2p1d pattern {511/31/1}
 Group   3 Type H   : 4s1p contracted to 2s1p pattern {31/1}

Atom   0N    basis set group =>   1
Atom   1C    basis set group =>   2
Atom   2N    basis set group =>   1
Atom   3C    basis set group =>   2
Atom   4C    basis set group =>   2
Atom   5C    basis set group =>   2
Atom   6C    basis set group =>   2
Atom   7C    basis set group =>   2
Atom   8C    basis set group =>   2
Atom   9C    basis set group =>   2
Atom  10C    basis set group =>   2
Atom  11C    basis set group =>   2
Atom  12C    basis set group =>   2
Atom  13H    basis set group =>   3
Atom  14H    basis set group =>   3
Atom  15H    basis set group =>   3
Atom  16H    basis set group =>   3
Atom  17H    basis set group =>   3
Atom  18H    basis set group =>   3
Atom  19H    basis set group =>   3
Atom  20H    basis set group =>   3
Atom  21H    basis set group =>   3
Atom  22H    basis set group =>   3
Atom  23H    basis set group =>   3
Atom  24H    basis set group =>   3
Atom  25H    basis set group =>   3
Atom  26H    basis set group =>   3
Atom  27H    basis set group =>   3
Atom  28H    basis set group =>   3
Atom  29H    basis set group =>   3
Atom  30H    basis set group =>   3
Atom  31H    basis set group =>   3
Atom  32H    basis set group =>   3
---------------------------------
AUXILIARY/J BASIS SET INFORMATION
---------------------------------
There are 3 groups of distinct atoms

 Group   1 Type N   : 12s5p4d2f1g contracted to 6s4p3d1f1g pattern {711111/2111/211/2/1}
 Group   2 Type C   : 12s5p4d2f1g contracted to 6s4p3d1f1g pattern {711111/2111/211/2/1}
 Group   3 Type H   : 5s2p1d contracted to 3s1p1d pattern {311/2/1}

Atom   0N    basis set group =>   1
Atom   1C    basis set group =>   2
Atom   2N    basis set group =>   1
Atom   3C    basis set group =>   2
Atom   4C    basis set group =>   2
Atom   5C    basis set group =>   2
Atom   6C    basis set group =>   2
Atom   7C    basis set group =>   2
Atom   8C    basis set group =>   2
Atom   9C    basis set group =>   2
Atom  10C    basis set group =>   2
Atom  11C    basis set group =>   2
Atom  12C    basis set group =>   2
Atom  13H    basis set group =>   3
Atom  14H    basis set group =>   3
Atom  15H    basis set group =>   3
Atom  16H    basis set group =>   3
Atom  17H    basis set group =>   3
Atom  18H    basis set group =>   3
Atom  19H    basis set group =>   3
Atom  20H    basis set group =>   3
Atom  21H    basis set group =>   3
Atom  22H    basis set group =>   3
Atom  23H    basis set group =>   3
Atom  24H    basis set group =>   3
Atom  25H    basis set group =>   3
Atom  26H    basis set group =>   3
Atom  27H    basis set group =>   3
Atom  28H    basis set group =>   3
Atom  29H    basis set group =>   3
Atom  30H    basis set group =>   3
Atom  31H    basis set group =>   3
Atom  32H    basis set group =>   3
------------------------------------------------------------------------------
                           ORCA GTO INTEGRAL CALCULATION
                           -- RI-GTO INTEGRALS CHOSEN --
------------------------------------------------------------------------------
------------------------------------------------------------------------------
                   ___                                                        
                  /   \      - P O W E R E D   B Y -                         
                 /     \                                                     
                 |  |  |   _    _      __       _____    __    __             
                 |  |  |  | |  | |    /  \     |  _  \  |  |  /  |          
                  \  \/   | |  | |   /    \    | | | |  |  | /  /          
                 / \  \   | |__| |  /  /\  \   | |_| |  |  |/  /          
                |  |  |   |  __  | /  /__\  \  |    /   |      \           
                |  |  |   | |  | | |   __   |  |    \   |  |\   \          
                \     /   | |  | | |  |  |  |  | |\  \  |  | \   \       
                 \___/    |_|  |_| |__|  |__|  |_| \__\ |__|  \__/        
                                                                              
                      - O R C A' S   B I G   F R I E N D -                    
                                      &                                       
                       - I N T E G R A L  F E E D E R -                       
                                                                              
 v1 FN, 2020, v2 2021                                                         
------------------------------------------------------------------------------


Reading SHARK input file 5_deprot_aq_1.SHARKINP.tmp ... ok
----------------------
SHARK INTEGRAL PACKAGE
----------------------

Number of atoms                             ...     33
Number of basis functions                   ...    282
Number of shells                            ...    138
Maximum angular momentum                    ...      2
Integral batch strategy                     ... SHARK/LIBINT Hybrid
RI-J (if used) integral strategy            ... SPLIT-RIJ (Revised 2003 algorithm where possible)
Printlevel                                  ...      1
Contraction scheme used                     ... SEGMENTED contraction
Coulomb Range Separation                    ... NOT USED
Exchange Range Separation                   ... Long Range
   Mu parameter                             ...  0.300000
   Scaling (regular/separated)              ...  0.157706  0.842294
Finite Nucleus Model                        ... NOT USED
Auxiliary Coulomb fitting basis             ... AVAILABLE
   # of basis functions in Aux-J            ...    857
   # of shells in Aux-J                     ...    295
   Maximum angular momentum in Aux-J        ...      4
Auxiliary J/K fitting basis                 ... NOT available
Auxiliary Correlation fitting basis         ... NOT available
Auxiliary 'external' fitting basis          ... NOT available
Integral threshold                          ...     2.500000e-11
Primitive cut-off                           ...     2.500000e-12
Primitive pair pre-selection threshold      ...     2.500000e-12

Calculating pre-screening integrals         ... done (  0.0 sec) Dimension = 138
Organizing shell pair data                  ... done (  0.0 sec)
Shell pair information
Total number of shell pairs                 ...      9591
Shell pairs after pre-screening             ...      8204
Total number of primitive shell pairs       ...     33125
Primitive shell pairs kept                  ...     19763
          la=0 lb=0:   2792 shell pairs
          la=1 lb=0:   3100 shell pairs
          la=1 lb=1:    890 shell pairs
          la=2 lb=0:    863 shell pairs
          la=2 lb=1:    484 shell pairs
          la=2 lb=2:     75 shell pairs

Calculating one electron integrals          ... done (  0.1 sec)
Calculating RI/J V-Matrix + Cholesky decomp.... done (  0.0 sec)
Calculating Nuclear repulsion               ... done (  0.0 sec) ENN=    860.883809200636 Eh

SHARK setup successfully completed in   0.3 seconds

Maximum memory used throughout the entire GTOINT-calculation: 47.7 MB
-------------------------------------------------------------------------------
                                 ORCA SCF
-------------------------------------------------------------------------------

------------
SCF SETTINGS
------------
Hamiltonian:
 Density Functional     Method          .... DFT(GTOs)
 Exchange Functional    Exchange        .... WB97X
 Correlation Functional Correlation     .... WB97X
 Gradients option       PostSCFGGA      .... off
 Hybrid DFT is turned on
   Fraction HF Exchange ScalHFX         ....  0.157706
   Scaling of DF-GGA-X  ScalDFX         ....  0.000000
   Scaling of DF-GGA-C  ScalDFC         ....  1.000000
   Scaling of DF-LDA-C  ScalLDAC        ....  1.000000
   Perturbative correction              ....  0.000000
   Density functional embedding theory  .... OFF
 Long-range corrected/Screened/Range-Separated Hybrid DFT is turned on
   Amount of maximum screened exact exchange              ....  0.842294
   Range separation parameter mu (erf(mu*r12)/r12)        ....  0.300000
 RI-approximation to the Coulomb term is turned on
   Number of AuxJ basis functions       .... 857
   RIJ-COSX (HFX calculated with COS-X)).... on


General Settings:
 Integral files         IntName         .... 5_deprot_aq_1
 Hartree-Fock type      HFTyp           .... RHF
 Total Charge           Charge          ....    0
 Multiplicity           Mult            ....    1
 Number of Electrons    NEL             ....  100
 Basis Dimension        Dim             ....  282
 Nuclear Repulsion      ENuc            ....    860.8838092006 Eh

Convergence Acceleration:
 DIIS                   CNVDIIS         .... on
   Start iteration      DIISMaxIt       ....     0
   Startup error        DIISStart       ....  0.200000
   # of expansion vecs  DIISMaxEq       ....     5
   Bias factor          DIISBfac        ....   1.050
   Max. coefficient     DIISMaxC        ....  10.000
 Trust-Rad. Augm. Hess. CNVTRAH         .... auto
   Auto Start mean grad. ratio tolernc. ....  1.125000
   Auto Start start iteration           ....    20
   Auto Start num. interpolation iter.  ....    10
   Max. Number of Micro iterations      ....    16
   Max. Number of Macro iterations      .... Maxiter - #DIIS iter
   Number of Davidson start vectors     ....     2
   Converg. threshold I  (grad. norm)   ....   1.000e-05
   Converg. threshold II (energy diff.) ....   1.000e-08
   Grad. Scal. Fac. for Micro threshold ....   0.100
   Minimum threshold for Micro iter.    ....   0.010
   NR start threshold (gradient norm)   ....   0.001
   Initial trust radius                 ....   0.400
   Minimum AH scaling param. (alpha)    ....   1.000
   Maximum AH scaling param. (alpha)    .... 1000.000
   Orbital update algorithm             .... Taylor
   White noise on init. David. guess    .... on
   Maximum white noise                  ....   0.010
   Quad. conv. algorithm                .... NR
 SOSCF                  CNVSOSCF        .... on
   Start iteration      SOSCFMaxIt      ....   150
   Startup grad/error   SOSCFStart      ....  0.001000
 Level Shifting         CNVShift        .... on
   Level shift para.    LevelShift      ....    0.2500
   Turn off err/grad.   ShiftErr        ....    0.0000
 Zerner damping         CNVZerner       .... off
 Static damping         CNVDamp         .... on
   Fraction old density DampFac         ....    0.8500
   Max. Damping (<1)    DampMax         ....    0.9800
   Min. Damping (>=0)   DampMin         ....    0.0000
   Turn off err/grad.   DampErr         ....    0.0300
 Fernandez-Rico         CNVRico         .... off

SCF Procedure:
 Maximum # iterations   MaxIter         ....   125
 SCF integral mode      SCFMode         .... Direct
   Integral package                     .... SHARK and LIBINT hybrid scheme
 Reset frequency        DirectResetFreq ....    20
 Integral Threshold     Thresh          ....  2.500e-11 Eh
 Primitive CutOff       TCut            ....  2.500e-12 Eh

Convergence Tolerance:
 Convergence Check Mode ConvCheckMode   .... Total+1el-Energy
 Convergence forced     ConvForced      .... 0
 Energy Change          TolE            ....  1.000e-08 Eh
 1-El. energy change                    ....  1.000e-05 Eh
 Orbital Gradient       TolG            ....  1.000e-05
 Orbital Rotation angle TolX            ....  1.000e-05
 DIIS Error             TolErr          ....  5.000e-07


Diagonalization of the overlap matrix:
Smallest eigenvalue                        ... 9.777e-04
Time for diagonalization                   ...    0.010 sec
Threshold for overlap eigenvalues          ... 1.000e-08
Number of eigenvalues below threshold      ... 0
Time for construction of square roots      ...    0.004 sec
Total time needed                          ...    0.014 sec

Time for model grid setup =    0.541 sec

------------------------------
INITIAL GUESS: MODEL POTENTIAL
------------------------------
Loading Hartree-Fock densities                     ... done
Calculating cut-offs                               ... done
Initializing the effective Hamiltonian             ... done
Setting up the integral package (SHARK)            ... done
Starting the Coulomb interaction                   ... done (   0.5 sec)
Reading the grid                                   ... done
Mapping shells                                     ... done
Starting the XC term evaluation                    ... done (   0.6 sec)
  promolecular density results
     # of electrons  =     99.984960282
     EX              =    -75.333481773
     EC              =     -3.322631384
     EX+EC           =    -78.656113157
Transforming the Hamiltonian                       ... done (   0.0 sec)
Diagonalizing the Hamiltonian                      ... done (   0.0 sec)
Back transforming the eigenvectors                 ... done (   0.0 sec)
Now organizing SCF variables                       ... done
                      ------------------
                      INITIAL GUESS DONE (   1.7 sec)
                      ------------------
-------------------
DFT GRID GENERATION
-------------------

General Integration Accuracy     IntAcc      ... 4.388
Radial Grid Type                 RadialGrid  ... OptM3 with GC (2021)
Angular Grid (max. ang.)         AngularGrid ... 4 (Lebedev-302)
Angular grid pruning method      GridPruning ... 4 (adaptive)
Weight generation scheme         WeightScheme... Becke
Basis function cutoff            BFCut       ... 1.0000e-11
Integration weight cutoff        WCut        ... 1.0000e-14
Angular grids for H and He will be reduced by one unit
Partially contracted basis set               ... off
Rotationally invariant grid construction     ... off

Total number of grid points                  ...   141056
Total number of batches                      ...     2218
Average number of points per batch           ...       63
Average number of grid points per atom       ...     4274
Time for grid setup =    2.026 sec

--------------------
COSX GRID GENERATION
--------------------

GRIDX 1
-------
General Integration Accuracy     IntAcc      ... 3.816
Radial Grid Type                 RadialGrid  ... OptM3 with GC (2021)
Angular Grid (max. ang.)         AngularGrid ... 1 (Lebedev-50)
Angular grid pruning method      GridPruning ... 4 (adaptive)
Weight generation scheme         WeightScheme... Becke
Basis function cutoff            BFCut       ... 1.0000e-11
Integration weight cutoff        WCut        ... 1.0000e-14
Angular grids for H and He will be reduced by one unit
Partially contracted basis set               ... on
Rotationally invariant grid construction     ... off

Total number of grid points                  ...    17993
Total number of batches                      ...      299
Average number of points per batch           ...       60
Average number of grid points per atom       ...      545
UseSFitting                                  ... on

GRIDX 2
-------
General Integration Accuracy     IntAcc      ... 4.020
Radial Grid Type                 RadialGrid  ... OptM3 with GC (2021)
Angular Grid (max. ang.)         AngularGrid ... 2 (Lebedev-110)
Angular grid pruning method      GridPruning ... 4 (adaptive)
Weight generation scheme         WeightScheme... Becke
Basis function cutoff            BFCut       ... 1.0000e-11
Integration weight cutoff        WCut        ... 1.0000e-14
Angular grids for H and He will be reduced by one unit
Partially contracted basis set               ... on
Rotationally invariant grid construction     ... off

Total number of grid points                  ...    37474
Total number of batches                      ...      605
Average number of points per batch           ...       61
Average number of grid points per atom       ...     1136
UseSFitting                                  ... on

GRIDX 3
-------
General Integration Accuracy     IntAcc      ... 4.338
Radial Grid Type                 RadialGrid  ... OptM3 with GC (2021)
Angular Grid (max. ang.)         AngularGrid ... 3 (Lebedev-194)
Angular grid pruning method      GridPruning ... 4 (adaptive)
Weight generation scheme         WeightScheme... Becke
Basis function cutoff            BFCut       ... 1.0000e-11
Integration weight cutoff        WCut        ... 1.0000e-14
Angular grids for H and He will be reduced by one unit
Partially contracted basis set               ... on
Rotationally invariant grid construction     ... off

Total number of grid points                  ...    81467
Total number of batches                      ...     1288
Average number of points per batch           ...       63
Average number of grid points per atom       ...     2469
UseSFitting                                  ... on

Time for X-Grid setup             =    2.547 sec


--------------------
CPCM SOLVATION MODEL
--------------------
CPCM parameters:
  Epsilon                                         ...      80.4000
  Refrac                                          ...       1.3300
  Rsolv                                           ...       1.3000
  Surface type                                    ... GAUSSIAN VDW
  Epsilon function type                           ...         CPCM
Radii:
 Radius for N  used is    3.5149 Bohr (=   1.8600 Ang.)
 Radius for C  used is    3.8550 Bohr (=   2.0400 Ang.)
 Radius for H  used is    2.4944 Bohr (=   1.3200 Ang.)
Calculating surface                               ...        done! (  0.0s)
GEPOL surface points                              ...         1731
GEPOL Volume                                      ...    1662.9823
GEPOL Surface-area                                ...     889.2469
Calculating surface distance matrix               ...        done! (  0.0s)
Performing Cholesky decomposition & store         ...        done! (  0.1s)
Overall time for CPCM initialization              ...                 0.1s
--------------
SCF ITERATIONS
--------------
ITER       Energy         Delta-E        Max-DP      RMS-DP      [F,P]     Damp
               ***  Starting incremental Fock matrix formation  ***
  0   -539.8382452493   0.000000000000 0.04015914  0.00070723  0.1575274 0.8500
  1   -539.9082514924  -0.070006243101 0.04406122  0.00067876  0.1269306 0.8500
                               ***Turning on DIIS***
  2   -539.9616209513  -0.053369458955 0.03930090  0.00055937  0.0974266 0.8500
  3   -540.0012431980  -0.039622246686 0.03246104  0.00039979  0.0738057 0.8500
  4   -540.0317293798  -0.030486181798 0.02706562  0.00030715  0.0587434 0.8500
  5   -540.0556813667  -0.023951986867 0.02295417  0.00025255  0.0485581 0.8500
  6   -540.0750966136  -0.019415246874 0.01965402  0.00021364  0.0408276 0.8500
  7   -540.0911228368  -0.016026223197 0.01699929  0.00018447  0.0345669 0.8500
  8   -540.1044967940  -0.013373957272 0.09832252  0.00106229  0.0292311 0.0000
  9   -540.1761502718  -0.071653477790 0.00215378  0.00003983  0.0012528 0.0000
                      *** Initiating the SOSCF procedure ***
                           *** Shutting down DIIS ***
                      *** Re-Reading the Fockian *** 
                      *** Removing any level shift *** 
ITER      Energy       Delta-E        Grad      Rot      Max-DP    RMS-DP
 10   -540.17617899  -0.0000287202  0.000328  0.000328  0.001339  0.000020
               *** Restarting incremental Fock matrix formation ***
 11   -540.17625827  -0.0000792755  0.000253  0.000562  0.001527  0.000015
 12   -540.17625921  -0.0000009472  0.000074  0.000340  0.000589  0.000010
 13   -540.17625948  -0.0000002634  0.000035  0.000032  0.000313  0.000003
 14   -540.17625951  -0.0000000355  0.000007  0.000015  0.000108  0.000001
                  ***Gradient check signals convergence***
              ***Rediagonalizing the Fockian in SOSCF/NRSCF***

               *****************************************************
               *                     SUCCESS                       *
               *           SCF CONVERGED AFTER  15 CYCLES          *
               *****************************************************

Old exchange energy                            =    -25.343531406 Eh
New exchange energy                            =    -25.343544061 Eh
Exchange energy change after final integration =     -0.000012655 Eh
Total energy after final integration           =   -540.176272189 Eh
Final COS-X integration done in                =    83.295 sec

----------------
TOTAL SCF ENERGY
----------------

Total Energy       :         -540.17627219 Eh          -14698.94365 eV

Components:
Nuclear Repulsion  :          860.88380920 Eh           23425.83940 eV
Electronic Energy  :        -1401.06008139 Eh          -38124.78304 eV
One Electron Energy:        -2437.00429819 Eh          -66314.25831 eV
Two Electron Energy:         1035.94421680 Eh           28189.47526 eV
Max COSX asymmetry :            0.00000326 Eh               0.00009 eV
CPCM Dielectric    :           -0.01308879 Eh              -0.35616 eV

Virial components:
Potential Energy   :        -1074.17933491 Eh          -29229.90572 eV
Kinetic Energy     :          534.00306272 Eh           14530.96208 eV
Virial Ratio       :            2.01156025


DFT components:
N(Alpha)           :       49.999619587361 electrons
N(Beta)            :       49.999619587361 electrons
N(Total)           :       99.999239174722 electrons
E(XC)              :      -55.564660791840 Eh       
DFET-embed. en.    :        0.000000000000 Eh       
CPCM Solvation Model Properties:
Surface-charge          :           -0.02874538
Charge-correction       :           -0.00034652 Eh              -0.00943 eV
Free-energy (cav+disp)  :  This term is not implemented in the current solvation scheme

---------------
SCF CONVERGENCE
---------------

  Last Energy change         ...   -2.0361e-08  Tolerance :   1.0000e-08
  Last MAX-Density change    ...    3.5735e-15  Tolerance :   1.0000e-07
  Last RMS-Density change    ...    3.9607e-17  Tolerance :   5.0000e-09
  Last Orbital Gradient      ...    2.2397e-06  Tolerance :   1.0000e-05
  Last Orbital Rotation      ...    1.0727e-05  Tolerance :   1.0000e-05

             **** THE GBW FILE WAS UPDATED (5_deprot_aq_1.gbw) ****
             **** DENSITY 5_deprot_aq_1.scfp WAS UPDATED ****
             **** ENERGY FILE WAS UPDATED (5_deprot_aq_1.en.tmp) ****
             **** THE GBW FILE WAS UPDATED (5_deprot_aq_1.gbw) ****
             **** DENSITY 5_deprot_aq_1.scfp WAS UPDATED ****
----------------
ORBITAL ENERGIES
----------------

  NO   OCC          E(Eh)            E(eV) 
   0   2.0000     -14.442852      -393.0100 
   1   2.0000     -14.442823      -393.0092 
   2   2.0000     -10.311601      -280.5929 
   3   2.0000     -10.311571      -280.5921 
   4   2.0000     -10.288405      -279.9617 
   5   2.0000     -10.287796      -279.9452 
   6   2.0000     -10.267456      -279.3917 
   7   2.0000     -10.256442      -279.0920 
   8   2.0000     -10.256437      -279.0918 
   9   2.0000     -10.256427      -279.0916 
  10   2.0000     -10.256424      -279.0915 
  11   2.0000     -10.250815      -278.9389 
  12   2.0000     -10.250796      -278.9384 
  13   2.0000      -1.150308       -31.3015 
  14   2.0000      -1.050127       -28.5754 
  15   2.0000      -0.952880       -25.9292 
  16   2.0000      -0.899038       -24.4641 
  17   2.0000      -0.865723       -23.5575 
  18   2.0000      -0.812421       -22.1071 
  19   2.0000      -0.811362       -22.0783 
  20   2.0000      -0.810914       -22.0661 
  21   2.0000      -0.804339       -21.8872 
  22   2.0000      -0.762233       -20.7414 
  23   2.0000      -0.722782       -19.6679 
  24   2.0000      -0.657976       -17.9044 
  25   2.0000      -0.652878       -17.7657 
  26   2.0000      -0.615260       -16.7421 
  27   2.0000      -0.585309       -15.9271 
  28   2.0000      -0.580362       -15.7924 
  29   2.0000      -0.558478       -15.1970 
  30   2.0000      -0.556965       -15.1558 
  31   2.0000      -0.552945       -15.0464 
  32   2.0000      -0.534707       -14.5501 
  33   2.0000      -0.528604       -14.3840 
  34   2.0000      -0.528421       -14.3791 
  35   2.0000      -0.504548       -13.7295 
  36   2.0000      -0.492171       -13.3927 
  37   2.0000      -0.483130       -13.1466 
  38   2.0000      -0.482947       -13.1417 
  39   2.0000      -0.476548       -12.9675 
  40   2.0000      -0.467088       -12.7101 
  41   2.0000      -0.467029       -12.7085 
  42   2.0000      -0.466529       -12.6949 
  43   2.0000      -0.447242       -12.1701 
  44   2.0000      -0.435206       -11.8426 
  45   2.0000      -0.432387       -11.7658 
  46   2.0000      -0.426765       -11.6129 
  47   2.0000      -0.365974        -9.9587 
  48   2.0000      -0.321715        -8.7543 
  49   2.0000      -0.309841        -8.4312 
  50   0.0000       0.125919         3.4264 
  51   0.0000       0.129403         3.5212 
  52   0.0000       0.142880         3.8880 
  53   0.0000       0.151669         4.1271 
  54   0.0000       0.183431         4.9914 
  55   0.0000       0.187289         5.0964 
  56   0.0000       0.189810         5.1650 
  57   0.0000       0.206437         5.6174 
  58   0.0000       0.209154         5.6914 
  59   0.0000       0.210617         5.7312 
  60   0.0000       0.216386         5.8882 
  61   0.0000       0.223828         6.0907 
  62   0.0000       0.232433         6.3248 
  63   0.0000       0.232457         6.3255 
  64   0.0000       0.253960         6.9106 
  65   0.0000       0.260385         7.0854 
  66   0.0000       0.271247         7.3810 
  67   0.0000       0.272445         7.4136 
  68   0.0000       0.277910         7.5623 
  69   0.0000       0.278267         7.5720 
  70   0.0000       0.282958         7.6997 
  71   0.0000       0.283803         7.7227 
  72   0.0000       0.297551         8.0968 
  73   0.0000       0.302368         8.2279 
  74   0.0000       0.303244         8.2517 
  75   0.0000       0.307709         8.3732 
  76   0.0000       0.308828         8.4036 
  77   0.0000       0.332763         9.0549 
  78   0.0000       0.352436         9.5903 
  79   0.0000       0.353756         9.6262 
  80   0.0000       0.356359         9.6970 
  81   0.0000       0.367629        10.0037 
  82   0.0000       0.385220        10.4824 
  83   0.0000       0.435687        11.8556 
  84   0.0000       0.450215        12.2510 
  85   0.0000       0.482279        13.1235 
  86   0.0000       0.493714        13.4346 
  87   0.0000       0.494479        13.4555 
  88   0.0000       0.502928        13.6854 
  89   0.0000       0.517918        14.0933 
  90   0.0000       0.529728        14.4146 
  91   0.0000       0.531035        14.4502 
  92   0.0000       0.554853        15.0983 
  93   0.0000       0.567061        15.4305 
  94   0.0000       0.581702        15.8289 
  95   0.0000       0.618218        16.8226 
  96   0.0000       0.621283        16.9060 
  97   0.0000       0.642675        17.4881 
  98   0.0000       0.655143        17.8274 
  99   0.0000       0.663559        18.0564 
 100   0.0000       0.673109        18.3162 
 101   0.0000       0.677202        18.4276 
 102   0.0000       0.678140        18.4531 
 103   0.0000       0.686929        18.6923 
 104   0.0000       0.715507        19.4699 
 105   0.0000       0.723917        19.6988 
 106   0.0000       0.737616        20.0715 
 107   0.0000       0.741468        20.1764 
 108   0.0000       0.752990        20.4899 
 109   0.0000       0.755763        20.5654 
 110   0.0000       0.757568        20.6145 
 111   0.0000       0.762718        20.7546 
 112   0.0000       0.767602        20.8875 
 113   0.0000       0.772487        21.0204 
 114   0.0000       0.778227        21.1766 
 115   0.0000       0.790273        21.5044 
 116   0.0000       0.793360        21.5884 
 117   0.0000       0.796186        21.6653 
 118   0.0000       0.805992        21.9322 
 119   0.0000       0.807857        21.9829 
 120   0.0000       0.810136        22.0449 
 121   0.0000       0.816265        22.2117 
 122   0.0000       0.817489        22.2450 
 123   0.0000       0.823817        22.4172 
 124   0.0000       0.830867        22.6090 
 125   0.0000       0.836529        22.7631 
 126   0.0000       0.840107        22.8605 
 127   0.0000       0.844778        22.9876 
 128   0.0000       0.852557        23.1993 
 129   0.0000       0.856610        23.3095 
 130   0.0000       0.856955        23.3189 
 131   0.0000       0.861995        23.4561 
 132   0.0000       0.862533        23.4707 
 133   0.0000       0.868221        23.6255 
 134   0.0000       0.868884        23.6435 
 135   0.0000       0.870529        23.6883 
 136   0.0000       0.901505        24.5312 
 137   0.0000       0.920558        25.0497 
 138   0.0000       0.966375        26.2964 
 139   0.0000       1.024493        27.8779 
 140   0.0000       1.060142        28.8479 
 141   0.0000       1.062482        28.9116 
 142   0.0000       1.073408        29.2089 
 143   0.0000       1.095218        29.8024 
 144   0.0000       1.098869        29.9018 
 145   0.0000       1.109269        30.1848 
 146   0.0000       1.127053        30.6687 
 147   0.0000       1.138707        30.9858 
 148   0.0000       1.195051        32.5190 
 149   0.0000       1.220668        33.2161 
 150   0.0000       1.235932        33.6314 
 151   0.0000       1.251199        34.0469 
 152   0.0000       1.276762        34.7425 
 153   0.0000       1.284670        34.9576 
 154   0.0000       1.327859        36.1329 
 155   0.0000       1.346142        36.6304 
 156   0.0000       1.347164        36.6582 
 157   0.0000       1.383102        37.6361 
 158   0.0000       1.385338        37.6970 
 159   0.0000       1.400890        38.1202 
 160   0.0000       1.424239        38.7555 
 161   0.0000       1.453478        39.5511 
 162   0.0000       1.464432        39.8492 
 163   0.0000       1.476067        40.1658 
 164   0.0000       1.499361        40.7997 
 165   0.0000       1.603678        43.6383 
 166   0.0000       1.606161        43.7059 
 167   0.0000       1.647934        44.8426 
 168   0.0000       1.656428        45.0737 
 169   0.0000       1.657169        45.0939 
 170   0.0000       1.661867        45.2217 
 171   0.0000       1.666189        45.3393 
 172   0.0000       1.672539        45.5121 
 173   0.0000       1.674487        45.5651 
 174   0.0000       1.674628        45.5690 
 175   0.0000       1.694270        46.1034 
 176   0.0000       1.696142        46.1544 
 177   0.0000       1.722230        46.8643 
 178   0.0000       1.774350        48.2825 
 179   0.0000       1.786286        48.6073 
 180   0.0000       1.831240        49.8306 
 181   0.0000       1.837099        49.9900 
 182   0.0000       1.845270        50.2123 
 183   0.0000       1.852017        50.3959 
 184   0.0000       1.864072        50.7240 
 185   0.0000       1.873880        50.9909 
 186   0.0000       1.879464        51.1428 
 187   0.0000       1.886206        51.3263 
 188   0.0000       1.896547        51.6077 
 189   0.0000       1.907943        51.9178 
 190   0.0000       1.921861        52.2965 
 191   0.0000       1.941521        52.8315 
 192   0.0000       1.949661        53.0530 
 193   0.0000       1.958113        53.2830 
 194   0.0000       1.960402        53.3453 
 195   0.0000       1.961767        53.3824 
 196   0.0000       1.964274        53.4506 
 197   0.0000       1.969599        53.5955 
 198   0.0000       1.973111        53.6911 
 199   0.0000       1.980715        53.8980 
 200   0.0000       1.982185        53.9380 
 201   0.0000       1.982562        53.9483 
 202   0.0000       2.003802        54.5262 
 203   0.0000       2.004294        54.5396 
 204   0.0000       2.015351        54.8405 
 205   0.0000       2.022563        55.0367 
 206   0.0000       2.044195        55.6254 
 207   0.0000       2.055026        55.9201 
 208   0.0000       2.065111        56.1945 
 209   0.0000       2.065844        56.2145 
 210   0.0000       2.092510        56.9401 
 211   0.0000       2.104828        57.2753 
 212   0.0000       2.110354        57.4256 
 213   0.0000       2.138813        58.2001 
 214   0.0000       2.142894        58.3111 
 215   0.0000       2.150120        58.5077 
 216   0.0000       2.153143        58.5900 
 217   0.0000       2.196763        59.7770 
 218   0.0000       2.224991        60.5451 
 219   0.0000       2.260265        61.5049 
 220   0.0000       2.284604        62.1672 
 221   0.0000       2.289458        62.2993 
 222   0.0000       2.291290        62.3492 
 223   0.0000       2.306979        62.7761 
 224   0.0000       2.314401        62.9781 
 225   0.0000       2.325509        63.2803 
 226   0.0000       2.335680        63.5571 
 227   0.0000       2.362160        64.2776 
 228   0.0000       2.369744        64.4840 
 229   0.0000       2.375243        64.6337 
 230   0.0000       2.478922        67.4549 
 231   0.0000       2.480949        67.5100 
 232   0.0000       2.489649        67.7468 
 233   0.0000       2.523169        68.6589 
 234   0.0000       2.524086        68.6839 
 235   0.0000       2.527656        68.7810 
 236   0.0000       2.530907        68.8695 
 237   0.0000       2.550085        69.3913 
 238   0.0000       2.553610        69.4873 
 239   0.0000       2.573299        70.0230 
 240   0.0000       2.581115        70.2357 
 241   0.0000       2.597037        70.6690 
 242   0.0000       2.633270        71.6549 
 243   0.0000       2.635290        71.7099 
 244   0.0000       2.657875        72.3245 
 245   0.0000       2.669492        72.6406 
 246   0.0000       2.696766        73.3827 
 247   0.0000       2.705625        73.6238 
 248   0.0000       2.754901        74.9647 
 249   0.0000       2.764727        75.2321 
 250   0.0000       2.775083        75.5138 
 251   0.0000       2.789149        75.8966 
 252   0.0000       2.842479        77.3478 
 253   0.0000       2.842776        77.3559 
 254   0.0000       2.847045        77.4720 
 255   0.0000       2.858221        77.7762 
 256   0.0000       2.866643        78.0053 
 257   0.0000       2.930801        79.7512 
 258   0.0000       2.982713        81.1637 
 259   0.0000       2.982938        81.1699 
 260   0.0000       2.996728        81.5451 
 261   0.0000       2.999135        81.6106 
 262   0.0000       3.016522        82.0837 
 263   0.0000       3.026325        82.3505 
 264   0.0000       3.034047        82.5606 
 265   0.0000       3.044271        82.8388 
 266   0.0000       3.047349        82.9226 
 267   0.0000       3.071891        83.5904 
 268   0.0000       3.085333        83.9562 
 269   0.0000       3.087236        84.0080 
 270   0.0000       3.097955        84.2997 
 271   0.0000       3.099374        84.3383 
 272   0.0000       3.120476        84.9125 
 273   0.0000       3.125522        85.0498 
 274   0.0000       3.155395        85.8627 
 275   0.0000       3.201307        87.1120 
 276   0.0000       3.217186        87.5441 
 277   0.0000       3.217346        87.5484 
 278   0.0000       3.347439        91.0884 
 279   0.0000       3.484336        94.8136 
 280   0.0000       3.493995        95.0764 
 281   0.0000       3.689617       100.3996 

                    ********************************
                    * MULLIKEN POPULATION ANALYSIS *
                    ********************************

-----------------------
MULLIKEN ATOMIC CHARGES
-----------------------
   0 N :   -0.182172
   1 C :   -0.203172
   2 N :   -0.182180
   3 C :    0.021449
   4 C :    0.021401
   5 C :   -0.238330
   6 C :   -0.238338
   7 C :    0.055714
   8 C :    0.055505
   9 C :    0.106025
  10 C :    0.055725
  11 C :    0.055489
  12 C :    0.106022
  13 H :    0.050250
  14 H :    0.050278
  15 H :    0.013144
  16 H :    0.013220
  17 H :    0.025412
  18 H :    0.027904
  19 H :    0.034218
  20 H :    0.028502
  21 H :    0.013155
  22 H :    0.013200
  23 H :    0.025422
  24 H :    0.034251
  25 H :    0.027960
  26 H :    0.028564
  27 H :    0.034250
  28 H :    0.027948
  29 H :    0.028554
  30 H :    0.034216
  31 H :    0.028504
  32 H :    0.027913
Sum of atomic charges:   -0.0000000

--------------------------------
MULLIKEN REDUCED ORBITAL CHARGES
--------------------------------
  0 N s       :     3.376659  s :     3.376659
      pz      :     1.508182  p :     3.773093
      px      :     1.152720
      py      :     1.112190
      dz2     :     0.002243  d :     0.032421
      dxz     :     0.004234
      dyz     :     0.005564
      dx2y2   :     0.011550
      dxy     :     0.008830
  1 C s       :     3.620219  s :     3.620219
      pz      :     0.712073  p :     2.517763
      px      :     0.663814
      py      :     1.141875
      dz2     :     0.007728  d :     0.065191
      dxz     :     0.012020
      dyz     :     0.009448
      dx2y2   :     0.008113
      dxy     :     0.027881
  2 N s       :     3.376660  s :     3.376660
      pz      :     1.508193  p :     3.773100
      px      :     1.152726
      py      :     1.112180
      dz2     :     0.002243  d :     0.032421
      dxz     :     0.004235
      dyz     :     0.005564
      dx2y2   :     0.011549
      dxy     :     0.008830
  3 C s       :     3.147373  s :     3.147373
      pz      :     1.077117  p :     2.782715
      px      :     0.903571
      py      :     0.802027
      dz2     :     0.003945  d :     0.048463
      dxz     :     0.008032
      dyz     :     0.007962
      dx2y2   :     0.015321
      dxy     :     0.013202
  4 C s       :     3.147406  s :     3.147406
      pz      :     1.077156  p :     2.782735
      px      :     0.903559
      py      :     0.802020
      dz2     :     0.003945  d :     0.048459
      dxz     :     0.008031
      dyz     :     0.007960
      dx2y2   :     0.015320
      dxy     :     0.013202
  5 C s       :     3.223583  s :     3.223583
      pz      :     1.036435  p :     2.949238
      px      :     0.845942
      py      :     1.066861
      dz2     :     0.013883  d :     0.065508
      dxz     :     0.013992
      dyz     :     0.010226
      dx2y2   :     0.016284
      dxy     :     0.011123
  6 C s       :     3.223589  s :     3.223589
      pz      :     1.036439  p :     2.949240
      px      :     0.845936
      py      :     1.066865
      dz2     :     0.013883  d :     0.065509
      dxz     :     0.013993
      dyz     :     0.010226
      dx2y2   :     0.016283
      dxy     :     0.011123
  7 C s       :     2.974562  s :     2.974562
      pz      :     0.953236  p :     2.943347
      px      :     0.988178
      py      :     1.001933
      dz2     :     0.007276  d :     0.026377
      dxz     :     0.005295
      dyz     :     0.003437
      dx2y2   :     0.007639
      dxy     :     0.002731
  8 C s       :     2.974640  s :     2.974640
      pz      :     0.953415  p :     2.943480
      px      :     0.988229
      py      :     1.001835
      dz2     :     0.007282  d :     0.026375
      dxz     :     0.005311
      dyz     :     0.003404
      dx2y2   :     0.007627
      dxy     :     0.002750
  9 C s       :     2.937656  s :     2.937656
      pz      :     1.016123  p :     2.929524
      px      :     0.974616
      py      :     0.938785
      dz2     :     0.005643  d :     0.026795
      dxz     :     0.004740
      dyz     :     0.005260
      dx2y2   :     0.007489
      dxy     :     0.003663
 10 C s       :     2.974550  s :     2.974550
      pz      :     0.953164  p :     2.943349
      px      :     0.988241
      py      :     1.001944
      dz2     :     0.007273  d :     0.026376
      dxz     :     0.005306
      dyz     :     0.003428
      dx2y2   :     0.007628
      dxy     :     0.002740
 11 C s       :     2.974646  s :     2.974646
      pz      :     0.953452  p :     2.943491
      px      :     0.988216
      py      :     1.001823
      dz2     :     0.007284  d :     0.026374
      dxz     :     0.005314
      dyz     :     0.003398
      dx2y2   :     0.007623
      dxy     :     0.002756
 12 C s       :     2.937662  s :     2.937662
      pz      :     1.016121  p :     2.929522
      px      :     0.974619
      py      :     0.938782
      dz2     :     0.005642  d :     0.026794
      dxz     :     0.004741
      dyz     :     0.005259
      dx2y2   :     0.007488
      dxy     :     0.003664
 13 H s       :     0.924705  s :     0.924705
      pz      :     0.005432  p :     0.025045
      px      :     0.008595
      py      :     0.011018
 14 H s       :     0.924676  s :     0.924676
      pz      :     0.005433  p :     0.025046
      px      :     0.008596
      py      :     0.011016
 15 H s       :     0.962359  s :     0.962359
      pz      :     0.011673  p :     0.024498
      px      :     0.007785
      py      :     0.005039
 16 H s       :     0.962279  s :     0.962279
      pz      :     0.011636  p :     0.024502
      px      :     0.007809
      py      :     0.005056
 17 H s       :     0.950384  s :     0.950384
      pz      :     0.005108  p :     0.024203
      px      :     0.014238
      py      :     0.004857
 18 H s       :     0.947651  s :     0.947651
      pz      :     0.004126  p :     0.024446
      px      :     0.004879
      py      :     0.015440
 19 H s       :     0.941358  s :     0.941358
      pz      :     0.004173  p :     0.024424
      px      :     0.014256
      py      :     0.005995
 20 H s       :     0.947422  s :     0.947422
      pz      :     0.011108  p :     0.024076
      px      :     0.007052
      py      :     0.005916
 21 H s       :     0.962347  s :     0.962347
      pz      :     0.011673  p :     0.024498
      px      :     0.007789
      py      :     0.005037
 22 H s       :     0.962299  s :     0.962299
      pz      :     0.011636  p :     0.024501
      px      :     0.007806
      py      :     0.005059
 23 H s       :     0.950375  s :     0.950375
      pz      :     0.005108  p :     0.024203
      px      :     0.014237
      py      :     0.004858
 24 H s       :     0.941324  s :     0.941324
      pz      :     0.004179  p :     0.024425
      px      :     0.014232
      py      :     0.006014
 25 H s       :     0.947593  s :     0.947593
      pz      :     0.004126  p :     0.024447
      px      :     0.004881
      py      :     0.015440
 26 H s       :     0.947361  s :     0.947361
      pz      :     0.011140  p :     0.024075
      px      :     0.007061
      py      :     0.005874
 27 H s       :     0.941325  s :     0.941325
      pz      :     0.004178  p :     0.024425
      px      :     0.014238
      py      :     0.006009
 28 H s       :     0.947604  s :     0.947604
      pz      :     0.004127  p :     0.024448
      px      :     0.004881
      py      :     0.015440
 29 H s       :     0.947371  s :     0.947371
      pz      :     0.011134  p :     0.024075
      px      :     0.007060
      py      :     0.005881
 30 H s       :     0.941359  s :     0.941359
      pz      :     0.004174  p :     0.024425
      px      :     0.014246
      py      :     0.006005
 31 H s       :     0.947421  s :     0.947421
      pz      :     0.011100  p :     0.024076
      px      :     0.007066
      py      :     0.005909
 32 H s       :     0.947642  s :     0.947642
      pz      :     0.004124  p :     0.024445
      px      :     0.004880
      py      :     0.015440


                     *******************************
                     * LOEWDIN POPULATION ANALYSIS *
                     *******************************

----------------------
LOEWDIN ATOMIC CHARGES
----------------------
   0 N :    0.043200
   1 C :   -0.291001
   2 N :    0.043195
   3 C :   -0.032497
   4 C :   -0.032514
   5 C :    0.002067
   6 C :    0.002064
   7 C :   -0.046030
   8 C :   -0.046045
   9 C :   -0.041969
  10 C :   -0.046033
  11 C :   -0.046050
  12 C :   -0.041970
  13 H :    0.033017
  14 H :    0.033012
  15 H :    0.020827
  16 H :    0.020802
  17 H :    0.025649
  18 H :    0.025043
  19 H :    0.031429
  20 H :    0.026758
  21 H :    0.020828
  22 H :    0.020804
  23 H :    0.025644
  24 H :    0.031449
  25 H :    0.025048
  26 H :    0.026777
  27 H :    0.031446
  28 H :    0.025048
  29 H :    0.026774
  30 H :    0.031428
  31 H :    0.026758
  32 H :    0.025043

-------------------------------
LOEWDIN REDUCED ORBITAL CHARGES
-------------------------------
  0 N s       :     3.056841  s :     3.056841
      pz      :     1.430102  p :     3.822386
      px      :     1.195891
      py      :     1.196393
      dz2     :     0.004248  d :     0.077574
      dxz     :     0.007490
      dyz     :     0.010991
      dx2y2   :     0.029708
      dxy     :     0.025137
  1 C s       :     3.189618  s :     3.189618
      pz      :     0.767896  p :     2.959072
      px      :     0.827045
      py      :     1.364130
      dz2     :     0.017939  d :     0.142310
      dxz     :     0.026574
      dyz     :     0.013270
      dx2y2   :     0.018965
      dxy     :     0.065563
  2 N s       :     3.056836  s :     3.056836
      pz      :     1.430117  p :     3.822395
      px      :     1.195888
      py      :     1.196390
      dz2     :     0.004248  d :     0.077574
      dxz     :     0.007490
      dyz     :     0.010991
      dx2y2   :     0.029708
      dxy     :     0.025138
  3 C s       :     2.850059  s :     2.850059
      pz      :     1.061348  p :     3.060522
      px      :     1.055002
      py      :     0.944172
      dz2     :     0.008726  d :     0.121916
      dxz     :     0.016120
      dyz     :     0.015982
      dx2y2   :     0.044219
      dxy     :     0.036870
  4 C s       :     2.850070  s :     2.850070
      pz      :     1.061385  p :     3.060538
      px      :     1.055000
      py      :     0.944153
      dz2     :     0.008726  d :     0.121906
      dxz     :     0.016119
      dyz     :     0.015978
      dx2y2   :     0.044215
      dxy     :     0.036869
  5 C s       :     2.835882  s :     2.835882
[...]
     43       0.000000   0.539062  -0.534719
     44       0.000136   0.000112  -0.000112
     45       0.223656   0.000078   0.000012
     46      -0.198484   0.000087  -0.000198
     47       0.404950   0.000082   0.000174
     48      -0.226452   0.000083   0.000013
     49       0.201845   0.000083  -0.000199
     50       0.408411  -0.000090  -0.000175
     51      -0.003502  -0.001710   0.001219
     52      -0.000906  -0.000797   0.000679
     53      -0.006391   0.000000  -0.000001
     54      -0.000045   0.000262  -0.000248
     55       0.001669   0.014040  -0.011460
     56       0.000064  -0.000263   0.000115
     57      -0.018541   0.001789  -0.001478
     58      -0.005850   0.000995  -0.000793
     59      -0.000367  -0.000152   0.000143
     60      -0.007692  -0.001690   0.001281
     61       0.005835   0.001329  -0.000993
     62       0.015360   0.003187  -0.002373
     63      -0.215534   0.000078  -0.000012
     64      -0.191174  -0.000087  -0.000198
     65      -0.390441   0.000081  -0.000174
     66       0.218483   0.000083  -0.000013
     67       0.194802  -0.000082  -0.000199
     68      -0.393802  -0.000091   0.000174
     69       0.003540  -0.001710  -0.001219
     70      -0.000918   0.000797   0.000679
     71       0.006161   0.000000   0.000001
     72      -0.016834   0.001843   0.001516
     73       0.005367  -0.001012  -0.000805
     74       0.000321   0.000151   0.000142
     75      -0.000037   0.000265   0.000251
     76      -0.001926  -0.014409  -0.011769
     77      -0.000061   0.000193   0.000055
     78      -0.007097  -0.001718  -0.001302
     79      -0.005311  -0.001329  -0.000992
     80      -0.014251  -0.003243  -0.002418
     81       0.017488   0.001839  -0.001512
     82       0.005573   0.001011  -0.000804
     83      -0.000337   0.000150  -0.000142
     84       0.000038   0.000264  -0.000250
     85      -0.001992   0.014374  -0.011737
     86       0.000063   0.000200  -0.000061
     87       0.007377  -0.001716   0.001301
     88      -0.005523   0.001329  -0.000992
     89       0.014797  -0.003238   0.002413
     90       0.017882   0.001781   0.001473
     91      -0.005647  -0.000994  -0.000792
     92       0.000360  -0.000152  -0.000143
     93       0.007428  -0.001688  -0.001280
     94       0.005630  -0.001327  -0.000992
     95      -0.014813   0.003179   0.002369
     96       0.000044   0.000257   0.000244
     97       0.001612  -0.013995  -0.011426
     98      -0.000060  -0.000268  -0.000119


-----------
IR SPECTRUM
-----------

 Mode   freq       eps      Int      T**2         TX        TY        TZ
       cm**-1   L/(mol*cm) km/mol    a.u.
----------------------------------------------------------------------------
  7:     15.24   0.000045    0.23  0.000928  (-0.000228 -0.000024  0.030466)
  8:    122.77   0.003579   18.09  0.009097  (-0.000131 -0.000038  0.095379)
  9:    145.11   0.000328    1.66  0.000705  ( 0.000001  0.026553  0.000121)
 10:    156.19   0.000000    0.00  0.000000  ( 0.000010 -0.000082  0.000022)
 11:    218.15   0.000194    0.98  0.000278  (-0.000026 -0.000001 -0.016671)
 12:    221.66   0.000000    0.00  0.000000  (-0.000004 -0.000024  0.000048)
 13:    261.90   0.000219    1.11  0.000261  ( 0.016150 -0.000003 -0.000082)
 14:    267.61   0.000004    0.02  0.000005  (-0.000038 -0.002265 -0.000005)
 15:    277.13   0.000006    0.03  0.000007  (-0.000040  0.002656  0.000026)
 16:    282.15   0.000331    1.67  0.000366  (-0.019116 -0.000001 -0.000884)
 17:    282.68   0.000000    0.00  0.000000  ( 0.000305 -0.000007  0.000294)
 18:    283.01   0.000138    0.70  0.000152  (-0.001230 -0.000009  0.012260)
 19:    349.25   0.001233    6.23  0.001102  (-0.000143 -0.000021 -0.033196)
 20:    352.53   0.000224    1.13  0.000199  ( 0.000000  0.014092 -0.000061)
 21:    366.20   0.000000    0.00  0.000000  (-0.000079  0.000136 -0.000000)
 22:    372.16   0.000855    4.32  0.000717  (-0.026783 -0.000001  0.000188)
 23:    401.30   0.000374    1.89  0.000291  (-0.017049  0.000002  0.000002)
 24:    450.22   0.001953    9.87  0.001354  (-0.000046 -0.000003  0.036797)
 25:    470.15   0.000000    0.00  0.000000  ( 0.000014  0.000209 -0.000003)
 26:    478.51   0.000268    1.36  0.000175  ( 0.000000 -0.013228 -0.000015)
 27:    531.33   0.001695    8.57  0.000996  ( 0.031554 -0.000001  0.000008)
 28:    583.59   0.000307    1.55  0.000164  (-0.000001 -0.012818  0.000002)
 29:    660.11   0.004295   21.71  0.002031  (-0.045061  0.000001  0.000069)
 30:    671.69   0.002389   12.07  0.001110  ( 0.000059  0.000001  0.033312)
 31:    685.59   0.000000    0.00  0.000000  ( 0.000001 -0.000024 -0.000004)
 32:    751.66   0.013322   67.32  0.005531  (-0.000036  0.000008  0.074368)
 33:    844.77   0.000030    0.15  0.000011  (-0.000000 -0.003302  0.000008)
 34:    855.01   0.001097    5.55  0.000401  (-0.020013  0.000001 -0.000061)
 35:    886.47   0.000000    0.00  0.000000  ( 0.000005  0.000045 -0.000002)
 36:    942.13   0.000541    2.73  0.000179  ( 0.000018  0.000003 -0.013386)
 37:    942.26   0.000000    0.00  0.000000  ( 0.000004  0.000030  0.000004)
 38:    952.39   0.000857    4.33  0.000281  ( 0.000007  0.016755  0.000007)
 39:    953.05   0.000038    0.19  0.000012  (-0.003513  0.000037  0.000078)
 40:    958.21   0.000033    0.17  0.000011  ( 0.000033 -0.000001 -0.003275)
 41:    958.26   0.000000    0.00  0.000000  ( 0.000007  0.000052 -0.000143)
 42:   1004.01   0.002939   14.85  0.000914  (-0.030224  0.000000 -0.000023)
 43:   1022.74   0.000407    2.06  0.000124  (-0.000001  0.011148  0.000002)
 44:   1038.58   0.000001    0.00  0.000000  (-0.000008 -0.000429  0.000004)
 45:   1039.45   0.000034    0.17  0.000010  ( 0.003173  0.000001  0.000027)
 46:   1048.16   0.000258    1.31  0.000077  ( 0.000047 -0.000010 -0.008772)
 47:   1048.48   0.000000    0.00  0.000000  ( 0.000008 -0.000101  0.000021)
 48:   1101.74   0.005184   26.20  0.001468  ( 0.000000 -0.038321  0.000007)
 49:   1161.00   0.001076    5.44  0.000289  (-0.017005 -0.000001 -0.000016)
 50:   1217.60   0.000772    3.90  0.000198  (-0.000001  0.014069 -0.000009)
 51:   1256.79   0.031328  158.32  0.007779  (-0.088197  0.000000 -0.000054)
 52:   1259.70   0.000805    4.07  0.000200  (-0.000007  0.014125 -0.000020)
 53:   1268.32   0.000000    0.00  0.000000  ( 0.000002 -0.000088  0.000052)
 54:   1269.15   0.006756   34.14  0.001661  (-0.000174 -0.000008 -0.040757)
 55:   1281.14   0.026658  134.72  0.006493  ( 0.080581 -0.000002 -0.000113)
 56:   1366.14   0.001541    7.79  0.000352  ( 0.018759 -0.000001  0.000036)
 57:   1374.04   0.000912    4.61  0.000207  ( 0.000001  0.014395  0.000000)
 58:   1390.03   0.000000    0.00  0.000000  (-0.000021 -0.000047  0.000121)
 59:   1390.13   0.010755   54.35  0.002414  (-0.000138 -0.000038  0.049136)
 60:   1391.12   0.006029   30.47  0.001353  ( 0.000000  0.036777  0.000044)
 61:   1402.22   0.000952    4.81  0.000212  (-0.014553  0.000002 -0.000037)
 62:   1405.24   0.002941   14.86  0.000653  (-0.025554 -0.000003 -0.000050)
 63:   1405.36   0.000078    0.39  0.000017  (-0.000033  0.004156 -0.000008)
 64:   1417.90   0.011258   56.89  0.002478  (-0.000001 -0.049777  0.000001)
 65:   1435.95   0.000076    0.39  0.000017  (-0.004069  0.000014 -0.000039)
 66:   1437.00   0.000567    2.86  0.000123  (-0.000004 -0.011094 -0.000009)
 67:   1438.65   0.000001    0.00  0.000000  (-0.000007 -0.000049  0.000335)
 68:   1438.70   0.000359    1.81  0.000078  ( 0.000016 -0.000010  0.008819)
 69:   1443.37   0.000001    0.01  0.000000  ( 0.000049 -0.000011  0.000517)
 70:   1443.37   0.000015    0.07  0.000003  ( 0.000110  0.000006  0.001776)
 71:   1459.48   0.020723  104.73  0.004431  (-0.066566  0.000003  0.000174)
 72:   1461.62   0.001364    6.89  0.000291  (-0.000816  0.000000 -0.017045)
 73:   1461.71   0.000000    0.00  0.000000  (-0.000001 -0.000025 -0.000016)
 74:   1468.11   0.003946   19.94  0.000839  ( 0.028960  0.000005  0.000025)
 75:   1469.72   0.001109    5.61  0.000236  (-0.000005 -0.015347 -0.000005)
 76:   1476.83   0.000450    2.28  0.000095  (-0.000137 -0.009752  0.000003)
 77:   1476.97   0.003774   19.07  0.000797  ( 0.028238 -0.000053 -0.000012)
 78:   1664.62   0.000000    0.00  0.000000  (-0.000000 -0.000095  0.000001)
 79:   3063.47   0.000058    0.29  0.000006  (-0.000009  0.000001 -0.002437)
 80:   3063.48   0.011623   58.74  0.001184  ( 0.000045  0.000007  0.034410)
 81:   3066.21   0.002205   11.14  0.000224  (-0.014979 -0.000107  0.000067)
 82:   3066.33   0.004486   22.67  0.000457  (-0.000075  0.021367 -0.000017)
 83:   3076.37   0.001730    8.74  0.000175  (-0.013246  0.000170  0.000080)
 84:   3076.41   0.004443   22.45  0.000451  (-0.000107 -0.021229 -0.000006)
 85:   3167.63   0.004958   25.06  0.000488  (-0.000148 -0.000125  0.022100)
 86:   3167.64   0.000005    0.02  0.000000  ( 0.000039  0.000261  0.000637)
 87:   3168.31   0.001615    8.16  0.000159  ( 0.012595 -0.000626  0.000162)
 88:   3168.33   0.010572   53.42  0.001041  (-0.000244 -0.032267 -0.000087)
 89:   3170.40   0.001330    6.72  0.000131  (-0.000076  0.000014  0.011442)
 90:   3170.41   0.000003    0.01  0.000000  (-0.000013  0.000188 -0.000504)
 91:   3172.46   0.001389    7.02  0.000137  ( 0.011686 -0.000258 -0.000080)
 92:   3172.56   0.007456   37.68  0.000733  ( 0.000103  0.027081  0.000003)
 93:   3177.27   0.025984  131.31  0.002552  ( 0.050517  0.000012  0.000267)
 94:   3177.62   0.000340    1.72  0.000033  (-0.000071  0.005776 -0.000012)
 95:   3186.87   0.009214   46.56  0.000902  ( 0.000300  0.000007 -0.030035)
 96:   3187.02   0.000003    0.02  0.000000  (-0.000004 -0.000068 -0.000547)
 97:   3285.76   0.001280    6.47  0.000122  (-0.011026  0.000001  0.000006)
 98:   3306.25   0.000191    0.96  0.000018  (-0.000001 -0.004243  0.000000)

* The epsilon (eps) is given for a Dirac delta lineshape.
** The dipole moment derivative (T) already includes vibrational overlap.

The first frequency considered to be a vibration is 7
The total number of vibrations considered is 92


--------------------------
THERMOCHEMISTRY AT 298.15K
--------------------------

Temperature         ... 298.15 K
Pressure            ... 1.00 atm
Total Mass          ... 180.30 AMU

Throughout the following assumptions are being made:
  (1) The electronic state is orbitally nondegenerate
  (2) There are no thermally accessible electronically excited states
  (3) Hindered rotations indicated by low frequency modes are not
      treated as such but are treated as vibrations and this may
      cause some error
  (4) All equations used are the standard statistical mechanics
      equations for an ideal gas
  (5) All vibrations are strictly harmonic

freq.      15.24  E(vib)   ...       0.57 
freq.     122.77  E(vib)   ...       0.43 
freq.     145.11  E(vib)   ...       0.41 
freq.     156.19  E(vib)   ...       0.40 
freq.     218.15  E(vib)   ...       0.33 
freq.     221.66  E(vib)   ...       0.33 
freq.     261.90  E(vib)   ...       0.29 
freq.     267.61  E(vib)   ...       0.29 
freq.     277.13  E(vib)   ...       0.28 
freq.     282.15  E(vib)   ...       0.28 
freq.     282.68  E(vib)   ...       0.28 
freq.     283.01  E(vib)   ...       0.28 
freq.     349.25  E(vib)   ...       0.23 
freq.     352.53  E(vib)   ...       0.22 
freq.     366.20  E(vib)   ...       0.22 
freq.     372.16  E(vib)   ...       0.21 
freq.     401.30  E(vib)   ...       0.19 
freq.     450.22  E(vib)   ...       0.17 
freq.     470.15  E(vib)   ...       0.16 
freq.     478.51  E(vib)   ...       0.15 
freq.     531.33  E(vib)   ...       0.13 
freq.     583.59  E(vib)   ...       0.11 
freq.     660.11  E(vib)   ...       0.08 
freq.     671.69  E(vib)   ...       0.08 
freq.     685.59  E(vib)   ...       0.07 
freq.     751.66  E(vib)   ...       0.06 
freq.     844.77  E(vib)   ...       0.04 
freq.     855.01  E(vib)   ...       0.04 
freq.     886.47  E(vib)   ...       0.04 
freq.     942.13  E(vib)   ...       0.03 
freq.     942.26  E(vib)   ...       0.03 
freq.     952.39  E(vib)   ...       0.03 
freq.     953.05  E(vib)   ...       0.03 
freq.     958.21  E(vib)   ...       0.03 
freq.     958.26  E(vib)   ...       0.03 
freq.    1004.01  E(vib)   ...       0.02 
freq.    1022.74  E(vib)   ...       0.02 
freq.    1038.58  E(vib)   ...       0.02 
freq.    1039.45  E(vib)   ...       0.02 
freq.    1048.16  E(vib)   ...       0.02 
freq.    1048.48  E(vib)   ...       0.02 
freq.    1101.74  E(vib)   ...       0.02 
freq.    1161.00  E(vib)   ...       0.01 
freq.    1217.60  E(vib)   ...       0.01 
freq.    1256.79  E(vib)   ...       0.01 
freq.    1259.70  E(vib)   ...       0.01 
freq.    1268.32  E(vib)   ...       0.01 
freq.    1269.15  E(vib)   ...       0.01 
freq.    1281.14  E(vib)   ...       0.01 
freq.    1366.14  E(vib)   ...       0.01 
freq.    1374.04  E(vib)   ...       0.01 
freq.    1390.03  E(vib)   ...       0.00 
freq.    1390.13  E(vib)   ...       0.00 
freq.    1391.12  E(vib)   ...       0.00 
freq.    1402.22  E(vib)   ...       0.00 
freq.    1405.24  E(vib)   ...       0.00 
freq.    1405.36  E(vib)   ...       0.00 
freq.    1417.90  E(vib)   ...       0.00 
freq.    1435.95  E(vib)   ...       0.00 
freq.    1437.00  E(vib)   ...       0.00 
freq.    1438.65  E(vib)   ...       0.00 
freq.    1438.70  E(vib)   ...       0.00 
freq.    1443.37  E(vib)   ...       0.00 
freq.    1443.37  E(vib)   ...       0.00 
freq.    1459.48  E(vib)   ...       0.00 
freq.    1461.62  E(vib)   ...       0.00 
freq.    1461.71  E(vib)   ...       0.00 
freq.    1468.11  E(vib)   ...       0.00 
freq.    1469.72  E(vib)   ...       0.00 
freq.    1476.83  E(vib)   ...       0.00 
freq.    1476.97  E(vib)   ...       0.00 
freq.    1664.62  E(vib)   ...       0.00 
freq.    3063.47  E(vib)   ...       0.00 
freq.    3063.48  E(vib)   ...       0.00 
freq.    3066.21  E(vib)   ...       0.00 
freq.    3066.33  E(vib)   ...       0.00 
freq.    3076.37  E(vib)   ...       0.00 
freq.    3076.41  E(vib)   ...       0.00 
freq.    3167.63  E(vib)   ...       0.00 
freq.    3167.64  E(vib)   ...       0.00 
freq.    3168.31  E(vib)   ...       0.00 
freq.    3168.33  E(vib)   ...       0.00 
freq.    3170.40  E(vib)   ...       0.00 
freq.    3170.41  E(vib)   ...       0.00 
freq.    3172.46  E(vib)   ...       0.00 
freq.    3172.56  E(vib)   ...       0.00 
freq.    3177.27  E(vib)   ...       0.00 
freq.    3177.62  E(vib)   ...       0.00 
freq.    3186.87  E(vib)   ...       0.00 
freq.    3187.02  E(vib)   ...       0.00 
freq.    3285.76  E(vib)   ...       0.00 
freq.    3306.25  E(vib)   ...       0.00 

------------
INNER ENERGY
------------

The inner energy is: U= E(el) + E(ZPE) + E(vib) + E(rot) + E(trans)
    E(el)   - is the total energy from the electronic structure calculation
              = E(kin-el) + E(nuc-el) + E(el-el) + E(nuc-nuc)
    E(ZPE)  - the the zero temperature vibrational energy from the frequency calculation
    E(vib)  - the the finite temperature correction to E(ZPE) due to population
              of excited vibrational states
    E(rot)  - is the rotational thermal energy
    E(trans)- is the translational thermal energy

Summary of contributions to the inner energy U:
Electronic energy                ...   -540.18721147 Eh
Zero point energy                ...      0.29656369 Eh     186.10 kcal/mol
Thermal vibrational correction   ...      0.01087596 Eh       6.82 kcal/mol
Thermal rotational correction    ...      0.00141627 Eh       0.89 kcal/mol
Thermal translational correction ...      0.00141627 Eh       0.89 kcal/mol
-----------------------------------------------------------------------
Total thermal energy                   -539.87693927 Eh


Summary of corrections to the electronic energy:
(perhaps to be used in another calculation)
Total thermal correction                  0.01370851 Eh       8.60 kcal/mol
Non-thermal (ZPE) correction              0.29656369 Eh     186.10 kcal/mol
-----------------------------------------------------------------------
Total correction                          0.31027220 Eh     194.70 kcal/mol


--------
ENTHALPY
--------

The enthalpy is H = U + kB*T
                kB is Boltzmann's constant
Total free energy                 ...   -539.87693927 Eh 
Thermal Enthalpy correction       ...      0.00094421 Eh       0.59 kcal/mol
-----------------------------------------------------------------------
Total Enthalpy                    ...   -539.87599506 Eh


Note: Only C1 symmetry has been detected, increase convergence thresholds 
      if your molecule has a higher symmetry. Symmetry factor of 1.0 is   
      used for the rotational entropy correction. 
 

Note: Rotational entropy computed according to Herzberg 
Infrared and Raman Spectra, Chapter V,1, Van Nostrand Reinhold, 1945 
Point Group:  C1, Symmetry Number:   1  
Rotational constants in cm-1:     0.056201     0.014846     0.013906 

Vibrational entropy computed according to the QRRHO of S. Grimme
Chem.Eur.J. 2012 18 9955


-------
ENTROPY
-------

The entropy contributions are T*S = T*(S(el)+S(vib)+S(rot)+S(trans))
     S(el)   - electronic entropy
     S(vib)  - vibrational entropy
     S(rot)  - rotational entropy
     S(trans)- translational entropy
The entropies will be listed as multiplied by the temperature to get
units of energy

Electronic entropy                ...      0.00000000 Eh      0.00 kcal/mol
Vibrational entropy               ...      0.01834894 Eh     11.51 kcal/mol
Rotational entropy                ...      0.01487577 Eh      9.33 kcal/mol
Translational entropy             ...      0.01970603 Eh     12.37 kcal/mol
-----------------------------------------------------------------------
Final entropy term                ...      0.05293073 Eh     33.21 kcal/mol

In case the symmetry of your molecule has not been determined correctly
or in case you have a reason to use a different symmetry number we print 
out the resulting rotational entropy values for sn=1,12 :
 --------------------------------------------------------
|  sn= 1 | S(rot)=       0.01487577 Eh      9.33 kcal/mol|
|  sn= 2 | S(rot)=       0.01422131 Eh      8.92 kcal/mol|
|  sn= 3 | S(rot)=       0.01383848 Eh      8.68 kcal/mol|
|  sn= 4 | S(rot)=       0.01356685 Eh      8.51 kcal/mol|
|  sn= 5 | S(rot)=       0.01335617 Eh      8.38 kcal/mol|
|  sn= 6 | S(rot)=       0.01318402 Eh      8.27 kcal/mol|
|  sn= 7 | S(rot)=       0.01303848 Eh      8.18 kcal/mol|
|  sn= 8 | S(rot)=       0.01291240 Eh      8.10 kcal/mol|
|  sn= 9 | S(rot)=       0.01280119 Eh      8.03 kcal/mol|
|  sn=10 | S(rot)=       0.01270171 Eh      7.97 kcal/mol|
|  sn=11 | S(rot)=       0.01261172 Eh      7.91 kcal/mol|
|  sn=12 | S(rot)=       0.01252957 Eh      7.86 kcal/mol|
 --------------------------------------------------------


-------------------
GIBBS FREE ENERGY
-------------------

The Gibbs free energy is G = H - T*S

Total enthalpy                    ...   -539.87599506 Eh 
Total entropy correction          ...     -0.05293073 Eh    -33.21 kcal/mol
-----------------------------------------------------------------------
Final Gibbs free energy         ...   -539.92892579 Eh

For completeness - the Gibbs free energy minus the electronic energy
G-E(el)                           ...      0.25828567 Eh    162.08 kcal/mol


Timings for individual modules:

Sum of individual times         ...     4138.560 sec (=  68.976 min)
GTO integral calculation        ...        2.023 sec (=   0.034 min)   0.0 %
SCF iterations                  ...     1842.922 sec (=  30.715 min)  44.5 %
SCF Gradient evaluation         ...      475.107 sec (=   7.918 min)  11.5 %
Geometry relaxation             ...        0.359 sec (=   0.006 min)   0.0 %
Analytical frequency calculation...     1818.149 sec (=  30.302 min)  43.9 %
                             ****ORCA TERMINATED NORMALLY****
TOTAL RUN TIME: 0 days 1 hours 8 minutes 59 seconds 442 msec
