
                                 *****************
                                 * O   R   C   A *
                                 *****************

                                            #,                                       
                                            ###                                      
                                            ####                                     
                                            #####                                    
                                            ######                                   
                                           ########,                                 
                                     ,,################,,,,,                         
                               ,,#################################,,                 
                          ,,##########################################,,             
                       ,#########################################, ''#####,          
                    ,#############################################,,   '####,        
                  ,##################################################,,,,####,       
                ,###########''''           ''''###############################       
              ,#####''   ,,,,##########,,,,          '''####'''          '####       
            ,##' ,,,,###########################,,,                        '##       
           ' ,,###''''                  '''############,,,                           
         ,,##''                                '''############,,,,        ,,,,,,###''
      ,#''                                            '''#######################'''  
     '                                                          ''''####''''         
             ,#######,   #######,   ,#######,      ##                                
            ,#'     '#,  ##    ##  ,#'     '#,    #''#        ######   ,####,        
            ##       ##  ##   ,#'  ##            #'  '#       #        #'  '#        
            ##       ##  #######   ##           ,######,      #####,   #    #        
            '#,     ,#'  ##    ##  '#,     ,#' ,#      #,         ##   #,  ,#        
             '#######'   ##     ##  '#######'  #'      '#     #####' # '####'        



                  #######################################################
                  #                        -***-                        #
                  #          Department of theory and spectroscopy      #
                  #    Directorship and core code : Frank Neese         #
                  #        Max Planck Institute fuer Kohlenforschung    #
                  #                Kaiser Wilhelm Platz 1               #
                  #                 D-45470 Muelheim/Ruhr               #
                  #                      Germany                        #
                  #                                                     #
                  #                  All rights reserved                #
                  #                        -***-                        #
                  #######################################################


                         Program Version 5.0.4 -  RELEASE  -


 With contributions from (in alphabetic order):
   Daniel Aravena         : Magnetic Suceptibility
   Michael Atanasov       : Ab Initio Ligand Field Theory (pilot matlab implementation)
   Alexander A. Auer      : GIAO ZORA, VPT2 properties, NMR spectrum
   Ute Becker             : Parallelization
   Giovanni Bistoni       : ED, misc. LED, open-shell LED, HFLD
   Martin Brehm           : Molecular dynamics
   Dmytro Bykov           : SCF Hessian
   Vijay G. Chilkuri      : MRCI spin determinant printing, contributions to CSF-ICE
   Dipayan Datta          : RHF DLPNO-CCSD density
   Achintya Kumar Dutta   : EOM-CC, STEOM-CC
   Dmitry Ganyushin       : Spin-Orbit,Spin-Spin,Magnetic field MRCI
   Miquel Garcia          : C-PCM and meta-GGA Hessian, CC/C-PCM, Gaussian charge scheme
   Yang Guo               : DLPNO-NEVPT2, F12-NEVPT2, CIM, IAO-localization
   Andreas Hansen         : Spin unrestricted coupled pair/coupled cluster methods
   Benjamin Helmich-Paris : MC-RPA, TRAH-SCF, COSX integrals
   Lee Huntington         : MR-EOM, pCC
   Robert Izsak           : Overlap fitted RIJCOSX, COSX-SCS-MP3, EOM
   Marcus Kettner         : VPT2
   Christian Kollmar      : KDIIS, OOCD, Brueckner-CCSD(T), CCSD density, CASPT2, CASPT2-K
   Simone Kossmann        : Meta GGA functionals, TD-DFT gradient, OOMP2, MP2 Hessian
   Martin Krupicka        : Initial AUTO-CI
   Lucas Lang             : DCDCAS
   Marvin Lechner         : AUTO-CI (C++ implementation), FIC-MRCC
   Dagmar Lenk            : GEPOL surface, SMD
   Dimitrios Liakos       : Extrapolation schemes; Compound Job, initial MDCI parallelization
   Dimitrios Manganas     : Further ROCIS development; embedding schemes
   Dimitrios Pantazis     : SARC Basis sets
   Anastasios Papadopoulos: AUTO-CI, single reference methods and gradients
   Taras Petrenko         : DFT Hessian,TD-DFT gradient, ASA, ECA, R-Raman, ABS, FL, XAS/XES, NRVS
   Peter Pinski           : DLPNO-MP2, DLPNO-MP2 Gradient
   Christoph Reimann      : Effective Core Potentials
   Marius Retegan         : Local ZFS, SOC
   Christoph Riplinger    : Optimizer, TS searches, QM/MM, DLPNO-CCSD(T), (RO)-DLPNO pert. Triples
   Tobias Risthaus        : Range-separated hybrids, TD-DFT gradient, RPA, STAB
   Michael Roemelt        : Original ROCIS implementation
   Masaaki Saitow         : Open-shell DLPNO-CCSD energy and density
   Barbara Sandhoefer     : DKH picture change effects
   Avijit Sen             : IP-ROCIS
   Kantharuban Sivalingam : CASSCF convergence, NEVPT2, FIC-MRCI
   Bernardo de Souza      : ESD, SOC TD-DFT
   Georgi Stoychev        : AutoAux, RI-MP2 NMR, DLPNO-MP2 response
   Willem Van den Heuvel  : Paramagnetic NMR
   Boris Wezisla          : Elementary symmetry handling
   Frank Wennmohs         : Technical directorship


 We gratefully acknowledge several colleagues who have allowed us to
 interface, adapt or use parts of their codes:
   Stefan Grimme, W. Hujo, H. Kruse, P. Pracht,  : VdW corrections, initial TS optimization,
                  C. Bannwarth, S. Ehlert          DFT functionals, gCP, sTDA/sTD-DF
   Ed Valeev, F. Pavosevic, A. Kumar             : LibInt (2-el integral package), F12 methods
   Garnet Chan, S. Sharma, J. Yang, R. Olivares  : DMRG
   Ulf Ekstrom                                   : XCFun DFT Library
   Mihaly Kallay                                 : mrcc  (arbitrary order and MRCC methods)
   Jiri Pittner, Ondrej Demel                    : Mk-CCSD
   Frank Weinhold                                : gennbo (NPA and NBO analysis)
   Christopher J. Cramer and Donald G. Truhlar   : smd solvation model
   Lars Goerigk                                  : TD-DFT with DH, B97 family of functionals
   V. Asgeirsson, H. Jonsson                     : NEB implementation
   FAccTs GmbH                                   : IRC, NEB, NEB-TS, DLPNO-Multilevel, CI-OPT
                                                   MM, QMMM, 2- and 3-layer-ONIOM, Crystal-QMMM,
                                                   LR-CPCM, SF, NACMEs, symmetry and pop. for TD-DFT,
                                                   nearIR, NL-DFT gradient (VV10), updates on ESD,
                                                   ML-optimized integration grids
   S Lehtola, MJT Oliveira, MAL Marques          : LibXC Library
   Liviu Ungur et al                             : ANISO software


 Your calculation uses the libint2 library for the computation of 2-el integrals
 For citations please refer to: http://libint.valeyev.net

 Your ORCA version has been built with support for libXC version: 5.1.0
 For citations please refer to: https://tddft.org/programs/libxc/

 This ORCA versions uses:
   CBLAS   interface :  Fast vector & matrix operations
   LAPACKE interface :  Fast linear algebra routines
   SCALAPACK package :  Parallel linear algebra routines
   Shared memory     :  Shared parallel matrices
   BLAS/LAPACK       :  OpenBLAS 0.3.15  USE64BITINT DYNAMIC_ARCH NO_AFFINITY SkylakeX SINGLE_THREADED
        Core in use  :  SkylakeX
   Copyright (c) 2011-2014, The OpenBLAS Project




***************************************
The coordinates will be read from file: 5_deprot_aq_2.xyz
***************************************


Your calculation utilizes the atom-pairwise dispersion correction
based on tight binding partial charges (D4)
Cite in your paper:
E.Caldeweyher, C.Bannwarth, S.Grimme, J.Chem.Phys., (2017), 147, 034112.
E.Caldeweyher, S.Ehlert, A.Hansen, H.Neugebauer, S.Grimme, J.Chem.Phys., (2018), in progress.
   

XCFun DFT library Copyright 2009-2010 Ulf Ekstrom and contributors.
See http://admol.org/xcfun for more information.
This is free software; see the source code for copying conditions.
There is ABSOLUTELY NO WARRANTY; not even for MERCHANTABILITY or FITNESS FOR A PARTICULAR PURPOSE.
For details see the documentation.
Scientific users of this library should cite U. Ekstrom, L. Visscher, R. Bast, A. J. Thorvaldsen and K. Ruud;
J.Chem.Theor.Comp. 2010, DOI: 10.1021/ct100117s
XCFun Version 0.99 

================================================================================

----- Orbital basis set information -----
Your calculation utilizes the basis: def2-SVP
   F. Weigend and R. Ahlrichs, Phys. Chem. Chem. Phys. 7, 3297 (2005).

----- AuxJ basis set information -----
Your calculation utilizes the auxiliary basis: def2/J
   F. Weigend, Phys. Chem. Chem. Phys. 8, 1057 (2006).

================================================================================
                                        WARNINGS
                       Please study these warnings very carefully!
================================================================================


WARNING: Geometry Optimization
  ===> : Switching off AutoStart
         For restart on a previous wavefunction, please use MOREAD

INFO   : the flag for use of the SHARK integral package has been found!

================================================================================
                                       INPUT FILE
================================================================================
NAME = 5_deprot_aq_2.inp
|  1> # ORCA 5.0.4 - /users/bwb16179/postgrad/2024_03/DFT_Crest_Conformers/Opt/deprot/5_deprot_aq_2.inp # write input file
|  2> # Basic Mode
|  3> #
|  4> ! Opt Freq wB97X Def2-SVP D4 SlowConv TightSCF Defgrid2 Def2/J RIJCOSX CPCM(Water)
|  5> 
|  6> 
|  7> 
|  8> %maxcore 4500
|  9> 
| 10> %geom
| 11> Maxiter 150
| 12> END
| 13> 
| 14> * xyzfile 0 1 5_deprot_aq_2.xyz
| 15> 
| 16>                          ****END OF INPUT****
================================================================================

                       *****************************
                       * Geometry Optimization Run *
                       *****************************

Geometry optimization settings:
Update method            Update   .... BFGS
Choice of coordinates    CoordSys .... Z-matrix Internals
Initial Hessian          InHess   .... Almoef's Model

Convergence Tolerances:
Energy Change            TolE     ....  5.0000e-06 Eh
Max. Gradient            TolMAXG  ....  3.0000e-04 Eh/bohr
RMS Gradient             TolRMSG  ....  1.0000e-04 Eh/bohr
Max. Displacement        TolMAXD  ....  4.0000e-03 bohr
RMS Displacement         TolRMSD  ....  2.0000e-03 bohr
Strict Convergence                ....  False
------------------------------------------------------------------------------
                        ORCA OPTIMIZATION COORDINATE SETUP
------------------------------------------------------------------------------

The optimization will be done in new redundant internal coordinates
Making redundant internal coordinates   ...  (new redundants) done
Evaluating the initial hessian          ...  (Almloef) done
Evaluating the coordinates              ...  done
Calculating the B-matrix                .... done
Calculating the G-matrix                .... done
Diagonalizing the G-matrix              .... done
Small eigenvalue found = 9.974e-03
Small eigenvalue found = 2.366e-02
The first mode is                       ....   83
The number of degrees of freedom        ....   93

    -----------------------------------------------------------------
                    Redundant Internal Coordinates


    -----------------------------------------------------------------
         Definition                    Initial Value    Approx d2E/dq
    -----------------------------------------------------------------
      1. B(C   1,N   0)                  1.3565         0.632775   
      2. B(N   2,C   1)                  1.3597         0.625589   
      3. B(C   3,N   2)                  1.3731         0.595517   
      4. B(C   4,N   0)                  1.3741         0.593343   
      5. B(C   4,C   3)                  1.3511         0.720674   
      6. B(C   5,N   0)                  1.4518         0.445942   
      7. B(C   6,N   2)                  1.4538         0.442630   
      8. B(C   7,C   5)                  1.5338         0.368461   
      9. B(C   8,C   5)                  1.5337         0.368582   
     10. B(C   9,C   5)                  1.5283         0.375874   
     11. B(C  10,C   6)                  1.5312         0.371893   
     12. B(C  11,C   6)                  1.5303         0.373207   
     13. B(C  12,C   6)                  1.5344         0.367528   
     14. B(H  13,C   3)                  1.0701         0.387430   
     15. B(H  14,C   4)                  1.0710         0.386175   
     16. B(H  15,C   9)                  1.0858         0.365719   
     17. B(H  16,C   9)                  1.0855         0.366061   
     18. B(H  17,C   9)                  1.0869         0.364182   
     19. B(H  18,C   7)                  1.0877         0.363106   
     20. B(H  19,C   7)                  1.0869         0.364202   
     21. B(H  20,C   7)                  1.0879         0.362880   
     22. B(H  21,C  12)                  1.0873         0.363668   
     23. B(H  22,C  12)                  1.0886         0.361986   
     24. B(H  23,C  12)                  1.0869         0.364265   
     25. B(H  24,C  11)                  1.0854         0.366246   
     26. B(H  25,C  11)                  1.0867         0.364497   
     27. B(H  26,C  11)                  1.0871         0.363987   
     28. B(H  27,C   8)                  1.0875         0.363440   
     29. B(H  28,C   8)                  1.0880         0.362761   
     30. B(H  29,C   8)                  1.0869         0.364193   
     31. B(H  30,C  10)                  1.0882         0.362426   
     32. B(H  31,C  10)                  1.0871         0.363933   
     33. B(H  32,C  10)                  1.0876         0.363336   
     34. A(C   1,N   0,C   4)          111.4978         0.426606   
     35. A(C   4,N   0,C   5)          124.1161         0.400899   
     36. A(C   1,N   0,C   5)          124.3846         0.405474   
     37. A(N   0,C   1,N   2)          103.7876         0.430674   
     38. A(C   1,N   2,C   3)          111.4523         0.426013   
     39. A(C   1,N   2,C   6)          122.7210         0.404125   
     40. A(C   3,N   2,C   6)          125.6641         0.400631   
     41. A(C   4,C   3,H  13)          129.4569         0.366610   
     42. A(N   2,C   3,C   4)          106.6216         0.439868   
     43. A(N   2,C   3,H  13)          123.9211         0.352691   
     44. A(N   0,C   4,C   3)          106.6346         0.439578   
     45. A(N   0,C   4,H  14)          123.7078         0.352280   
     46. A(C   3,C   4,H  14)          129.6574         0.366406   
     47. A(N   0,C   5,C   7)          109.1472         0.371338   
     48. A(N   0,C   5,C   9)          108.9089         0.372614   
     49. A(C   7,C   5,C   8)          110.2626         0.361665   
     50. A(N   0,C   5,C   8)          109.3346         0.371359   
     51. A(C   8,C   5,C   9)          109.5369         0.362897   
     52. A(C   7,C   5,C   9)          109.6277         0.362877   
     53. A(C  10,C   6,C  11)          109.4120         0.363010   
     54. A(N   2,C   6,C  11)          108.4341         0.371680   
     55. A(C  11,C   6,C  12)          109.8616         0.362279   
     56. A(C  10,C   6,C  12)          110.0318         0.362061   
     57. A(N   2,C   6,C  12)          108.3542         0.370700   
     58. A(N   2,C   6,C  10)          110.7201         0.371454   
     59. A(H  19,C   7,H  20)          108.7007         0.291710   
     60. A(H  18,C   7,H  20)          108.4738         0.291572   
     61. A(C   5,C   7,H  20)          109.9455         0.323994   
     62. A(H  18,C   7,H  19)          108.4485         0.291739   
     63. A(C   5,C   7,H  19)          110.1637         0.324188   
     64. A(C   5,C   7,H  18)          111.0490         0.324028   
     65. A(H  27,C   8,H  28)          108.4929         0.291599   
     66. A(C   5,C   8,H  28)          110.0058         0.323995   
     67. A(C   5,C   8,H  27)          111.2290         0.324094   
     68. A(H  28,C   8,H  29)          108.6600         0.291694   
     69. A(H  27,C   8,H  29)          108.3340         0.291780   
     70. A(C   5,C   8,H  29)          110.0545         0.324204   
     71. A(H  16,C   9,H  17)          109.3890         0.292108   
     72. A(H  15,C   9,H  16)          107.9876         0.292302   
     73. A(C   5,C   9,H  16)          110.1011         0.325523   
     74. A(C   5,C   9,H  15)          110.1125         0.325473   
     75. A(C   5,C   9,H  17)          109.9280         0.325248   
     76. A(H  15,C   9,H  17)          109.2888         0.292065   
     77. A(H  31,C  10,H  32)          107.9250         0.291734   
     78. A(H  30,C  10,H  32)          108.9066         0.291543   
     79. A(H  30,C  10,H  31)          108.4701         0.291619   
     80. A(C   6,C  10,H  31)          109.4570         0.324643   
     81. A(C   6,C  10,H  30)          110.4623         0.324421   
     82. A(C   6,C  10,H  32)          111.5352         0.324555   
     83. A(H  25,C  11,H  26)          108.9959         0.291887   
     84. A(H  24,C  11,H  26)          108.2519         0.292107   
     85. A(C   6,C  11,H  26)          110.1272         0.324839   
     86. A(H  24,C  11,H  25)          109.6594         0.292171   
     87. A(C   6,C  11,H  25)          110.2015         0.324913   
     88. A(C   6,C  11,H  24)          109.5730         0.325169   
     89. A(H  22,C  12,H  23)          108.7029         0.291605   
     90. A(H  21,C  12,H  23)          108.9686         0.291817   
     91. A(C   6,C  12,H  23)          110.4933         0.324062   
     92. A(H  21,C  12,H  22)          108.5363         0.291530   
     93. A(C   6,C  12,H  22)          110.4306         0.323729   
     94. A(C   6,C  12,H  21)          109.6651         0.323975   
     95. D(N   2,C   1,N   0,C   5)    179.2432         0.029466   
     96. D(N   2,C   1,N   0,C   4)     -0.3193         0.029466   
     97. D(C   3,N   2,C   1,N   0)      0.6998         0.028751   
     98. D(C   6,N   2,C   1,N   0)    176.3040         0.028751   
     99. D(C   4,C   3,N   2,C   1)     -0.8260         0.028546   
    100. D(H  13,C   3,N   2,C   1)    179.3716         0.028546   
    101. D(H  13,C   3,N   2,C   6)      3.9240         0.028546   
    102. D(C   4,C   3,N   2,C   6)   -176.2736         0.028546   
    103. D(H  14,C   4,C   3,H  13)      0.5148         0.036765   
    104. D(H  14,C   4,N   0,C   5)      0.1346         0.028323   
    105. D(N   0,C   4,C   3,N   2)      0.5847         0.036765   
    106. D(N   0,C   4,C   3,H  13)   -179.6276         0.036765   
    107. D(C   3,C   4,N   0,C   5)   -179.7336         0.028323   
    108. D(H  14,C   4,C   3,N   2)   -179.2729         0.036765   
    109. D(C   3,C   4,N   0,C   1)     -0.1698         0.028323   
    110. D(H  14,C   4,N   0,C   1)    179.6984         0.028323   
    111. D(C   8,C   5,N   0,C   1)    122.5357         0.016961   
    112. D(C   9,C   5,N   0,C   4)   -177.6133         0.016961   
    113. D(C   8,C   5,N   0,C   4)    -57.9561         0.016961   
    114. D(C   9,C   5,N   0,C   1)      2.8784         0.016961   
    115. D(C   7,C   5,N   0,C   1)   -116.7779         0.016961   
    116. D(C   7,C   5,N   0,C   4)     62.7304         0.016961   
    117. D(C  12,C   6,N   2,C   3)     88.3365         0.016708   
    118. D(C  11,C   6,N   2,C   3)   -152.4605         0.016708   
    119. D(C  11,C   6,N   2,C   1)     32.5769         0.016708   
    120. D(C  12,C   6,N   2,C   1)    -86.6261         0.016708   
    121. D(C  10,C   6,N   2,C   3)    -32.4178         0.016708   
    122. D(C  10,C   6,N   2,C   1)    152.6196         0.016708   
    123. D(H  18,C   7,C   5,C   8)     58.7644         0.010859   
    124. D(H  18,C   7,C   5,N   0)    -61.3527         0.010859   
    125. D(H  18,C   7,C   5,C   9)    179.4363         0.010859   
    126. D(H  20,C   7,C   5,C   9)    -60.5075         0.010859   
    127. D(H  20,C   7,C   5,C   8)    178.8206         0.010859   
    128. D(H  20,C   7,C   5,N   0)     58.7035         0.010859   
    129. D(H  19,C   7,C   5,C   9)     59.2685         0.010859   
    130. D(H  19,C   7,C   5,C   8)    -61.4034         0.010859   
    131. D(H  19,C   7,C   5,N   0)    178.4795         0.010859   
    132. D(H  29,C   8,C   5,C   9)    -57.3080         0.010865   
    133. D(H  29,C   8,C   5,C   7)     63.4183         0.010865   
    134. D(H  29,C   8,C   5,N   0)   -176.5776         0.010865   
    135. D(H  28,C   8,C   5,C   9)     62.3871         0.010865   
    136. D(H  28,C   8,C   5,C   7)   -176.8866         0.010865   
    137. D(H  28,C   8,C   5,N   0)    -56.8825         0.010865   
    138. D(H  27,C   8,C   5,C   9)   -177.3770         0.010865   
    139. D(H  27,C   8,C   5,C   7)    -56.6508         0.010865   
    140. D(H  27,C   8,C   5,N   0)     63.3533         0.010865   
    141. D(H  17,C   9,C   5,C   7)    -60.2773         0.011273   
    142. D(H  17,C   9,C   5,N   0)   -179.6348         0.011273   
    143. D(H  16,C   9,C   5,C   8)   -178.5883         0.011273   
    144. D(H  16,C   9,C   5,C   7)     60.3007         0.011273   
    145. D(H  16,C   9,C   5,N   0)    -59.0568         0.011273   
    146. D(H  15,C   9,C   5,C   8)    -59.6274         0.011273   
    147. D(H  15,C   9,C   5,C   7)    179.2616         0.011273   
    148. D(H  17,C   9,C   5,C   8)     60.8336         0.011273   
    149. D(H  15,C   9,C   5,N   0)     59.9042         0.011273   
    150. D(H  32,C  10,C   6,N   2)     70.4716         0.011049   
    151. D(H  31,C  10,C   6,C  12)     70.0801         0.011049   
    152. D(H  31,C  10,C   6,C  11)    -50.7107         0.011049   
    153. D(H  31,C  10,C   6,N   2)   -170.1669         0.011049   
    154. D(H  30,C  10,C   6,C  12)   -170.5500         0.011049   
    155. D(H  30,C  10,C   6,C  11)     68.6592         0.011049   
    156. D(H  32,C  10,C   6,C  11)   -170.0722         0.011049   
    157. D(H  30,C  10,C   6,N   2)    -50.7969         0.011049   
    158. D(H  32,C  10,C   6,C  12)    -49.2814         0.011049   
    159. D(H  26,C  11,C   6,C  12)   -177.8682         0.011123   
    160. D(H  26,C  11,C   6,C  10)    -56.9740         0.011123   
    161. D(H  26,C  11,C   6,N   2)     63.8816         0.011123   
    162. D(H  25,C  11,C   6,C  12)    -57.5868         0.011123   
    163. D(H  25,C  11,C   6,C  10)     63.3074         0.011123   
    164. D(H  25,C  11,C   6,N   2)   -175.8370         0.011123   
    165. D(H  24,C  11,C   6,C  12)     63.1633         0.011123   
    166. D(H  24,C  11,C   6,C  10)   -175.9425         0.011123   
    167. D(H  24,C  11,C   6,N   2)    -55.0869         0.011123   
    168. D(H  23,C  12,C   6,C  11)     62.2600         0.010807   
    169. D(H  23,C  12,C   6,C  10)    -58.2602         0.010807   
    170. D(H  23,C  12,C   6,N   2)   -179.4404         0.010807   
    171. D(H  22,C  12,C   6,C  11)   -177.4399         0.010807   
    172. D(H  22,C  12,C   6,C  10)     62.0400         0.010807   
    173. D(H  22,C  12,C   6,N   2)    -59.1403         0.010807   
    174. D(H  21,C  12,C   6,C  11)    -57.8770         0.010807   
    175. D(H  21,C  12,C   6,C  10)   -178.3972         0.010807   
    176. D(H  21,C  12,C   6,N   2)     60.4225         0.010807   
    -----------------------------------------------------------------

Number of atoms                         .... 33
Number of degrees of freedom            .... 176

         *************************************************************
         *                GEOMETRY OPTIMIZATION CYCLE   1            *
         *************************************************************
---------------------------------
CARTESIAN COORDINATES (ANGSTROEM)
---------------------------------
  N     -1.066230    0.206804    0.061642
  C      0.016218   -0.525418   -0.302190
  N      1.070554    0.232857    0.100372
  C      0.653049    1.390862    0.708667
  C     -0.697664    1.378824    0.676923
  C     -2.442266   -0.190041   -0.176606
  C      2.449705   -0.210356   -0.022603
  C     -3.102920    0.825201   -1.117465
  C     -3.193836   -0.243584    1.159206
  C     -2.453424   -1.573897   -0.825148
  C      3.394407    0.987853   -0.151023
  C      2.566842   -1.086541   -1.271723
  C      2.806849   -1.029975    1.224468
  H      1.317309    2.127744    1.109727
  H     -1.396345    2.105476    1.038585
  H     -1.975601   -2.296734   -0.170837
  H     -1.902178   -1.552224   -1.760046
  H     -3.477097   -1.884892   -1.016969
  H     -3.116266    1.818133   -0.673529
  H     -4.127174    0.529032   -1.328596
  H     -2.553638    0.874220   -2.055243
  H      2.151063   -1.894452    1.294335
  H      2.683000   -0.428129    2.123047
  H      3.837376   -1.371525    1.173056
  H      1.847168   -1.897129   -1.216087
  H      3.571073   -1.494068   -1.351417
  H      2.351241   -0.500293   -2.161423
  H     -3.242424    0.738682    1.623340
  H     -2.689979   -0.923723    1.842780
  H     -4.209242   -0.597877    1.001631
  H      3.048390    1.663242   -0.931026
  H      4.389293    0.637946   -0.414825
  H      3.470182    1.538469    0.783792

----------------------------
CARTESIAN COORDINATES (A.U.)
----------------------------
  NO LB      ZA    FRAG     MASS         X           Y           Z
   0 N     7.0000    0    14.007   -2.014883    0.390802    0.116487
   1 C     6.0000    0    12.011    0.030648   -0.992896   -0.571057
   2 N     7.0000    0    14.007    2.023053    0.440037    0.189676
   3 C     6.0000    0    12.011    1.234084    2.628348    1.339187
   4 C     6.0000    0    12.011   -1.318393    2.605599    1.279198
   5 C     6.0000    0    12.011   -4.615213   -0.359125   -0.333737
   6 C     6.0000    0    12.011    4.629271   -0.397516   -0.042713
   7 C     6.0000    0    12.011   -5.863669    1.559404   -2.111702
   8 C     6.0000    0    12.011   -6.035476   -0.460306    2.190583
   9 C     6.0000    0    12.011   -4.636300   -2.974235   -1.559304
  10 C     6.0000    0    12.011    6.414499    1.866772   -0.285392
  11 C     6.0000    0    12.011    4.850628   -2.053265   -2.403207
  12 C     6.0000    0    12.011    5.304175   -1.946371    2.313909
  13 H     1.0000    0     1.008    2.489353    4.020854    2.097080
  14 H     1.0000    0     1.008   -2.638709    3.978772    1.962641
  15 H     1.0000    0     1.008   -3.733344   -4.340198   -0.322836
  16 H     1.0000    0     1.008   -3.594595   -2.933279   -3.326006
  17 H     1.0000    0     1.008   -6.570762   -3.561929   -1.921794
  18 H     1.0000    0     1.008   -5.888889    3.435774   -1.272786
  19 H     1.0000    0     1.008   -7.799229    0.999726   -2.510683
  20 H     1.0000    0     1.008   -4.825677    1.652035   -3.883846
  21 H     1.0000    0     1.008    4.064920   -3.579996    2.445939
  22 H     1.0000    0     1.008    5.070134   -0.809048    4.011978
  23 H     1.0000    0     1.008    7.251590   -2.591806    2.216754
  24 H     1.0000    0     1.008    3.490642   -3.585055   -2.298072
  25 H     1.0000    0     1.008    6.748349   -2.823380   -2.553807
  26 H     1.0000    0     1.008    4.443201   -0.945416   -4.084497
  27 H     1.0000    0     1.008   -6.127293    1.395907    3.067668
  28 H     1.0000    0     1.008   -5.083324   -1.745583    3.482350
  29 H     1.0000    0     1.008   -7.954315   -1.129824    1.892809
  30 H     1.0000    0     1.008    5.760623    3.143071   -1.759385
  31 H     1.0000    0     1.008    8.294562    1.205543   -0.783906
  32 H     1.0000    0     1.008    6.557694    2.907285    1.481151

--------------------------------
INTERNAL COORDINATES (ANGSTROEM)
--------------------------------
 N      0   0   0     0.000000000000     0.00000000     0.00000000
 C      1   0   0     1.356545938774     0.00000000     0.00000000
 N      2   1   0     1.359654904161   103.78763202     0.00000000
 C      3   2   1     1.373064935831   111.45229719     0.69983850
 C      4   3   2     1.351139056075   106.62156860   359.17404412
 C      1   2   3     1.451799501372   124.38457167   179.24320163
 C      3   2   1     1.453828919361   122.72097118   176.30395686
 C      6   1   2     1.533751971719   109.14720197   243.22214708
 C      6   1   2     1.533662193139   109.33457738   122.53565627
 C      6   1   2     1.528329495271   108.90892738     2.87840121
 C      7   3   2     1.531227989476   110.72009963   152.61960893
 C      7   3   2     1.530268389738   108.43413136    32.57685077
 C      7   3   2     1.534441855673   108.35422915   273.37385984
 H      4   3   2     1.070087007448   123.92113615   179.37158184
 H      5   4   3     1.070970397467   129.65744293   180.72705575
 H     10   6   1     1.085785485649   110.11252423    59.90415111
 H     10   6   1     1.085530989318   110.10108222   300.94318857
 H     10   6   1     1.086931553769   109.92801422   180.36516833
 H      8   6   1     1.087736977540   111.04896981   298.64725869
 H      8   6   1     1.086917049444   110.16365863   178.47948683
 H      8   6   1     1.087906921807   109.94553905    58.70347414
 H     13   7   3     1.087316336206   109.66509894    60.42252376
 H     13   7   3     1.088577683228   110.43058349   300.85971200
 H     13   7   3     1.086869972832   110.49333242   180.55957356
 H     12   7   3     1.085393576116   109.57302505   304.91312463
 H     12   7   3     1.086696298346   110.20148614   184.16301230
 H     12   7   3     1.087077428510   110.12718020    63.88163337
 H      9   6   1     1.087486563702   111.22904743    63.35332760
 H      9   6   1     1.087995781585   110.00576001   303.11749115
 H      9   6   1     1.086923443222   110.05450251   183.42239536
 H     11   7   3     1.088247533896   110.46230146   309.20305945
 H     11   7   3     1.087118120099   109.45704478   189.83313531
 H     11   7   3     1.087564918936   111.53518095    70.47162093

---------------------------
INTERNAL COORDINATES (A.U.)
---------------------------
 N      0   0   0     0.000000000000     0.00000000     0.00000000
 C      1   0   0     2.563500312366     0.00000000     0.00000000
 N      2   1   0     2.569375405507   103.78763202     0.00000000
 C      3   2   1     2.594716692811   111.45229719     0.69983850
 C      4   3   2     2.553282784827   106.62156860   359.17404412
 C      1   2   3     2.743503458956   124.38457167   179.24320163
 C      3   2   1     2.747338503167   122.72097118   176.30395686
 C      6   1   2     2.898371183911   109.14720197   243.22214708
 C      6   1   2     2.898201526981   109.33457738   122.53565627
 C      6   1   2     2.888124188457   108.90892738     2.87840121
 C      7   3   2     2.893601548704   110.72009963   152.61960893
 C      7   3   2     2.891788168001   108.43413136    32.57685077
 C      7   3   2     2.899674875648   108.35422915   273.37385984
 H      4   3   2     2.022171383544   123.92113615   179.37158184
 H      5   4   3     2.023840748749   129.65744293   180.72705575
 H     10   6   1     2.051837208064   110.11252423    59.90415111
 H     10   6   1     2.051356279695   110.10108222   300.94318857
 H     10   6   1     2.054002962941   109.92801422   180.36516833
 H      8   6   1     2.055524993289   111.04896981   298.64725869
 H      8   6   1     2.053975553739   110.16365863   178.47948683
 H      8   6   1     2.055846141413   109.94553905    58.70347414
 H     13   7   3     2.054730096367   109.66509894    60.42252376
 H     13   7   3     2.057113696799   110.43058349   300.85971200
 H     13   7   3     2.053886591835   110.49333242   180.55957356
 H     12   7   3     2.051096606377   109.57302505   304.91312463
 H     12   7   3     2.053558394619   110.20148614   184.16301230
 H     12   7   3     2.054278626251   110.12718020    63.88163337
 H      9   6   1     2.055051779717   111.22904743    63.35332760
 H      9   6   1     2.056014062056   110.00576001   303.11749115
 H      9   6   1     2.053987636228   110.05450251   183.42239536
 H     11   7   3     2.056489804979   110.46230146   309.20305945
 H     11   7   3     2.054355522211   109.45704478   189.83313531
 H     11   7   3     2.055199849649   111.53518095    70.47162093

---------------------
BASIS SET INFORMATION
---------------------
There are 3 groups of distinct atoms

 Group   1 Type N   : 7s4p1d contracted to 3s2p1d pattern {511/31/1}
 Group   2 Type C   : 7s4p1d contracted to 3s2p1d pattern {511/31/1}
 Group   3 Type H   : 4s1p contracted to 2s1p pattern {31/1}

Atom   0N    basis set group =>   1
Atom   1C    basis set group =>   2
Atom   2N    basis set group =>   1
Atom   3C    basis set group =>   2
Atom   4C    basis set group =>   2
Atom   5C    basis set group =>   2
Atom   6C    basis set group =>   2
Atom   7C    basis set group =>   2
Atom   8C    basis set group =>   2
Atom   9C    basis set group =>   2
Atom  10C    basis set group =>   2
Atom  11C    basis set group =>   2
Atom  12C    basis set group =>   2
Atom  13H    basis set group =>   3
Atom  14H    basis set group =>   3
Atom  15H    basis set group =>   3
Atom  16H    basis set group =>   3
Atom  17H    basis set group =>   3
Atom  18H    basis set group =>   3
Atom  19H    basis set group =>   3
Atom  20H    basis set group =>   3
Atom  21H    basis set group =>   3
Atom  22H    basis set group =>   3
Atom  23H    basis set group =>   3
Atom  24H    basis set group =>   3
Atom  25H    basis set group =>   3
Atom  26H    basis set group =>   3
Atom  27H    basis set group =>   3
Atom  28H    basis set group =>   3
Atom  29H    basis set group =>   3
Atom  30H    basis set group =>   3
Atom  31H    basis set group =>   3
Atom  32H    basis set group =>   3
---------------------------------
AUXILIARY/J BASIS SET INFORMATION
---------------------------------
There are 3 groups of distinct atoms

 Group   1 Type N   : 12s5p4d2f1g contracted to 6s4p3d1f1g pattern {711111/2111/211/2/1}
 Group   2 Type C   : 12s5p4d2f1g contracted to 6s4p3d1f1g pattern {711111/2111/211/2/1}
 Group   3 Type H   : 5s2p1d contracted to 3s1p1d pattern {311/2/1}

Atom   0N    basis set group =>   1
Atom   1C    basis set group =>   2
Atom   2N    basis set group =>   1
Atom   3C    basis set group =>   2
Atom   4C    basis set group =>   2
Atom   5C    basis set group =>   2
Atom   6C    basis set group =>   2
Atom   7C    basis set group =>   2
Atom   8C    basis set group =>   2
Atom   9C    basis set group =>   2
Atom  10C    basis set group =>   2
Atom  11C    basis set group =>   2
Atom  12C    basis set group =>   2
Atom  13H    basis set group =>   3
Atom  14H    basis set group =>   3
Atom  15H    basis set group =>   3
Atom  16H    basis set group =>   3
Atom  17H    basis set group =>   3
Atom  18H    basis set group =>   3
Atom  19H    basis set group =>   3
Atom  20H    basis set group =>   3
Atom  21H    basis set group =>   3
Atom  22H    basis set group =>   3
Atom  23H    basis set group =>   3
Atom  24H    basis set group =>   3
Atom  25H    basis set group =>   3
Atom  26H    basis set group =>   3
Atom  27H    basis set group =>   3
Atom  28H    basis set group =>   3
Atom  29H    basis set group =>   3
Atom  30H    basis set group =>   3
Atom  31H    basis set group =>   3
Atom  32H    basis set group =>   3
------------------------------------------------------------------------------
                           ORCA GTO INTEGRAL CALCULATION
                           -- RI-GTO INTEGRALS CHOSEN --
------------------------------------------------------------------------------
------------------------------------------------------------------------------
                   ___                                                        
                  /   \      - P O W E R E D   B Y -                         
                 /     \                                                     
                 |  |  |   _    _      __       _____    __    __             
                 |  |  |  | |  | |    /  \     |  _  \  |  |  /  |          
                  \  \/   | |  | |   /    \    | | | |  |  | /  /          
                 / \  \   | |__| |  /  /\  \   | |_| |  |  |/  /          
                |  |  |   |  __  | /  /__\  \  |    /   |      \           
                |  |  |   | |  | | |   __   |  |    \   |  |\   \          
                \     /   | |  | | |  |  |  |  | |\  \  |  | \   \       
                 \___/    |_|  |_| |__|  |__|  |_| \__\ |__|  \__/        
                                                                              
                      - O R C A' S   B I G   F R I E N D -                    
                                      &                                       
                       - I N T E G R A L  F E E D E R -                       
                                                                              
 v1 FN, 2020, v2 2021                                                         
------------------------------------------------------------------------------


Reading SHARK input file 5_deprot_aq_2.SHARKINP.tmp ... ok
----------------------
SHARK INTEGRAL PACKAGE
----------------------

Number of atoms                             ...     33
Number of basis functions                   ...    282
Number of shells                            ...    138
Maximum angular momentum                    ...      2
Integral batch strategy                     ... SHARK/LIBINT Hybrid
RI-J (if used) integral strategy            ... SPLIT-RIJ (Revised 2003 algorithm where possible)
Printlevel                                  ...      1
Contraction scheme used                     ... SEGMENTED contraction
Coulomb Range Separation                    ... NOT USED
Exchange Range Separation                   ... Long Range
   Mu parameter                             ...  0.300000
   Scaling (regular/separated)              ...  0.157706  0.842294
Finite Nucleus Model                        ... NOT USED
Auxiliary Coulomb fitting basis             ... AVAILABLE
   # of basis functions in Aux-J            ...    857
   # of shells in Aux-J                     ...    295
   Maximum angular momentum in Aux-J        ...      4
Auxiliary J/K fitting basis                 ... NOT available
Auxiliary Correlation fitting basis         ... NOT available
Auxiliary 'external' fitting basis          ... NOT available
Integral threshold                          ...     2.500000e-11
Primitive cut-off                           ...     2.500000e-12
Primitive pair pre-selection threshold      ...     2.500000e-12

Calculating pre-screening integrals         ... done (  0.1 sec) Dimension = 138
Organizing shell pair data                  ... done (  0.1 sec)
Shell pair information
Total number of shell pairs                 ...      9591
Shell pairs after pre-screening             ...      8218
Total number of primitive shell pairs       ...     33125
Primitive shell pairs kept                  ...     19815
          la=0 lb=0:   2805 shell pairs
          la=1 lb=0:   3102 shell pairs
          la=1 lb=1:    890 shell pairs
          la=2 lb=0:    864 shell pairs
          la=2 lb=1:    482 shell pairs
          la=2 lb=2:     75 shell pairs

Calculating one electron integrals          ... done (  0.1 sec)
Calculating RI/J V-Matrix + Cholesky decomp.... done (  0.1 sec)
Calculating Nuclear repulsion               ... done (  0.0 sec) ENN=    861.084319390458 Eh

SHARK setup successfully completed in   0.4 seconds

Maximum memory used throughout the entire GTOINT-calculation: 47.6 MB
-------------------------------------------------------------------------------
                                 ORCA SCF
-------------------------------------------------------------------------------

------------
SCF SETTINGS
------------
Hamiltonian:
 Density Functional     Method          .... DFT(GTOs)
 Exchange Functional    Exchange        .... WB97X
 Correlation Functional Correlation     .... WB97X
 Gradients option       PostSCFGGA      .... off
 Hybrid DFT is turned on
   Fraction HF Exchange ScalHFX         ....  0.157706
   Scaling of DF-GGA-X  ScalDFX         ....  0.000000
   Scaling of DF-GGA-C  ScalDFC         ....  1.000000
   Scaling of DF-LDA-C  ScalLDAC        ....  1.000000
   Perturbative correction              ....  0.000000
   Density functional embedding theory  .... OFF
 Long-range corrected/Screened/Range-Separated Hybrid DFT is turned on
   Amount of maximum screened exact exchange              ....  0.842294
   Range separation parameter mu (erf(mu*r12)/r12)        ....  0.300000
 RI-approximation to the Coulomb term is turned on
   Number of AuxJ basis functions       .... 857
   RIJ-COSX (HFX calculated with COS-X)).... on


General Settings:
 Integral files         IntName         .... 5_deprot_aq_2
 Hartree-Fock type      HFTyp           .... RHF
 Total Charge           Charge          ....    0
 Multiplicity           Mult            ....    1
 Number of Electrons    NEL             ....  100
 Basis Dimension        Dim             ....  282
 Nuclear Repulsion      ENuc            ....    861.0843193905 Eh

Convergence Acceleration:
 DIIS                   CNVDIIS         .... on
   Start iteration      DIISMaxIt       ....     0
   Startup error        DIISStart       ....  0.200000
   # of expansion vecs  DIISMaxEq       ....     5
   Bias factor          DIISBfac        ....   1.050
   Max. coefficient     DIISMaxC        ....  10.000
 Trust-Rad. Augm. Hess. CNVTRAH         .... auto
   Auto Start mean grad. ratio tolernc. ....  1.125000
   Auto Start start iteration           ....    20
   Auto Start num. interpolation iter.  ....    10
   Max. Number of Micro iterations      ....    16
   Max. Number of Macro iterations      .... Maxiter - #DIIS iter
   Number of Davidson start vectors     ....     2
   Converg. threshold I  (grad. norm)   ....   1.000e-05
   Converg. threshold II (energy diff.) ....   1.000e-08
   Grad. Scal. Fac. for Micro threshold ....   0.100
   Minimum threshold for Micro iter.    ....   0.010
   NR start threshold (gradient norm)   ....   0.001
   Initial trust radius                 ....   0.400
   Minimum AH scaling param. (alpha)    ....   1.000
   Maximum AH scaling param. (alpha)    .... 1000.000
   Orbital update algorithm             .... Taylor
   White noise on init. David. guess    .... on
   Maximum white noise                  ....   0.010
   Quad. conv. algorithm                .... NR
 SOSCF                  CNVSOSCF        .... on
   Start iteration      SOSCFMaxIt      ....   150
   Startup grad/error   SOSCFStart      ....  0.001000
 Level Shifting         CNVShift        .... on
   Level shift para.    LevelShift      ....    0.2500
   Turn off err/grad.   ShiftErr        ....    0.0000
 Zerner damping         CNVZerner       .... off
 Static damping         CNVDamp         .... on
   Fraction old density DampFac         ....    0.8500
   Max. Damping (<1)    DampMax         ....    0.9800
   Min. Damping (>=0)   DampMin         ....    0.0000
   Turn off err/grad.   DampErr         ....    0.0300
 Fernandez-Rico         CNVRico         .... off

SCF Procedure:
 Maximum # iterations   MaxIter         ....   125
 SCF integral mode      SCFMode         .... Direct
   Integral package                     .... SHARK and LIBINT hybrid scheme
 Reset frequency        DirectResetFreq ....    20
 Integral Threshold     Thresh          ....  2.500e-11 Eh
 Primitive CutOff       TCut            ....  2.500e-12 Eh

Convergence Tolerance:
 Convergence Check Mode ConvCheckMode   .... Total+1el-Energy
 Convergence forced     ConvForced      .... 0
 Energy Change          TolE            ....  1.000e-08 Eh
 1-El. energy change                    ....  1.000e-05 Eh
 Orbital Gradient       TolG            ....  1.000e-05
 Orbital Rotation angle TolX            ....  1.000e-05
 DIIS Error             TolErr          ....  5.000e-07


Diagonalization of the overlap matrix:
Smallest eigenvalue                        ... 1.065e-03
Time for diagonalization                   ...    0.014 sec
Threshold for overlap eigenvalues          ... 1.000e-08
Number of eigenvalues below threshold      ... 0
Time for construction of square roots      ...    0.005 sec
Total time needed                          ...    0.020 sec

Time for model grid setup =    0.692 sec

------------------------------
INITIAL GUESS: MODEL POTENTIAL
------------------------------
Loading Hartree-Fock densities                     ... done
Calculating cut-offs                               ... done
Initializing the effective Hamiltonian             ... done
Setting up the integral package (SHARK)            ... done
Starting the Coulomb interaction                   ... done (   0.8 sec)
Reading the grid                                   ... done
Mapping shells                                     ... done
Starting the XC term evaluation                    ... done (   0.8 sec)
  promolecular density results
     # of electrons  =     99.991932799
     EX              =    -75.334498362
     EC              =     -3.322868755
     EX+EC           =    -78.657367117
Transforming the Hamiltonian                       ... done (   0.0 sec)
Diagonalizing the Hamiltonian                      ... done (   0.0 sec)
Back transforming the eigenvectors                 ... done (   0.0 sec)
Now organizing SCF variables                       ... done
                      ------------------
                      INITIAL GUESS DONE (   2.2 sec)
                      ------------------
-------------------
DFT GRID GENERATION
-------------------

General Integration Accuracy     IntAcc      ... 4.388
Radial Grid Type                 RadialGrid  ... OptM3 with GC (2021)
Angular Grid (max. ang.)         AngularGrid ... 4 (Lebedev-302)
Angular grid pruning method      GridPruning ... 4 (adaptive)
Weight generation scheme         WeightScheme... Becke
Basis function cutoff            BFCut       ... 1.0000e-11
Integration weight cutoff        WCut        ... 1.0000e-14
Angular grids for H and He will be reduced by one unit
Partially contracted basis set               ... off
Rotationally invariant grid construction     ... off

Total number of grid points                  ...   141112
Total number of batches                      ...     2220
Average number of points per batch           ...       63
Average number of grid points per atom       ...     4276
Time for grid setup =    2.518 sec

--------------------
COSX GRID GENERATION
--------------------

GRIDX 1
-------
General Integration Accuracy     IntAcc      ... 3.816
Radial Grid Type                 RadialGrid  ... OptM3 with GC (2021)
Angular Grid (max. ang.)         AngularGrid ... 1 (Lebedev-50)
Angular grid pruning method      GridPruning ... 4 (adaptive)
Weight generation scheme         WeightScheme... Becke
Basis function cutoff            BFCut       ... 1.0000e-11
Integration weight cutoff        WCut        ... 1.0000e-14
Angular grids for H and He will be reduced by one unit
Partially contracted basis set               ... on
Rotationally invariant grid construction     ... off

Total number of grid points                  ...    18045
Total number of batches                      ...      302
Average number of points per batch           ...       59
Average number of grid points per atom       ...      547
UseSFitting                                  ... on

GRIDX 2
-------
General Integration Accuracy     IntAcc      ... 4.020
Radial Grid Type                 RadialGrid  ... OptM3 with GC (2021)
Angular Grid (max. ang.)         AngularGrid ... 2 (Lebedev-110)
Angular grid pruning method      GridPruning ... 4 (adaptive)
Weight generation scheme         WeightScheme... Becke
Basis function cutoff            BFCut       ... 1.0000e-11
Integration weight cutoff        WCut        ... 1.0000e-14
Angular grids for H and He will be reduced by one unit
Partially contracted basis set               ... on
Rotationally invariant grid construction     ... off

Total number of grid points                  ...    37529
Total number of batches                      ...      601
Average number of points per batch           ...       62
Average number of grid points per atom       ...     1137
UseSFitting                                  ... on

GRIDX 3
-------
General Integration Accuracy     IntAcc      ... 4.338
Radial Grid Type                 RadialGrid  ... OptM3 with GC (2021)
Angular Grid (max. ang.)         AngularGrid ... 3 (Lebedev-194)
Angular grid pruning method      GridPruning ... 4 (adaptive)
Weight generation scheme         WeightScheme... Becke
Basis function cutoff            BFCut       ... 1.0000e-11
Integration weight cutoff        WCut        ... 1.0000e-14
Angular grids for H and He will be reduced by one unit
Partially contracted basis set               ... on
Rotationally invariant grid construction     ... off

Total number of grid points                  ...    81617
Total number of batches                      ...     1292
Average number of points per batch           ...       63
Average number of grid points per atom       ...     2473
UseSFitting                                  ... on

Time for X-Grid setup             =    3.318 sec


--------------------
CPCM SOLVATION MODEL
--------------------
CPCM parameters:
  Epsilon                                         ...      80.4000
  Refrac                                          ...       1.3300
  Rsolv                                           ...       1.3000
  Surface type                                    ... GAUSSIAN VDW
  Epsilon function type                           ...         CPCM
Radii:
 Radius for N  used is    3.5149 Bohr (=   1.8600 Ang.)
 Radius for C  used is    3.8550 Bohr (=   2.0400 Ang.)
 Radius for H  used is    2.4944 Bohr (=   1.3200 Ang.)
Calculating surface                               ...        done! (  0.0s)
GEPOL surface points                              ...         1707
GEPOL Volume                                      ...    1680.1321
GEPOL Surface-area                                ...     902.5847
Calculating surface distance matrix               ...        done! (  0.0s)
Performing Cholesky decomposition & store         ...        done! (  0.1s)
Overall time for CPCM initialization              ...                 0.1s
--------------
SCF ITERATIONS
--------------
ITER       Energy         Delta-E        Max-DP      RMS-DP      [F,P]     Damp
               ***  Starting incremental Fock matrix formation  ***
  0   -539.8382888555   0.000000000000 0.03988654  0.00070525  0.1548693 0.8500
  1   -539.9081785800  -0.069889724469 0.04363199  0.00067622  0.1249458 0.8500
                               ***Turning on DIIS***
  2   -539.9614681224  -0.053289542416 0.03889969  0.00055699  0.0960919 0.8500
  3   -540.0010362923  -0.039568169899 0.03217493  0.00039776  0.0729695 0.8500
  4   -540.0314807040  -0.030444411673 0.02685895  0.00030522  0.0581441 0.8500
  5   -540.0553999561  -0.023919252163 0.02278603  0.00025070  0.0480709 0.8500
  6   -540.0747886073  -0.019388651128 0.01950393  0.00021188  0.0404111 0.8500
  7   -540.0907927633  -0.016004156044 0.01685515  0.00018280  0.0342066 0.8500
  8   -540.1041481810  -0.013355417641 0.09738268  0.00105187  0.0289259 0.0000
  9   -540.1757061824  -0.071558001433 0.00199810  0.00003930  0.0012799 0.0000
                      *** Initiating the SOSCF procedure ***
                           *** Shutting down DIIS ***
                      *** Re-Reading the Fockian *** 
                      *** Removing any level shift *** 
ITER      Energy       Delta-E        Grad      Rot      Max-DP    RMS-DP
 10   -540.17573365  -0.0000274649  0.000302  0.000302  0.001229  0.000020
               *** Restarting incremental Fock matrix formation ***
 11   -540.17565498   0.0000786715  0.000231  0.000515  0.001146  0.000013
 12   -540.17565585  -0.0000008703  0.000066  0.000315  0.000357  0.000009
 13   -540.17565608  -0.0000002318  0.000031  0.000028  0.000241  0.000003
 14   -540.17565612  -0.0000000375  0.000006  0.000014  0.000092  0.000001
                  ***Gradient check signals convergence***
              ***Rediagonalizing the Fockian in SOSCF/NRSCF***

               *****************************************************
               *                     SUCCESS                       *
               *           SCF CONVERGED AFTER  15 CYCLES          *
               *****************************************************

Old exchange energy                            =    -25.343078327 Eh
New exchange energy                            =    -25.343050120 Eh
Exchange energy change after final integration =      0.000028208 Eh
Total energy after final integration           =   -540.175627927 Eh
Final COS-X integration done in                =    94.201 sec

----------------
TOTAL SCF ENERGY
----------------

Total Energy       :         -540.17562793 Eh          -14698.92611 eV

Components:
Nuclear Repulsion  :          861.08431939 Eh           23431.29555 eV
Electronic Energy  :        -1401.25994732 Eh          -38130.22167 eV
One Electron Energy:        -2437.40498945 Eh          -66325.16167 eV
Two Electron Energy:         1036.14504213 Eh           28194.94000 eV
Max COSX asymmetry :            0.00000349 Eh               0.00010 eV
CPCM Dielectric    :           -0.01270400 Eh              -0.34569 eV

Virial components:
Potential Energy   :        -1074.17707744 Eh          -29229.84429 eV
Kinetic Energy     :          534.00144951 Eh           14530.91818 eV
Virial Ratio       :            2.01156210


DFT components:
N(Alpha)           :       50.000073350033 electrons
N(Beta)            :       50.000073350033 electrons
N(Total)           :      100.000146700065 electrons
E(XC)              :      -55.564005947310 Eh       
DFET-embed. en.    :        0.000000000000 Eh       
CPCM Solvation Model Properties:
Surface-charge          :           -0.02902566
Charge-correction       :           -0.00034223 Eh              -0.00931 eV
Free-energy (cav+disp)  :  This term is not implemented in the current solvation scheme

---------------
SCF CONVERGENCE
---------------

  Last Energy change         ...   -1.9333e-08  Tolerance :   1.0000e-08
  Last MAX-Density change    ...    4.8850e-15  Tolerance :   1.0000e-07
  Last RMS-Density change    ...    4.8730e-17  Tolerance :   5.0000e-09
  Last Orbital Gradient      ...    1.8041e-06  Tolerance :   1.0000e-05
  Last Orbital Rotation      ...    9.0907e-06  Tolerance :   1.0000e-05

             **** THE GBW FILE WAS UPDATED (5_deprot_aq_2.gbw) ****
             **** DENSITY 5_deprot_aq_2.scfp WAS UPDATED ****
             **** ENERGY FILE WAS UPDATED (5_deprot_aq_2.en.tmp) ****
             **** THE GBW FILE WAS UPDATED (5_deprot_aq_2.gbw) ****
             **** DENSITY 5_deprot_aq_2.scfp WAS UPDATED ****
----------------
ORBITAL ENERGIES
----------------

  NO   OCC          E(Eh)            E(eV) 
   0   2.0000     -14.443844      -393.0370 
   1   2.0000     -14.442873      -393.0106 
   2   2.0000     -10.311841      -280.5995 
   3   2.0000     -10.311526      -280.5909 
   4   2.0000     -10.288724      -279.9704 
   5   2.0000     -10.287281      -279.9311 
   6   2.0000     -10.267694      -279.3982 
   7   2.0000     -10.257879      -279.1311 
   8   2.0000     -10.256674      -279.0983 
   9   2.0000     -10.256425      -279.0915 
  10   2.0000     -10.254757      -279.0461 
  11   2.0000     -10.250989      -278.9436 
  12   2.0000     -10.249677      -278.9079 
  13   2.0000      -1.150474       -31.3060 
  14   2.0000      -1.050081       -28.5742 
  15   2.0000      -0.952953       -25.9312 
  16   2.0000      -0.899380       -24.4734 
  17   2.0000      -0.865813       -23.5600 
  18   2.0000      -0.813849       -22.1460 
  19   2.0000      -0.811247       -22.0752 
  20   2.0000      -0.809134       -22.0177 
  21   2.0000      -0.804234       -21.8843 
  22   2.0000      -0.761826       -20.7303 
  23   2.0000      -0.723181       -19.6788 
  24   2.0000      -0.657335       -17.8870 
  25   2.0000      -0.653906       -17.7937 
  26   2.0000      -0.615285       -16.7428 
  27   2.0000      -0.585111       -15.9217 
  28   2.0000      -0.580488       -15.7959 
  29   2.0000      -0.559866       -15.2347 
  30   2.0000      -0.556193       -15.1348 
  31   2.0000      -0.553423       -15.0594 
  32   2.0000      -0.532772       -14.4975 
  33   2.0000      -0.530931       -14.4474 
  34   2.0000      -0.525719       -14.3056 
  35   2.0000      -0.503982       -13.7140 
  36   2.0000      -0.492814       -13.4102 
  37   2.0000      -0.484864       -13.1938 
  38   2.0000      -0.481995       -13.1158 
  39   2.0000      -0.475921       -12.9505 
  40   2.0000      -0.467272       -12.7151 
  41   2.0000      -0.467175       -12.7125 
  42   2.0000      -0.466120       -12.6838 
  43   2.0000      -0.447251       -12.1703 
  44   2.0000      -0.435446       -11.8491 
  45   2.0000      -0.432446       -11.7675 
  46   2.0000      -0.427188       -11.6244 
  47   2.0000      -0.367025        -9.9873 
  48   2.0000      -0.320562        -8.7229 
  49   2.0000      -0.310041        -8.4367 
  50   0.0000       0.126009         3.4289 
  51   0.0000       0.127595         3.4720 
  52   0.0000       0.144406         3.9295 
  53   0.0000       0.152658         4.1540 
  54   0.0000       0.185330         5.0431 
  55   0.0000       0.189551         5.1579 
  56   0.0000       0.191757         5.2180 
  57   0.0000       0.204125         5.5545 
  58   0.0000       0.207177         5.6376 
  59   0.0000       0.210735         5.7344 
  60   0.0000       0.217162         5.9093 
  61   0.0000       0.222671         6.0592 
  62   0.0000       0.231097         6.2885 
  63   0.0000       0.235123         6.3980 
  64   0.0000       0.249777         6.7968 
  65   0.0000       0.261166         7.1067 
  66   0.0000       0.266956         7.2642 
  67   0.0000       0.271808         7.3963 
  68   0.0000       0.276042         7.5115 
  69   0.0000       0.277984         7.5643 
  70   0.0000       0.284826         7.7505 
  71   0.0000       0.286169         7.7870 
  72   0.0000       0.289636         7.8814 
  73   0.0000       0.295445         8.0395 
  74   0.0000       0.302268         8.2251 
  75   0.0000       0.308563         8.3964 
  76   0.0000       0.315652         8.5893 
  77   0.0000       0.325776         8.8648 
  78   0.0000       0.342452         9.3186 
  79   0.0000       0.352038         9.5794 
  80   0.0000       0.363079         9.8799 
  81   0.0000       0.379905        10.3377 
  82   0.0000       0.386477        10.5166 
  83   0.0000       0.440748        11.9934 
  84   0.0000       0.454106        12.3568 
  85   0.0000       0.487704        13.2711 
  86   0.0000       0.494648        13.4601 
  87   0.0000       0.496692        13.5157 
  88   0.0000       0.510360        13.8876 
  89   0.0000       0.517215        14.0741 
  90   0.0000       0.523095        14.2341 
  91   0.0000       0.531298        14.4574 
  92   0.0000       0.560127        15.2418 
  93   0.0000       0.570361        15.5203 
  94   0.0000       0.587218        15.9790 
  95   0.0000       0.618324        16.8255 
  96   0.0000       0.622490        16.9388 
  97   0.0000       0.634962        17.2782 
  98   0.0000       0.651696        17.7335 
  99   0.0000       0.663598        18.0574 
 100   0.0000       0.670487        18.2449 
 101   0.0000       0.675655        18.3855 
 102   0.0000       0.680711        18.5231 
 103   0.0000       0.688866        18.7450 
 104   0.0000       0.715345        19.4655 
 105   0.0000       0.719684        19.5836 
 106   0.0000       0.741848        20.1867 
 107   0.0000       0.746532        20.3142 
 108   0.0000       0.749934        20.4067 
 109   0.0000       0.753724        20.5099 
 110   0.0000       0.758180        20.6311 
 111   0.0000       0.763226        20.7684 
 112   0.0000       0.768117        20.9015 
 113   0.0000       0.773286        21.0422 
 114   0.0000       0.778191        21.1757 
 115   0.0000       0.791610        21.5408 
 116   0.0000       0.792595        21.5676 
 117   0.0000       0.798404        21.7257 
 118   0.0000       0.801867        21.8199 
 119   0.0000       0.809182        22.0190 
 120   0.0000       0.811099        22.0711 
 121   0.0000       0.815114        22.1804 
 122   0.0000       0.817430        22.2434 
 123   0.0000       0.822970        22.3942 
 124   0.0000       0.824253        22.4291 
 125   0.0000       0.834511        22.7082 
 126   0.0000       0.841346        22.8942 
 127   0.0000       0.843624        22.9562 
 128   0.0000       0.849031        23.1033 
 129   0.0000       0.852278        23.1917 
 130   0.0000       0.857001        23.3202 
 131   0.0000       0.860044        23.4030 
 132   0.0000       0.865718        23.5574 
 133   0.0000       0.868343        23.6288 
 134   0.0000       0.871617        23.7179 
 135   0.0000       0.880489        23.9593 
 136   0.0000       0.887930        24.1618 
 137   0.0000       0.923365        25.1261 
 138   0.0000       0.961449        26.1624 
 139   0.0000       0.990108        26.9422 
 140   0.0000       1.054812        28.7029 
 141   0.0000       1.065830        29.0027 
 142   0.0000       1.069233        29.0953 
 143   0.0000       1.083472        29.4828 
 144   0.0000       1.088396        29.6168 
 145   0.0000       1.110391        30.2153 
 146   0.0000       1.119808        30.4715 
 147   0.0000       1.153891        31.3990 
 148   0.0000       1.209019        32.8991 
 149   0.0000       1.224466        33.3194 
 150   0.0000       1.239045        33.7161 
 151   0.0000       1.251782        34.0627 
 152   0.0000       1.262502        34.3544 
 153   0.0000       1.302561        35.4445 
 154   0.0000       1.319010        35.8921 
 155   0.0000       1.329917        36.1889 
 156   0.0000       1.357614        36.9426 
 157   0.0000       1.376484        37.4560 
 158   0.0000       1.387560        37.7574 
 159   0.0000       1.392676        37.8966 
 160   0.0000       1.422098        38.6972 
 161   0.0000       1.438644        39.1475 
 162   0.0000       1.465685        39.8833 
 163   0.0000       1.487867        40.4869 
 164   0.0000       1.530932        41.6588 
 165   0.0000       1.574775        42.8518 
 166   0.0000       1.604240        43.6536 
 167   0.0000       1.644819        44.7578 
 168   0.0000       1.657509        45.1031 
 169   0.0000       1.660828        45.1934 
 170   0.0000       1.662611        45.2419 
 171   0.0000       1.670450        45.4553 
 172   0.0000       1.672625        45.5145 
 173   0.0000       1.677010        45.6338 
 174   0.0000       1.691003        46.0145 
 175   0.0000       1.693778        46.0900 
 176   0.0000       1.699766        46.2530 
 177   0.0000       1.736422        47.2504 
 178   0.0000       1.768688        48.1285 
 179   0.0000       1.786965        48.6258 
 180   0.0000       1.823202        49.6118 
 181   0.0000       1.829739        49.7897 
 182   0.0000       1.842372        50.1335 
 183   0.0000       1.852049        50.3968 
 184   0.0000       1.863241        50.7014 
 185   0.0000       1.865029        50.7500 
 186   0.0000       1.877610        51.0924 
 187   0.0000       1.884044        51.2675 
 188   0.0000       1.889350        51.4118 
 189   0.0000       1.910539        51.9884 
 190   0.0000       1.915800        52.1316 
 191   0.0000       1.935422        52.6655 
 192   0.0000       1.949189        53.0401 
 193   0.0000       1.954109        53.1740 
 194   0.0000       1.960345        53.3437 
 195   0.0000       1.962782        53.4100 
 196   0.0000       1.966371        53.5077 
 197   0.0000       1.969712        53.5986 
 198   0.0000       1.969928        53.6045 
 199   0.0000       1.977458        53.8094 
 200   0.0000       1.981565        53.9211 
 201   0.0000       1.991308        54.1863 
 202   0.0000       1.999220        54.4015 
 203   0.0000       2.009006        54.6678 
 204   0.0000       2.010814        54.7170 
 205   0.0000       2.027368        55.1675 
 206   0.0000       2.045076        55.6493 
 207   0.0000       2.057086        55.9761 
 208   0.0000       2.060830        56.0780 
 209   0.0000       2.079502        56.5861 
 210   0.0000       2.096502        57.0487 
 211   0.0000       2.101646        57.1887 
 212   0.0000       2.113989        57.5246 
 213   0.0000       2.131634        58.0047 
 214   0.0000       2.140828        58.2549 
 215   0.0000       2.142005        58.2869 
 216   0.0000       2.153321        58.5949 
 217   0.0000       2.196949        59.7820 
 218   0.0000       2.228830        60.6495 
 219   0.0000       2.260992        61.5247 
 220   0.0000       2.278067        61.9894 
 221   0.0000       2.283567        62.1390 
 222   0.0000       2.295646        62.4677 
 223   0.0000       2.299155        62.5632 
 224   0.0000       2.319099        63.1059 
 225   0.0000       2.327314        63.3294 
 226   0.0000       2.329593        63.3915 
 227   0.0000       2.357683        64.1558 
 228   0.0000       2.372897        64.5698 
 229   0.0000       2.386182        64.9313 
 230   0.0000       2.476192        67.3806 
 231   0.0000       2.482952        67.5646 
 232   0.0000       2.494279        67.8728 
 233   0.0000       2.511532        68.3423 
 234   0.0000       2.520628        68.5898 
 235   0.0000       2.526075        68.7380 
 236   0.0000       2.539003        69.0898 
 237   0.0000       2.544245        69.2324 
 238   0.0000       2.550857        69.4124 
 239   0.0000       2.578669        70.1691 
 240   0.0000       2.585916        70.3664 
 241   0.0000       2.593479        70.5722 
 242   0.0000       2.632384        71.6308 
 243   0.0000       2.635237        71.7085 
 244   0.0000       2.662272        72.4441 
 245   0.0000       2.668245        72.6066 
 246   0.0000       2.695515        73.3487 
 247   0.0000       2.701678        73.5164 
 248   0.0000       2.756935        75.0200 
 249   0.0000       2.765133        75.2431 
 250   0.0000       2.773850        75.4803 
 251   0.0000       2.784278        75.7640 
 252   0.0000       2.840401        77.2913 
 253   0.0000       2.841344        77.3169 
 254   0.0000       2.843373        77.3721 
 255   0.0000       2.862247        77.8857 
 256   0.0000       2.869557        78.0846 
 257   0.0000       2.929237        79.7086 
 258   0.0000       2.972692        80.8911 
 259   0.0000       2.984790        81.2203 
 260   0.0000       2.998593        81.5959 
 261   0.0000       3.000635        81.6514 
 262   0.0000       3.012628        81.9778 
 263   0.0000       3.028577        82.4118 
 264   0.0000       3.032918        82.5299 
 265   0.0000       3.044326        82.8403 
 266   0.0000       3.049554        82.9826 
 267   0.0000       3.068891        83.5088 
 268   0.0000       3.089478        84.0690 
 269   0.0000       3.092209        84.1433 
 270   0.0000       3.094901        84.2165 
 271   0.0000       3.106834        84.5413 
 272   0.0000       3.118546        84.8599 
 273   0.0000       3.124658        85.0263 
 274   0.0000       3.154120        85.8280 
 275   0.0000       3.184630        86.6582 
 276   0.0000       3.215247        87.4913 
 277   0.0000       3.222062        87.6768 
 278   0.0000       3.348146        91.1077 
 279   0.0000       3.479415        94.6797 
 280   0.0000       3.497555        95.1733 
 281   0.0000       3.690581       100.4258 

                    ********************************
                    * MULLIKEN POPULATION ANALYSIS *
                    ********************************

-----------------------
MULLIKEN ATOMIC CHARGES
-----------------------
   0 N :   -0.177923
   1 C :   -0.192750
   2 N :   -0.192420
   3 C :    0.027179
   4 C :    0.020843
   5 C :   -0.238988
   6 C :   -0.218674
   7 C :    0.058625
   8 C :    0.053513
   9 C :    0.105073
  10 C :    0.036366
  11 C :    0.072578
  12 C :    0.071738
  13 H :    0.042071
  14 H :    0.050610
  15 H :    0.012555
  16 H :    0.014436
  17 H :    0.025938
  18 H :    0.027838
  19 H :    0.034031
  20 H :    0.027774
  21 H :    0.021073
  22 H :    0.024962
  23 H :    0.030852
  24 H :    0.020311
  25 H :    0.025189
  26 H :    0.016491
  27 H :    0.028871
  28 H :    0.029025
  29 H :    0.034670
  30 H :    0.033509
  31 H :    0.038236
  32 H :    0.036397
Sum of atomic charges:    0.0000000

--------------------------------
MULLIKEN REDUCED ORBITAL CHARGES
--------------------------------
  0 N s       :     3.376646  s :     3.376646
      pz      :     1.420390  p :     3.768728
      px      :     1.151965
      py      :     1.196372
      dz2     :     0.004358  d :     0.032549
      dxz     :     0.005305
      dyz     :     0.004697
      dx2y2   :     0.010361
      dxy     :     0.007828
  1 C s       :     3.618677  s :     3.618677
      pz      :     0.799111  p :     2.509067
      px      :     0.658293
      py      :     1.051662
      dz2     :     0.008410  d :     0.065007
      dxz     :     0.015267
      dyz     :     0.008734
      dx2y2   :     0.008158
      dxy     :     0.024438
  2 N s       :     3.382486  s :     3.382486
      pz      :     1.425880  p :     3.777648
      px      :     1.157232
      py      :     1.194535
      dz2     :     0.004474  d :     0.032286
      dxz     :     0.004910
      dyz     :     0.004782
      dx2y2   :     0.009992
      dxy     :     0.008129
  3 C s       :     3.146668  s :     3.146668
      pz      :     1.013219  p :     2.777479
      px      :     0.900139
      py      :     0.864122
      dz2     :     0.005708  d :     0.048674
      dxz     :     0.009489
      dyz     :     0.008431
      dx2y2   :     0.012864
      dxy     :     0.012182
  4 C s       :     3.143191  s :     3.143191
      pz      :     1.023193  p :     2.787657
      px      :     0.903362
      py      :     0.861102
      dz2     :     0.005895  d :     0.048309
      dxz     :     0.008799
      dyz     :     0.008589
      dx2y2   :     0.013007
      dxy     :     0.012018
  5 C s       :     3.223736  s :     3.223736
      pz      :     1.039629  p :     2.949772
      px      :     0.848656
      py      :     1.061487
      dz2     :     0.012458  d :     0.065480
      dxz     :     0.013836
      dyz     :     0.011664
      dx2y2   :     0.015885
      dxy     :     0.011637
  6 C s       :     3.211757  s :     3.211757
      pz      :     1.064720  p :     2.941540
      px      :     0.844648
      py      :     1.032172
      dz2     :     0.013807  d :     0.065377
      dxz     :     0.010313
      dyz     :     0.012967
      dx2y2   :     0.014028
      dxy     :     0.014261
  7 C s       :     2.973298  s :     2.973298
      pz      :     0.975498  p :     2.941680
      px      :     0.989348
      py      :     0.976833
      dz2     :     0.005445  d :     0.026397
      dxz     :     0.005231
      dyz     :     0.005418
      dx2y2   :     0.007323
      dxy     :     0.002980
  8 C s       :     2.975202  s :     2.975202
      pz      :     0.948824  p :     2.944930
      px      :     0.986584
      py      :     1.009522
      dz2     :     0.004591  d :     0.026354
      dxz     :     0.005173
      dyz     :     0.007306
      dx2y2   :     0.005980
      dxy     :     0.003304
  9 C s       :     2.938474  s :     2.938474
      pz      :     1.002623  p :     2.929676
      px      :     0.976028
      py      :     0.951025
      dz2     :     0.004827  d :     0.026777
      dxz     :     0.005021
      dyz     :     0.006344
      dx2y2   :     0.006945
      dxy     :     0.003640
 10 C s       :     2.978286  s :     2.978286
      pz      :     1.008962  p :     2.959088
      px      :     0.984183
      py      :     0.965943
      dz2     :     0.004787  d :     0.026261
      dxz     :     0.002378
      dyz     :     0.008623
      dx2y2   :     0.004317
      dxy     :     0.006155
 11 C s       :     2.960680  s :     2.960680
      pz      :     0.949569  p :     2.940255
      px      :     0.992615
      py      :     0.998072
      dz2     :     0.007210  d :     0.026487
      dxz     :     0.001459
      dyz     :     0.007445
      dx2y2   :     0.003710
      dxy     :     0.006663
 12 C s       :     2.968725  s :     2.968725
      pz      :     0.955511  p :     2.933031
      px      :     0.995454
      py      :     0.982065
      dz2     :     0.007239  d :     0.026507
      dxz     :     0.001624
      dyz     :     0.007257
      dx2y2   :     0.004249
      dxy     :     0.006137
 13 H s       :     0.932754  s :     0.932754
      pz      :     0.006826  p :     0.025175
      px      :     0.008299
      py      :     0.010050
 14 H s       :     0.924335  s :     0.924335
      pz      :     0.006452  p :     0.025056
      px      :     0.008857
      py      :     0.009747
 15 H s       :     0.963000  s :     0.963000
      pz      :     0.008395  p :     0.024444
      px      :     0.007452
      py      :     0.008597
 16 H s       :     0.961019  s :     0.961019
      pz      :     0.012355  p :     0.024546
      px      :     0.008275
      py      :     0.003916
 17 H s       :     0.949861  s :     0.949861
      pz      :     0.005207  p :     0.024202
      px      :     0.014112
      py      :     0.004883
 18 H s       :     0.947748  s :     0.947748
      pz      :     0.006151  p :     0.024414
      px      :     0.004887
      py      :     0.013375
 19 H s       :     0.941545  s :     0.941545
      pz      :     0.004999  p :     0.024423
      px      :     0.014215
      py      :     0.005209
 20 H s       :     0.948142  s :     0.948142
      pz      :     0.012271  p :     0.024084
      px      :     0.007371
      py      :     0.004441
 21 H s       :     0.954683  s :     0.954683
      pz      :     0.004164  p :     0.024244
      px      :     0.008829
      py      :     0.011252
 22 H s       :     0.950863  s :     0.950863
      pz      :     0.011377  p :     0.024175
      px      :     0.005108
      py      :     0.007691
 23 H s       :     0.944754  s :     0.944754
      pz      :     0.004205  p :     0.024394
      px      :     0.014392
      py      :     0.005797
 24 H s       :     0.954364  s :     0.954364
      pz      :     0.004223  p :     0.025325
      px      :     0.011063
      py      :     0.010039
 25 H s       :     0.950554  s :     0.950554
      pz      :     0.004180  p :     0.024257
      px      :     0.013844
      py      :     0.006234
 26 H s       :     0.959274  s :     0.959274
      pz      :     0.011206  p :     0.024235
      px      :     0.005551
      py      :     0.007479
 27 H s       :     0.946661  s :     0.946661
      pz      :     0.006063  p :     0.024469
      px      :     0.004872
      py      :     0.013533
 28 H s       :     0.946898  s :     0.946898
      pz      :     0.008176  p :     0.024077
      px      :     0.006866
      py      :     0.009035
 29 H s       :     0.940898  s :     0.940898
      pz      :     0.004215  p :     0.024431
      px      :     0.014002
      py      :     0.006214
 30 H s       :     0.942353  s :     0.942353
      pz      :     0.010343  p :     0.024138
      px      :     0.005444
      py      :     0.008351
 31 H s       :     0.937307  s :     0.937307
      pz      :     0.005747  p :     0.024457
      px      :     0.013479
      py      :     0.005231
 32 H s       :     0.939167  s :     0.939167
      pz      :     0.012668  p :     0.024435
      px      :     0.004778
      py      :     0.006989


                     *******************************
                     * LOEWDIN POPULATION ANALYSIS *
                     *******************************

----------------------
LOEWDIN ATOMIC CHARGES
----------------------
   0 N :    0.046365
   1 C :   -0.288352
   2 N :    0.042516
   3 C :   -0.031922
   4 C :   -0.036050
   5 C :    0.001962
   6 C :    0.003909
   7 C :   -0.045686
   8 C :   -0.045925
   9 C :   -0.042041
  10 C :   -0.047299
  11 C :   -0.045830
  12 C :   -0.045004
  13 H :    0.033394
  14 H :    0.032956
  15 H :    0.021000
  16 H :    0.020643
  17 H :    0.025889
  18 H :    0.025152
  19 H :    0.031314
  20 H :    0.026574
  21 H :    0.023248
  22 H :    0.024576
  23 H :    0.029020
  24 H :    0.017648
  25 H :    0.025449
  26 H :    0.022944
  27 H :    0.025315
  28 H :    0.026955
  29 H :    0.031817
  30 H :    0.028050
  31 H :    0.034724
  32 H :    0.026689

-------------------------------
LOEWDIN REDUCED ORBITAL CHARGES
-------------------------------
  0 N s       :     3.056805  s :     3.056805
      pz      :     1.375824  p :     3.818986
      px      :     1.197328
      py      :     1.245835
      dz2     :     0.008627  d :     0.077844
      dxz     :     0.011395
      dyz     :     0.010668
      dx2y2   :     0.025831
      dxy     :     0.021323
  1 C s       :     3.186840  s :     3.186840
      pz      :     0.888389  p :     2.959736
      px      :     0.828036
      py      :     1.243311
      dz2     :     0.016806  d :     0.141776
      dxz     :     0.034299
      dyz     :     0.013620
      dx2y2   :     0.019804
      dxy     :     0.057246
  2 N s       :     3.057218  s :     3.057218
      pz      :     1.381469  p :     3.823096
      px      :     1.196415
      py      :     1.245213
      dz2     :     0.008738  d :     0.077170
      dxz     :     0.010785
      dyz     :     0.010673
      dx2y2   :     0.024973
      dxy     :     0.022001
  3 C s       :     2.850106  s :     2.850106
      pz      :     1.035703  p :     3.059298
      px      :     1.052753
      py      :     0.970842
      dz2     :     0.012363  d :     0.122518
      dxz     :     0.021506
      dyz     :     0.019540
      dx2y2   :     0.036542
      dxy     :     0.032566
  4 C s       :     2.849815  s :     2.849815
      pz      :     1.039408  p :     3.064648
      px      :     1.056036
      py      :     0.969203
      dz2     :     0.012847  d :     0.121588
      dxz     :     0.019729
      dyz     :     0.019763
      dx2y2   :     0.037065
      dxy     :     0.032185
  5 C s       :     2.835926  s :     2.835926
[...]
     43      -0.000300  -0.584448  -0.305468
     44      -0.000149  -0.304737  -0.159133
     45      -0.000385  -0.000053  -0.000019
     46       0.000992  -0.000133  -0.000131
     47      -0.000887  -0.000067   0.000045
     48      -0.004029  -0.000139   0.000073
     49       0.000054  -0.000127  -0.000064
     50       0.007521   0.000076  -0.000278
     51      -0.007619   0.001960   0.000632
     52      -0.001693   0.000850   0.000371
     53      -0.001260   0.000513   0.000202
     54       0.000008  -0.000429  -0.000224
     55      -0.000210  -0.012917  -0.005356
     56      -0.000110  -0.006094  -0.002620
     57      -0.001754  -0.001496  -0.000712
     58      -0.000373  -0.000909  -0.000360
     59      -0.000400  -0.000324  -0.000120
     60      -0.000319   0.001935   0.000742
     61      -0.000045   0.000180   0.000062
     62       0.000623  -0.003500  -0.001287
     63       0.019887   0.000379  -0.000241
     64       0.028654   0.000692  -0.000517
     65      -0.004436  -0.000123   0.000060
     66       0.000450  -0.000026   0.000048
     67      -0.000528   0.000193  -0.000146
     68      -0.001094   0.000572  -0.000556
     69       0.035485   0.000893  -0.000580
     70      -0.011471  -0.000287   0.000278
     71      -0.001810   0.000198  -0.000182
     72       0.494107  -0.000638   0.000112
     73       0.736010  -0.000867  -0.000064
     74      -0.054694   0.000108  -0.000093
     75       0.333462   0.001288  -0.001460
     76      -0.094894  -0.000494   0.000537
     77      -0.025147  -0.000268   0.000487
     78      -0.084215   0.000099   0.000125
     79       0.134986  -0.000135  -0.000211
     80      -0.229408   0.000404   0.000140
     81       0.000008  -0.000941  -0.000467
     82      -0.000357  -0.018456  -0.007623
     83      -0.000181  -0.008849  -0.003551
     84      -0.000178   0.002032   0.000792
     85       0.000346  -0.003267  -0.001202
     86      -0.000285   0.003157   0.001203
     87      -0.001677  -0.002320  -0.000936
     88      -0.000416  -0.000928  -0.000333
     89      -0.000185  -0.000825  -0.000333
     90       0.003742   0.001375  -0.001822
     91      -0.006470  -0.002681   0.003704
     92       0.010087   0.003048  -0.003994
     93       0.023620  -0.002960   0.003939
     94      -0.006420   0.001434  -0.002031
     95      -0.003706   0.000600  -0.000805
     96      -0.000024  -0.002015   0.003708
     97      -0.005994   0.010990  -0.015817
     98      -0.009066   0.016236  -0.023403


-----------
IR SPECTRUM
-----------

 Mode   freq       eps      Int      T**2         TX        TY        TZ
       cm**-1   L/(mol*cm) km/mol    a.u.
----------------------------------------------------------------------------
  7:     19.95   0.000177    0.89  0.002768  ( 0.006914 -0.025905  0.045267)
  8:    112.02   0.003443   17.40  0.009591  (-0.004577 -0.044436  0.087151)
  9:    145.81   0.000407    2.06  0.000871  ( 0.001773  0.029294  0.003150)
 10:    166.18   0.000095    0.48  0.000178  (-0.003416  0.010508 -0.007449)
 11:    223.91   0.000015    0.08  0.000021  (-0.003959  0.001787  0.001517)
 12:    227.77   0.000069    0.35  0.000094  (-0.001140  0.005698 -0.007779)
 13:    266.58   0.000107    0.54  0.000125  (-0.010865  0.002676  0.000213)
 14:    271.59   0.000145    0.74  0.000167  ( 0.012609  0.002353 -0.001627)
 15:    279.61   0.000009    0.05  0.000010  (-0.003111  0.000734  0.000268)
 16:    287.99   0.000268    1.35  0.000290  ( 0.016991 -0.001152  0.000597)
 17:    300.58   0.000011    0.06  0.000011  ( 0.001011  0.001302 -0.002938)
 18:    316.88   0.000225    1.13  0.000221  ( 0.007636  0.008455 -0.009557)
 19:    339.53   0.000786    3.97  0.000722  ( 0.002159  0.020785 -0.016901)
 20:    352.72   0.000779    3.94  0.000690  (-0.000976  0.002225 -0.026148)
 21:    364.05   0.000048    0.24  0.000041  (-0.005338  0.001353  0.003291)
 22:    372.52   0.001133    5.72  0.000949  ( 0.030502 -0.000151  0.004310)
 23:    414.87   0.000252    1.27  0.000190  ( 0.013230  0.001699 -0.003436)
 24:    451.36   0.001891    9.55  0.001307  (-0.004579 -0.017097  0.031525)
 25:    474.21   0.000087    0.44  0.000057  (-0.003350 -0.005297 -0.004246)
 26:    478.15   0.000173    0.88  0.000113  ( 0.001004 -0.008802 -0.005876)
 27:    533.46   0.001995   10.08  0.001167  (-0.034152  0.000389 -0.000889)
 28:    582.39   0.000295    1.49  0.000158  ( 0.000345  0.011566  0.004933)
 29:    656.93   0.004618   23.34  0.002194  (-0.046725 -0.002595  0.001917)
 30:    678.66   0.001900    9.60  0.000874  (-0.001339  0.013659 -0.026178)
 31:    685.62   0.000002    0.01  0.000001  ( 0.000690  0.000669 -0.000295)
 32:    757.26   0.014256   72.04  0.005875  ( 0.002456 -0.036147  0.067543)
 33:    845.74   0.000067    0.34  0.000025  ( 0.003227  0.003707  0.000849)
 34:    855.55   0.000934    4.72  0.000341  ( 0.018321 -0.001209  0.001919)
 35:    892.80   0.000026    0.13  0.000009  (-0.002850  0.000463  0.000814)
 36:    941.41   0.000269    1.36  0.000089  ( 0.001670  0.003902 -0.008440)
 37:    944.78   0.000449    2.27  0.000148  ( 0.007606  0.007229 -0.006169)
 38:    948.55   0.000484    2.45  0.000159  (-0.000953 -0.008396 -0.009379)
 39:    949.73   0.000292    1.48  0.000096  ( 0.001093  0.009007  0.003687)
 40:    958.80   0.000047    0.24  0.000015  ( 0.000241  0.002828 -0.002701)
 41:    961.82   0.000047    0.24  0.000015  ( 0.002006  0.003150  0.001208)
 42:   1005.40   0.003287   16.61  0.001020  ( 0.031936 -0.000614 -0.000142)
 43:   1023.87   0.000567    2.86  0.000173  ( 0.000272  0.011535  0.006293)
 44:   1038.69   0.000041    0.21  0.000012  ( 0.003117  0.001579  0.000276)
 45:   1042.90   0.000011    0.06  0.000003  (-0.000320  0.001432  0.001104)
 46:   1047.11   0.000134    0.68  0.000040  ( 0.000847  0.003756 -0.005025)
 47:   1047.78   0.000196    0.99  0.000058  ( 0.004670  0.005972 -0.000924)
 48:   1114.94   0.004963   25.08  0.001389  (-0.002158  0.032422  0.018258)
 49:   1167.76   0.001348    6.81  0.000360  ( 0.018703 -0.001153 -0.003004)
 50:   1217.44   0.001017    5.14  0.000261  ( 0.000214 -0.015318 -0.005091)
 51:   1257.41   0.012845   64.92  0.003188  ( 0.054725 -0.013870  0.000865)
 52:   1260.38   0.018921   95.62  0.004685  (-0.067468 -0.002652 -0.011217)
 53:   1268.97   0.002686   13.58  0.000661  (-0.004640 -0.012950  0.021711)
 54:   1272.34   0.003711   18.76  0.000910  (-0.009129 -0.012301  0.025993)
 55:   1279.87   0.028961  146.36  0.007062  (-0.084004 -0.001761  0.001346)
 56:   1362.76   0.001786    9.03  0.000409  ( 0.019845 -0.002711 -0.002804)
 57:   1377.83   0.000468    2.37  0.000106  (-0.005310 -0.008656 -0.001728)
 58:   1387.71   0.004621   23.35  0.001039  (-0.002712 -0.031920 -0.003602)
 59:   1388.56   0.010245   51.78  0.002303  (-0.001377 -0.013526  0.046018)
 60:   1388.74   0.002108   10.65  0.000474  ( 0.000027 -0.020147 -0.008235)
 61:   1398.39   0.000439    2.22  0.000098  (-0.007033 -0.005200 -0.004638)
 62:   1403.66   0.002897   14.64  0.000644  ( 0.025227  0.001454 -0.002338)
 63:   1404.84   0.001510    7.63  0.000335  ( 0.017208 -0.002873 -0.005564)
 64:   1418.36   0.012073   61.01  0.002656  ( 0.003851  0.046547  0.021790)
 65:   1437.65   0.000135    0.68  0.000029  ( 0.001259 -0.001032  0.005167)
 66:   1438.26   0.000263    1.33  0.000057  ( 0.006124 -0.003936  0.002021)
 67:   1441.47   0.000162    0.82  0.000035  (-0.001970  0.005516  0.000893)
 68:   1444.32   0.000014    0.07  0.000003  ( 0.001080 -0.000375 -0.001313)
 69:   1445.23   0.000006    0.03  0.000001  ( 0.001052 -0.000224  0.000280)
 70:   1446.81   0.000089    0.45  0.000019  ( 0.001273 -0.003527  0.002283)
 71:   1459.64   0.007686   38.84  0.001643  ( 0.038529  0.004545 -0.011752)
 72:   1460.52   0.009214   46.56  0.001969  ( 0.043889 -0.005618  0.003317)
 73:   1462.36   0.000346    1.75  0.000074  (-0.006437  0.005639 -0.000785)
 74:   1468.70   0.001323    6.69  0.000281  ( 0.012984 -0.009699 -0.004301)
 75:   1474.13   0.005652   28.56  0.001197  (-0.031637 -0.002245 -0.013805)
 76:   1478.43   0.001651    8.35  0.000349  ( 0.017597 -0.006182 -0.000829)
 77:   1482.20   0.001467    7.41  0.000309  ( 0.016649 -0.004701  0.003083)
 78:   1661.13   0.000023    0.12  0.000004  ( 0.000181  0.002071  0.000253)
 79:   3059.86   0.005223   26.39  0.000533  ( 0.003843 -0.011051  0.019893)
 80:   3063.49   0.005659   28.60  0.000576  ( 0.001052 -0.012630  0.020391)
 81:   3066.37   0.003180   16.07  0.000324  (-0.010611  0.010955  0.009541)
 82:   3068.38   0.003780   19.10  0.000384  ( 0.006338  0.017316  0.006663)
 83:   3073.89   0.003473   17.55  0.000353  (-0.011576  0.000609  0.014771)
 84:   3076.06   0.003051   15.42  0.000310  (-0.008813 -0.014176 -0.005560)
 85:   3162.93   0.004215   21.30  0.000416  (-0.002741  0.016660  0.011434)
 86:   3167.20   0.003451   17.44  0.000340  ( 0.003845 -0.004855 -0.017368)
 87:   3167.61   0.001466    7.41  0.000144  ( 0.004144 -0.009662  0.005821)
 88:   3168.28   0.005042   25.48  0.000497  (-0.006886  0.021159  0.001211)
 89:   3169.40   0.003620   18.29  0.000356  (-0.017252 -0.005968  0.004814)
 90:   3170.20   0.000833    4.21  0.000082  ( 0.003689  0.004527 -0.006919)
 91:   3171.17   0.008275   41.82  0.000814  (-0.016221  0.003443 -0.023224)
 92:   3171.92   0.004414   22.31  0.000434  ( 0.009127  0.017344  0.007080)
 93:   3175.68   0.009706   49.05  0.000954  ( 0.025403 -0.016151 -0.006904)
 94:   3176.74   0.012226   61.79  0.001201  ( 0.033645  0.002254  0.008000)
 95:   3187.49   0.004537   22.93  0.000444  (-0.006688 -0.008771  0.017958)
 96:   3196.70   0.003691   18.65  0.000360  (-0.014306 -0.010996  0.005891)
 97:   3292.01   0.001353    6.84  0.000128  ( 0.011246 -0.001193 -0.000581)
 98:   3316.48   0.000327    1.65  0.000031  (-0.004616 -0.002771 -0.001322)

* The epsilon (eps) is given for a Dirac delta lineshape.
** The dipole moment derivative (T) already includes vibrational overlap.

The first frequency considered to be a vibration is 7
The total number of vibrations considered is 92


--------------------------
THERMOCHEMISTRY AT 298.15K
--------------------------

Temperature         ... 298.15 K
Pressure            ... 1.00 atm
Total Mass          ... 180.30 AMU

Throughout the following assumptions are being made:
  (1) The electronic state is orbitally nondegenerate
  (2) There are no thermally accessible electronically excited states
  (3) Hindered rotations indicated by low frequency modes are not
      treated as such but are treated as vibrations and this may
      cause some error
  (4) All equations used are the standard statistical mechanics
      equations for an ideal gas
  (5) All vibrations are strictly harmonic

freq.      19.95  E(vib)   ...       0.56 
freq.     112.02  E(vib)   ...       0.45 
freq.     145.81  E(vib)   ...       0.41 
freq.     166.18  E(vib)   ...       0.39 
freq.     223.91  E(vib)   ...       0.33 
freq.     227.77  E(vib)   ...       0.33 
freq.     266.58  E(vib)   ...       0.29 
freq.     271.59  E(vib)   ...       0.29 
freq.     279.61  E(vib)   ...       0.28 
freq.     287.99  E(vib)   ...       0.27 
freq.     300.58  E(vib)   ...       0.26 
freq.     316.88  E(vib)   ...       0.25 
freq.     339.53  E(vib)   ...       0.23 
freq.     352.72  E(vib)   ...       0.22 
freq.     364.05  E(vib)   ...       0.22 
freq.     372.52  E(vib)   ...       0.21 
freq.     414.87  E(vib)   ...       0.19 
freq.     451.36  E(vib)   ...       0.16 
freq.     474.21  E(vib)   ...       0.15 
freq.     478.15  E(vib)   ...       0.15 
freq.     533.46  E(vib)   ...       0.13 
freq.     582.39  E(vib)   ...       0.11 
freq.     656.93  E(vib)   ...       0.08 
freq.     678.66  E(vib)   ...       0.08 
freq.     685.62  E(vib)   ...       0.07 
freq.     757.26  E(vib)   ...       0.06 
freq.     845.74  E(vib)   ...       0.04 
freq.     855.55  E(vib)   ...       0.04 
freq.     892.80  E(vib)   ...       0.03 
freq.     941.41  E(vib)   ...       0.03 
freq.     944.78  E(vib)   ...       0.03 
freq.     948.55  E(vib)   ...       0.03 
freq.     949.73  E(vib)   ...       0.03 
freq.     958.80  E(vib)   ...       0.03 
freq.     961.82  E(vib)   ...       0.03 
freq.    1005.40  E(vib)   ...       0.02 
freq.    1023.87  E(vib)   ...       0.02 
freq.    1038.69  E(vib)   ...       0.02 
freq.    1042.90  E(vib)   ...       0.02 
freq.    1047.11  E(vib)   ...       0.02 
freq.    1047.78  E(vib)   ...       0.02 
freq.    1114.94  E(vib)   ...       0.01 
freq.    1167.76  E(vib)   ...       0.01 
freq.    1217.44  E(vib)   ...       0.01 
freq.    1257.41  E(vib)   ...       0.01 
freq.    1260.38  E(vib)   ...       0.01 
freq.    1268.97  E(vib)   ...       0.01 
freq.    1272.34  E(vib)   ...       0.01 
freq.    1279.87  E(vib)   ...       0.01 
freq.    1362.76  E(vib)   ...       0.01 
freq.    1377.83  E(vib)   ...       0.01 
freq.    1387.71  E(vib)   ...       0.00 
freq.    1388.56  E(vib)   ...       0.00 
freq.    1388.74  E(vib)   ...       0.00 
freq.    1398.39  E(vib)   ...       0.00 
freq.    1403.66  E(vib)   ...       0.00 
freq.    1404.84  E(vib)   ...       0.00 
freq.    1418.36  E(vib)   ...       0.00 
freq.    1437.65  E(vib)   ...       0.00 
freq.    1438.26  E(vib)   ...       0.00 
freq.    1441.47  E(vib)   ...       0.00 
freq.    1444.32  E(vib)   ...       0.00 
freq.    1445.23  E(vib)   ...       0.00 
freq.    1446.81  E(vib)   ...       0.00 
freq.    1459.64  E(vib)   ...       0.00 
freq.    1460.52  E(vib)   ...       0.00 
freq.    1462.36  E(vib)   ...       0.00 
freq.    1468.70  E(vib)   ...       0.00 
freq.    1474.13  E(vib)   ...       0.00 
freq.    1478.43  E(vib)   ...       0.00 
freq.    1482.20  E(vib)   ...       0.00 
freq.    1661.13  E(vib)   ...       0.00 
freq.    3059.86  E(vib)   ...       0.00 
freq.    3063.49  E(vib)   ...       0.00 
freq.    3066.37  E(vib)   ...       0.00 
freq.    3068.38  E(vib)   ...       0.00 
freq.    3073.89  E(vib)   ...       0.00 
freq.    3076.06  E(vib)   ...       0.00 
freq.    3162.93  E(vib)   ...       0.00 
freq.    3167.20  E(vib)   ...       0.00 
freq.    3167.61  E(vib)   ...       0.00 
freq.    3168.28  E(vib)   ...       0.00 
freq.    3169.40  E(vib)   ...       0.00 
freq.    3170.20  E(vib)   ...       0.00 
freq.    3171.17  E(vib)   ...       0.00 
freq.    3171.92  E(vib)   ...       0.00 
freq.    3175.68  E(vib)   ...       0.00 
freq.    3176.74  E(vib)   ...       0.00 
freq.    3187.49  E(vib)   ...       0.00 
freq.    3196.70  E(vib)   ...       0.00 
freq.    3292.01  E(vib)   ...       0.00 
freq.    3316.48  E(vib)   ...       0.00 

------------
INNER ENERGY
------------

The inner energy is: U= E(el) + E(ZPE) + E(vib) + E(rot) + E(trans)
    E(el)   - is the total energy from the electronic structure calculation
              = E(kin-el) + E(nuc-el) + E(el-el) + E(nuc-nuc)
    E(ZPE)  - the the zero temperature vibrational energy from the frequency calculation
    E(vib)  - the the finite temperature correction to E(ZPE) due to population
              of excited vibrational states
    E(rot)  - is the rotational thermal energy
    E(trans)- is the translational thermal energy

Summary of contributions to the inner energy U:
Electronic energy                ...   -540.18684301 Eh
Zero point energy                ...      0.29693224 Eh     186.33 kcal/mol
Thermal vibrational correction   ...      0.01074902 Eh       6.75 kcal/mol
Thermal rotational correction    ...      0.00141627 Eh       0.89 kcal/mol
Thermal translational correction ...      0.00141627 Eh       0.89 kcal/mol
-----------------------------------------------------------------------
Total thermal energy                   -539.87632921 Eh


Summary of corrections to the electronic energy:
(perhaps to be used in another calculation)
Total thermal correction                  0.01358156 Eh       8.52 kcal/mol
Non-thermal (ZPE) correction              0.29693224 Eh     186.33 kcal/mol
-----------------------------------------------------------------------
Total correction                          0.31051380 Eh     194.85 kcal/mol


--------
ENTHALPY
--------

The enthalpy is H = U + kB*T
                kB is Boltzmann's constant
Total free energy                 ...   -539.87632921 Eh 
Thermal Enthalpy correction       ...      0.00094421 Eh       0.59 kcal/mol
-----------------------------------------------------------------------
Total Enthalpy                    ...   -539.87538500 Eh


Note: Only C1 symmetry has been detected, increase convergence thresholds 
      if your molecule has a higher symmetry. Symmetry factor of 1.0 is   
      used for the rotational entropy correction. 
 

Note: Rotational entropy computed according to Herzberg 
Infrared and Raman Spectra, Chapter V,1, Van Nostrand Reinhold, 1945 
Point Group:  C1, Symmetry Number:   1  
Rotational constants in cm-1:     0.056053     0.014894     0.013935 

Vibrational entropy computed according to the QRRHO of S. Grimme
Chem.Eur.J. 2012 18 9955


-------
ENTROPY
-------

The entropy contributions are T*S = T*(S(el)+S(vib)+S(rot)+S(trans))
     S(el)   - electronic entropy
     S(vib)  - vibrational entropy
     S(rot)  - rotational entropy
     S(trans)- translational entropy
The entropies will be listed as multiplied by the temperature to get
units of energy

Electronic entropy                ...      0.00000000 Eh      0.00 kcal/mol
Vibrational entropy               ...      0.01796896 Eh     11.28 kcal/mol
Rotational entropy                ...      0.01487451 Eh      9.33 kcal/mol
Translational entropy             ...      0.01970603 Eh     12.37 kcal/mol
-----------------------------------------------------------------------
Final entropy term                ...      0.05254950 Eh     32.98 kcal/mol

In case the symmetry of your molecule has not been determined correctly
or in case you have a reason to use a different symmetry number we print 
out the resulting rotational entropy values for sn=1,12 :
 --------------------------------------------------------
|  sn= 1 | S(rot)=       0.01487451 Eh      9.33 kcal/mol|
|  sn= 2 | S(rot)=       0.01422005 Eh      8.92 kcal/mol|
|  sn= 3 | S(rot)=       0.01383722 Eh      8.68 kcal/mol|
|  sn= 4 | S(rot)=       0.01356560 Eh      8.51 kcal/mol|
|  sn= 5 | S(rot)=       0.01335491 Eh      8.38 kcal/mol|
|  sn= 6 | S(rot)=       0.01318277 Eh      8.27 kcal/mol|
|  sn= 7 | S(rot)=       0.01303722 Eh      8.18 kcal/mol|
|  sn= 8 | S(rot)=       0.01291114 Eh      8.10 kcal/mol|
|  sn= 9 | S(rot)=       0.01279993 Eh      8.03 kcal/mol|
|  sn=10 | S(rot)=       0.01270045 Eh      7.97 kcal/mol|
|  sn=11 | S(rot)=       0.01261046 Eh      7.91 kcal/mol|
|  sn=12 | S(rot)=       0.01252831 Eh      7.86 kcal/mol|
 --------------------------------------------------------


-------------------
GIBBS FREE ENERGY
-------------------

The Gibbs free energy is G = H - T*S

Total enthalpy                    ...   -539.87538500 Eh 
Total entropy correction          ...     -0.05254950 Eh    -32.98 kcal/mol
-----------------------------------------------------------------------
Final Gibbs free energy         ...   -539.92793450 Eh

For completeness - the Gibbs free energy minus the electronic energy
G-E(el)                           ...      0.25890851 Eh    162.47 kcal/mol


Timings for individual modules:

Sum of individual times         ...     6817.420 sec (= 113.624 min)
GTO integral calculation        ...        3.339 sec (=   0.056 min)   0.0 %
SCF iterations                  ...     3445.569 sec (=  57.426 min)  50.5 %
SCF Gradient evaluation         ...      880.830 sec (=  14.681 min)  12.9 %
Geometry relaxation             ...        0.681 sec (=   0.011 min)   0.0 %
Analytical frequency calculation...     2487.000 sec (=  41.450 min)  36.5 %
                             ****ORCA TERMINATED NORMALLY****
TOTAL RUN TIME: 0 days 1 hours 53 minutes 38 seconds 716 msec
