
                                 *****************
                                 * O   R   C   A *
                                 *****************

                                            #,                                       
                                            ###                                      
                                            ####                                     
                                            #####                                    
                                            ######                                   
                                           ########,                                 
                                     ,,################,,,,,                         
                               ,,#################################,,                 
                          ,,##########################################,,             
                       ,#########################################, ''#####,          
                    ,#############################################,,   '####,        
                  ,##################################################,,,,####,       
                ,###########''''           ''''###############################       
              ,#####''   ,,,,##########,,,,          '''####'''          '####       
            ,##' ,,,,###########################,,,                        '##       
           ' ,,###''''                  '''############,,,                           
         ,,##''                                '''############,,,,        ,,,,,,###''
      ,#''                                            '''#######################'''  
     '                                                          ''''####''''         
             ,#######,   #######,   ,#######,      ##                                
            ,#'     '#,  ##    ##  ,#'     '#,    #''#        ######   ,####,        
            ##       ##  ##   ,#'  ##            #'  '#       #        #'  '#        
            ##       ##  #######   ##           ,######,      #####,   #    #        
            '#,     ,#'  ##    ##  '#,     ,#' ,#      #,         ##   #,  ,#        
             '#######'   ##     ##  '#######'  #'      '#     #####' # '####'        



                  #######################################################
                  #                        -***-                        #
                  #          Department of theory and spectroscopy      #
                  #    Directorship and core code : Frank Neese         #
                  #        Max Planck Institute fuer Kohlenforschung    #
                  #                Kaiser Wilhelm Platz 1               #
                  #                 D-45470 Muelheim/Ruhr               #
                  #                      Germany                        #
                  #                                                     #
                  #                  All rights reserved                #
                  #                        -***-                        #
                  #######################################################


                         Program Version 5.0.4 -  RELEASE  -


 With contributions from (in alphabetic order):
   Daniel Aravena         : Magnetic Suceptibility
   Michael Atanasov       : Ab Initio Ligand Field Theory (pilot matlab implementation)
   Alexander A. Auer      : GIAO ZORA, VPT2 properties, NMR spectrum
   Ute Becker             : Parallelization
   Giovanni Bistoni       : ED, misc. LED, open-shell LED, HFLD
   Martin Brehm           : Molecular dynamics
   Dmytro Bykov           : SCF Hessian
   Vijay G. Chilkuri      : MRCI spin determinant printing, contributions to CSF-ICE
   Dipayan Datta          : RHF DLPNO-CCSD density
   Achintya Kumar Dutta   : EOM-CC, STEOM-CC
   Dmitry Ganyushin       : Spin-Orbit,Spin-Spin,Magnetic field MRCI
   Miquel Garcia          : C-PCM and meta-GGA Hessian, CC/C-PCM, Gaussian charge scheme
   Yang Guo               : DLPNO-NEVPT2, F12-NEVPT2, CIM, IAO-localization
   Andreas Hansen         : Spin unrestricted coupled pair/coupled cluster methods
   Benjamin Helmich-Paris : MC-RPA, TRAH-SCF, COSX integrals
   Lee Huntington         : MR-EOM, pCC
   Robert Izsak           : Overlap fitted RIJCOSX, COSX-SCS-MP3, EOM
   Marcus Kettner         : VPT2
   Christian Kollmar      : KDIIS, OOCD, Brueckner-CCSD(T), CCSD density, CASPT2, CASPT2-K
   Simone Kossmann        : Meta GGA functionals, TD-DFT gradient, OOMP2, MP2 Hessian
   Martin Krupicka        : Initial AUTO-CI
   Lucas Lang             : DCDCAS
   Marvin Lechner         : AUTO-CI (C++ implementation), FIC-MRCC
   Dagmar Lenk            : GEPOL surface, SMD
   Dimitrios Liakos       : Extrapolation schemes; Compound Job, initial MDCI parallelization
   Dimitrios Manganas     : Further ROCIS development; embedding schemes
   Dimitrios Pantazis     : SARC Basis sets
   Anastasios Papadopoulos: AUTO-CI, single reference methods and gradients
   Taras Petrenko         : DFT Hessian,TD-DFT gradient, ASA, ECA, R-Raman, ABS, FL, XAS/XES, NRVS
   Peter Pinski           : DLPNO-MP2, DLPNO-MP2 Gradient
   Christoph Reimann      : Effective Core Potentials
   Marius Retegan         : Local ZFS, SOC
   Christoph Riplinger    : Optimizer, TS searches, QM/MM, DLPNO-CCSD(T), (RO)-DLPNO pert. Triples
   Tobias Risthaus        : Range-separated hybrids, TD-DFT gradient, RPA, STAB
   Michael Roemelt        : Original ROCIS implementation
   Masaaki Saitow         : Open-shell DLPNO-CCSD energy and density
   Barbara Sandhoefer     : DKH picture change effects
   Avijit Sen             : IP-ROCIS
   Kantharuban Sivalingam : CASSCF convergence, NEVPT2, FIC-MRCI
   Bernardo de Souza      : ESD, SOC TD-DFT
   Georgi Stoychev        : AutoAux, RI-MP2 NMR, DLPNO-MP2 response
   Willem Van den Heuvel  : Paramagnetic NMR
   Boris Wezisla          : Elementary symmetry handling
   Frank Wennmohs         : Technical directorship


 We gratefully acknowledge several colleagues who have allowed us to
 interface, adapt or use parts of their codes:
   Stefan Grimme, W. Hujo, H. Kruse, P. Pracht,  : VdW corrections, initial TS optimization,
                  C. Bannwarth, S. Ehlert          DFT functionals, gCP, sTDA/sTD-DF
   Ed Valeev, F. Pavosevic, A. Kumar             : LibInt (2-el integral package), F12 methods
   Garnet Chan, S. Sharma, J. Yang, R. Olivares  : DMRG
   Ulf Ekstrom                                   : XCFun DFT Library
   Mihaly Kallay                                 : mrcc  (arbitrary order and MRCC methods)
   Jiri Pittner, Ondrej Demel                    : Mk-CCSD
   Frank Weinhold                                : gennbo (NPA and NBO analysis)
   Christopher J. Cramer and Donald G. Truhlar   : smd solvation model
   Lars Goerigk                                  : TD-DFT with DH, B97 family of functionals
   V. Asgeirsson, H. Jonsson                     : NEB implementation
   FAccTs GmbH                                   : IRC, NEB, NEB-TS, DLPNO-Multilevel, CI-OPT
                                                   MM, QMMM, 2- and 3-layer-ONIOM, Crystal-QMMM,
                                                   LR-CPCM, SF, NACMEs, symmetry and pop. for TD-DFT,
                                                   nearIR, NL-DFT gradient (VV10), updates on ESD,
                                                   ML-optimized integration grids
   S Lehtola, MJT Oliveira, MAL Marques          : LibXC Library
   Liviu Ungur et al                             : ANISO software


 Your calculation uses the libint2 library for the computation of 2-el integrals
 For citations please refer to: http://libint.valeyev.net

 Your ORCA version has been built with support for libXC version: 5.1.0
 For citations please refer to: https://tddft.org/programs/libxc/

 This ORCA versions uses:
   CBLAS   interface :  Fast vector & matrix operations
   LAPACKE interface :  Fast linear algebra routines
   SCALAPACK package :  Parallel linear algebra routines
   Shared memory     :  Shared parallel matrices
   BLAS/LAPACK       :  OpenBLAS 0.3.15  USE64BITINT DYNAMIC_ARCH NO_AFFINITY SkylakeX SINGLE_THREADED
        Core in use  :  SkylakeX
   Copyright (c) 2011-2014, The OpenBLAS Project




***************************************
The coordinates will be read from file: 5_prot_aq_7.xyz
***************************************


Your calculation utilizes the atom-pairwise dispersion correction
based on tight binding partial charges (D4)
Cite in your paper:
E.Caldeweyher, C.Bannwarth, S.Grimme, J.Chem.Phys., (2017), 147, 034112.
E.Caldeweyher, S.Ehlert, A.Hansen, H.Neugebauer, S.Grimme, J.Chem.Phys., (2018), in progress.
   

XCFun DFT library Copyright 2009-2010 Ulf Ekstrom and contributors.
See http://admol.org/xcfun for more information.
This is free software; see the source code for copying conditions.
There is ABSOLUTELY NO WARRANTY; not even for MERCHANTABILITY or FITNESS FOR A PARTICULAR PURPOSE.
For details see the documentation.
Scientific users of this library should cite U. Ekstrom, L. Visscher, R. Bast, A. J. Thorvaldsen and K. Ruud;
J.Chem.Theor.Comp. 2010, DOI: 10.1021/ct100117s
XCFun Version 0.99 

================================================================================

----- Orbital basis set information -----
Your calculation utilizes the basis: def2-SVP
   F. Weigend and R. Ahlrichs, Phys. Chem. Chem. Phys. 7, 3297 (2005).

----- AuxJ basis set information -----
Your calculation utilizes the auxiliary basis: def2/J
   F. Weigend, Phys. Chem. Chem. Phys. 8, 1057 (2006).

================================================================================
                                        WARNINGS
                       Please study these warnings very carefully!
================================================================================

WARNING: Old DensityContainer found on disk!
         Will remove this file - 
         If you want to keep old densities, please start your calculation with a different basename. 


WARNING: Geometry Optimization
  ===> : Switching off AutoStart
         For restart on a previous wavefunction, please use MOREAD

INFO   : the flag for use of the SHARK integral package has been found!

================================================================================
                                       INPUT FILE
================================================================================
NAME = 5_prot_aq_7.inp
|  1> # ORCA 5.0.4 - /users/bwb16179/postgrad/2024_03/DFT_Crest_Conformers/Opt/prot/5_prot_aq_7.inp # write input file
|  2> # Basic Mode
|  3> #
|  4> ! Opt Freq wB97X Def2-SVP D4 SlowConv TightSCF Defgrid2 Def2/J RIJCOSX CPCM(Water)
|  5> 
|  6> 
|  7> 
|  8> %maxcore 4500
|  9> 
| 10> %geom
| 11> Maxiter 150
| 12> END
| 13> 
| 14> * xyzfile 1 1 5_prot_aq_7.xyz
| 15> 
| 16>                          ****END OF INPUT****
================================================================================

                       *****************************
                       * Geometry Optimization Run *
                       *****************************

Geometry optimization settings:
Update method            Update   .... BFGS
Choice of coordinates    CoordSys .... Z-matrix Internals
Initial Hessian          InHess   .... Almoef's Model

Convergence Tolerances:
Energy Change            TolE     ....  5.0000e-06 Eh
Max. Gradient            TolMAXG  ....  3.0000e-04 Eh/bohr
RMS Gradient             TolRMSG  ....  1.0000e-04 Eh/bohr
Max. Displacement        TolMAXD  ....  4.0000e-03 bohr
RMS Displacement         TolRMSD  ....  2.0000e-03 bohr
Strict Convergence                ....  False
------------------------------------------------------------------------------
                        ORCA OPTIMIZATION COORDINATE SETUP
------------------------------------------------------------------------------

The optimization will be done in new redundant internal coordinates
Making redundant internal coordinates   ...  (new redundants) done
Evaluating the initial hessian          ...  (Almloef) done
Evaluating the coordinates              ...  done
Calculating the B-matrix                .... done
Calculating the G-matrix                .... done
Diagonalizing the G-matrix              .... done
Small eigenvalue found = 9.465e-03
Small eigenvalue found = 2.435e-02
The first mode is                       ....   87
The number of degrees of freedom        ....   96

    -----------------------------------------------------------------
                    Redundant Internal Coordinates


    -----------------------------------------------------------------
         Definition                    Initial Value    Approx d2E/dq
    -----------------------------------------------------------------
      1. B(C   1,N   0)                  1.3332         0.689361   
      2. B(N   2,C   1)                  1.3311         0.694793   
      3. B(H   3,C   1)                  1.0879         0.362864   
      4. B(C   4,N   2)                  1.3785         0.583707   
      5. B(C   5,C   4)                  1.3605         0.696281   
      6. B(C   5,N   0)                  1.3777         0.585533   
      7. B(C   6,N   0)                  1.4977         0.376711   
      8. B(C   7,N   2)                  1.4953         0.380102   
      9. B(C   8,C   6)                  1.5301         0.373488   
     10. B(C   9,C   6)                  1.5256         0.379709   
     11. B(C  10,C   6)                  1.5301         0.373459   
     12. B(C  11,C   7)                  1.5294         0.374409   
     13. B(C  12,C   7)                  1.5300         0.373534   
     14. B(C  13,C   7)                  1.5264         0.378492   
     15. B(H  14,C   4)                  1.0873         0.363635   
     16. B(H  15,C   5)                  1.0862         0.365171   
     17. B(H  16,C   8)                  1.0998         0.347375   
     18. B(H  17,C   8)                  1.1009         0.345987   
     19. B(H  18,C   8)                  1.1006         0.346301   
     20. B(H  19,C  10)                  1.0995         0.347768   
     21. B(H  20,C  10)                  1.1006         0.346332   
     22. B(H  21,C  10)                  1.1004         0.346541   
     23. B(H  22,C  12)                  1.1007         0.346217   
     24. B(H  23,C  12)                  1.1007         0.346282   
     25. B(H  24,C  12)                  1.1000         0.347144   
     26. B(H  25,C   9)                  1.0990         0.348417   
     27. B(H  26,C   9)                  1.1003         0.346743   
     28. B(H  27,C   9)                  1.1008         0.346139   
     29. B(H  28,C  11)                  1.1000         0.347075   
     30. B(H  29,C  11)                  1.0994         0.347854   
     31. B(H  30,C  11)                  1.1005         0.346500   
     32. B(H  31,C  13)                  1.1009         0.345905   
     33. B(H  32,C  13)                  1.0989         0.348521   
     34. B(H  33,C  13)                  1.1003         0.346768   
     35. A(C   1,N   0,C   5)          108.0513         0.432184   
     36. A(C   1,N   0,C   6)          124.1811         0.399580   
     37. A(C   5,N   0,C   6)          127.7544         0.388314   
     38. A(N   0,C   1,H   3)          124.8425         0.357560   
     39. A(N   0,C   1,N   2)          109.5148         0.445734   
     40. A(N   2,C   1,H   3)          125.6374         0.358038   
     41. A(C   1,N   2,C   4)          108.0126         0.432551   
     42. A(C   1,N   2,C   7)          126.6289         0.400764   
     43. A(C   4,N   2,C   7)          125.2104         0.388710   
     44. A(C   5,C   4,H  14)          130.0908         0.360531   
     45. A(N   2,C   4,H  14)          122.6511         0.347760   
     46. A(N   2,C   4,C   5)          107.2580         0.435569   
     47. A(N   0,C   5,H  15)          122.9389         0.348190   
     48. A(C   4,C   5,H  15)          129.8992         0.360791   
     49. A(N   0,C   5,C   4)          107.1616         0.435815   
     50. A(N   0,C   6,C  10)          108.2548         0.361590   
     51. A(N   0,C   6,C   9)          109.0557         0.362616   
     52. A(C   8,C   6,C   9)          110.3466         0.364350   
     53. A(N   0,C   6,C   8)          107.8841         0.361595   
     54. A(C   9,C   6,C  10)          110.1009         0.364346   
     55. A(C   8,C   6,C  10)          111.1241         0.363318   
     56. A(C  12,C   7,C  13)          110.6054         0.364158   
     57. A(C  11,C   7,C  13)          110.0322         0.364304   
     58. A(N   2,C   7,C  13)          109.2477         0.362973   
     59. A(C  11,C   7,C  12)          110.9593         0.363483   
     60. A(N   2,C   7,C  12)          107.5982         0.362156   
     61. A(N   2,C   7,C  11)          108.3222         0.362301   
     62. A(C   6,C   8,H  18)          110.7164         0.322235   
     63. A(H  16,C   8,H  17)          108.1122         0.287399   
     64. A(C   6,C   8,H  17)          111.2822         0.322187   
     65. A(C   6,C   8,H  16)          109.3263         0.322398   
     66. A(H  17,C   8,H  18)          108.8670         0.287260   
     67. A(H  16,C   8,H  18)          108.4565         0.287440   
     68. A(H  26,C   9,H  27)          109.3249         0.287337   
     69. A(H  25,C   9,H  27)          108.0464         0.287553   
     70. A(C   6,C   9,H  27)          111.5819         0.323084   
     71. A(H  25,C   9,H  26)          107.6144         0.287632   
     72. A(C   6,C   9,H  26)          111.8859         0.323176   
     73. A(C   6,C   9,H  25)          108.2276         0.323431   
     74. A(H  20,C  10,H  21)          108.8164         0.287336   
     75. A(H  19,C  10,H  21)          107.7027         0.287522   
     76. A(C   6,C  10,H  21)          111.9191         0.322267   
     77. A(H  19,C  10,H  20)          108.5267         0.287495   
     78. A(C   6,C  10,H  20)          110.7588         0.322235   
     79. A(C   6,C  10,H  19)          109.0131         0.322454   
     80. A(H  29,C  11,H  30)          108.4360         0.287527   
     81. A(H  28,C  11,H  30)          109.0393         0.287427   
     82. A(C   7,C  11,H  30)          111.1925         0.322395   
     83. A(H  28,C  11,H  29)          107.4329         0.287602   
     84. A(C   7,C  11,H  29)          108.7204         0.322601   
     85. A(C   7,C  11,H  28)          111.8892         0.322483   
     86. A(H  23,C  12,H  24)          108.6164         0.287407   
     87. A(H  22,C  12,H  24)          108.1593         0.287399   
     88. A(C   7,C  12,H  24)          109.3582         0.322369   
     89. A(H  22,C  12,H  23)          108.8272         0.287287   
     90. A(C   7,C  12,H  23)          110.8339         0.322238   
     91. A(C   7,C  12,H  22)          110.9744         0.322228   
     92. A(H  31,C  13,H  33)          109.3139         0.287310   
     93. A(C   7,C  13,H  33)          112.2650         0.323010   
     94. A(H  31,C  13,H  32)          108.1934         0.287536   
     95. A(C   7,C  13,H  32)          108.1768         0.323277   
     96. A(H  32,C  13,H  33)          107.2260         0.287648   
     97. A(C   7,C  13,H  31)          111.4875         0.322878   
     98. D(H   3,C   1,N   0,C   6)     -0.1985         0.039206   
     99. D(N   2,C   1,N   0,C   6)    179.0021         0.039206   
    100. D(N   2,C   1,N   0,C   5)      0.2387         0.039206   
    101. D(H   3,C   1,N   0,C   5)   -178.9619         0.039206   
    102. D(C   7,N   2,C   1,N   0)   -176.1495         0.039888   
    103. D(C   4,N   2,C   1,N   0)     -0.4107         0.039888   
    104. D(C   4,N   2,C   1,H   3)    178.7820         0.039888   
    105. D(C   7,N   2,C   1,H   3)      3.0431         0.039888   
    106. D(H  14,C   4,N   2,C   1)   -179.7133         0.027350   
    107. D(C   5,C   4,N   2,C   1)      0.4220         0.027350   
    108. D(H  14,C   4,N   2,C   7)     -3.8985         0.027350   
    109. D(C   5,C   4,N   2,C   7)    176.2368         0.027350   
    110. D(H  15,C   5,N   0,C   1)   -179.7756         0.027533   
    111. D(C   4,C   5,N   0,C   6)   -178.6766         0.027533   
    112. D(C   4,C   5,N   0,C   1)      0.0296         0.027533   
    113. D(H  15,C   5,C   4,H  14)     -0.3384         0.034114   
    114. D(N   0,C   5,C   4,H  14)    179.8747         0.034114   
    115. D(N   0,C   5,C   4,N   2)     -0.2742         0.034114   
    116. D(H  15,C   5,C   4,N   2)    179.5127         0.034114   
    117. D(H  15,C   5,N   0,C   6)      1.5183         0.027533   
    118. D(C  10,C   6,N   0,C   5)   -128.5653         0.012159   
    119. D(C  10,C   6,N   0,C   1)     52.9217         0.012159   
    120. D(C   9,C   6,N   0,C   5)     -8.7768         0.012159   
    121. D(C   9,C   6,N   0,C   1)    172.7103         0.012159   
    122. D(C   8,C   6,N   0,C   5)    111.0906         0.012159   
    123. D(C   8,C   6,N   0,C   1)    -67.4223         0.012159   
    124. D(C  12,C   7,N   2,C   4)    -73.8045         0.012371   
    125. D(C  11,C   7,N   2,C   4)     46.2182         0.012371   
    126. D(C  11,C   7,N   2,C   1)   -138.7431         0.012371   
    127. D(C  13,C   7,N   2,C   1)    -18.8863         0.012371   
    128. D(C  12,C   7,N   2,C   1)    101.2342         0.012371   
    129. D(C  13,C   7,N   2,C   4)    166.0750         0.012371   
    130. D(H  18,C   8,C   6,C  10)    179.8553         0.011139   
    131. D(H  18,C   8,C   6,C   9)     57.4284         0.011139   
    132. D(H  18,C   8,C   6,N   0)    -61.6205         0.011139   
    133. D(H  17,C   8,C   6,C   9)    178.6498         0.011139   
    134. D(H  17,C   8,C   6,C  10)    -58.9234         0.011139   
    135. D(H  17,C   8,C   6,N   0)     59.6008         0.011139   
    136. D(H  16,C   8,C   6,C  10)     60.4280         0.011139   
    137. D(H  16,C   8,C   6,C   9)    -61.9988         0.011139   
    138. D(H  16,C   8,C   6,N   0)    178.9522         0.011139   
    139. D(H  27,C   9,C   6,C  10)     58.4181         0.011492   
    140. D(H  27,C   9,C   6,C   8)   -178.5561         0.011492   
    141. D(H  27,C   9,C   6,N   0)    -60.2222         0.011492   
    142. D(H  26,C   9,C   6,C  10)   -178.7336         0.011492   
    143. D(H  26,C   9,C   6,C   8)    -55.7078         0.011492   
    144. D(H  26,C   9,C   6,N   0)     62.6261         0.011492   
    145. D(H  25,C   9,C   6,C  10)    -60.3331         0.011492   
    146. D(H  25,C   9,C   6,N   0)   -178.9734         0.011492   
    147. D(H  25,C   9,C   6,C   8)     62.6927         0.011492   
    148. D(H  21,C  10,C   6,C   8)     55.6148         0.011137   
    149. D(H  21,C  10,C   6,N   0)    -62.6858         0.011137   
    150. D(H  20,C  10,C   6,C   9)    -60.1933         0.011137   
    151. D(H  20,C  10,C   6,C   8)    177.2378         0.011137   
    152. D(H  20,C  10,C   6,N   0)     58.9371         0.011137   
    153. D(H  19,C  10,C   6,C   9)     59.1489         0.011137   
    154. D(H  19,C  10,C   6,C   8)    -63.4200         0.011137   
    155. D(H  21,C  10,C   6,C   9)    178.1837         0.011137   
    156. D(H  19,C  10,C   6,N   0)    178.2794         0.011137   
    157. D(H  29,C  11,C   7,N   2)    172.9006         0.011191   
    158. D(H  28,C  11,C   7,C  13)    172.0295         0.011191   
    159. D(H  28,C  11,C   7,C  12)     49.2916         0.011191   
    160. D(H  28,C  11,C   7,N   2)    -68.6063         0.011191   
    161. D(H  30,C  11,C   7,C  13)    -65.7728         0.011191   
    162. D(H  30,C  11,C   7,C  12)    171.4893         0.011191   
    163. D(H  30,C  11,C   7,N   2)     53.5914         0.011191   
    164. D(H  29,C  11,C   7,C  13)     53.5364         0.011191   
    165. D(H  29,C  11,C   7,C  12)    -69.2015         0.011191   
    166. D(H  24,C  12,C   7,C  13)    -60.1942         0.011141   
    167. D(H  24,C  12,C   7,C  11)     62.2115         0.011141   
    168. D(H  24,C  12,C   7,N   2)   -179.4514         0.011141   
    169. D(H  23,C  12,C   7,C  13)     59.5237         0.011141   
    170. D(H  23,C  12,C   7,C  11)   -178.0707         0.011141   
    171. D(H  23,C  12,C   7,N   2)    -59.7335         0.011141   
    172. D(H  22,C  12,C   7,C  13)   -179.4337         0.011141   
    173. D(H  22,C  12,C   7,C  11)    -57.0281         0.011141   
    174. D(H  22,C  12,C   7,N   2)     61.3091         0.011141   
    175. D(H  33,C  13,C   7,C  12)    -54.4605         0.011422   
    176. D(H  33,C  13,C   7,C  11)   -177.4065         0.011422   
    177. D(H  33,C  13,C   7,N   2)     63.7954         0.011422   
    178. D(H  32,C  13,C   7,C  12)     63.6538         0.011422   
    179. D(H  32,C  13,C   7,C  11)    -59.2922         0.011422   
    180. D(H  32,C  13,C   7,N   2)   -178.0904         0.011422   
    181. D(H  31,C  13,C   7,C  12)   -177.5026         0.011422   
    182. D(H  31,C  13,C   7,C  11)     59.5515         0.011422   
    183. D(H  31,C  13,C   7,N   2)    -59.2467         0.011422   
    -----------------------------------------------------------------

Number of atoms                         .... 34
Number of degrees of freedom            .... 183

         *************************************************************
         *                GEOMETRY OPTIMIZATION CYCLE   1            *
         *************************************************************
---------------------------------
CARTESIAN COORDINATES (ANGSTROEM)
---------------------------------
  N     -1.090063   -0.263034    0.112513
  C     -0.020648    0.477696   -0.179339
  N      1.083282   -0.242293    0.007120
  H     -0.053305    1.515049   -0.505526
  C      0.706921   -1.493960    0.445290
  C     -0.652098   -1.508102    0.507429
  C     -2.501922    0.231054    0.036968
  C      2.493617    0.235537   -0.128930
  C     -2.688866    1.287915    1.127468
  C     -3.452397   -0.940256    0.264962
  C     -2.727064    0.827931   -1.353789
  C      3.304367   -0.853413   -0.833142
  C      3.032250    0.494363    1.279571
  C      2.512657    1.518643   -0.955547
  H      1.426636   -2.275587    0.676329
  H     -1.327986   -2.307178    0.798064
  H     -3.714865    1.681256    1.081059
  H     -1.993002    2.130034    0.991260
  H     -2.527973    0.850995    2.124772
  H     -3.769922    1.166985   -1.433533
  H     -2.543216    0.075459   -2.135667
  H     -2.077633    1.697032   -1.537874
  H      3.030619   -0.429478    1.877952
  H      2.426375    1.253745    1.796958
  H      4.068345    0.857646    1.212666
  H     -4.483044   -0.566550    0.188377
  H     -3.330625   -1.378224    1.266956
  H     -3.317006   -1.725330   -0.494649
  H      3.429363   -1.745042   -0.201133
  H      4.307922   -0.460866   -1.051103
  H      2.832740   -1.149446   -1.782345
  H      2.086692    1.358845   -1.958095
  H      3.558417    1.834941   -1.073509
  H      1.977172    2.342007   -0.459642

----------------------------
CARTESIAN COORDINATES (A.U.)
----------------------------
  NO LB      ZA    FRAG     MASS         X           Y           Z
   0 N     7.0000    0    14.007   -2.059920   -0.497061    0.212620
   1 C     6.0000    0    12.011   -0.039019    0.902714   -0.338902
   2 N     7.0000    0    14.007    2.047106   -0.457867    0.013455
   3 H     1.0000    0     1.008   -0.100732    2.863027   -0.955306
   4 C     6.0000    0    12.011    1.335887   -2.823175    0.841477
   5 C     6.0000    0    12.011   -1.232286   -2.849900    0.958902
   6 C     6.0000    0    12.011   -4.727948    0.436629    0.069860
   7 C     6.0000    0    12.011    4.712253    0.445101   -0.243642
   8 C     6.0000    0    12.011   -5.081219    2.433807    2.130606
   9 C     6.0000    0    12.011   -6.524086   -1.776827    0.500705
  10 C     6.0000    0    12.011   -5.153404    1.564562   -2.558291
  11 C     6.0000    0    12.011    6.244349   -1.612717   -1.574410
  12 C     6.0000    0    12.011    5.730122    0.934211    2.418039
  13 C     6.0000    0    12.011    4.748233    2.869820   -1.805721
  14 H     1.0000    0     1.008    2.695952   -4.300237    1.278076
  15 H     1.0000    0     1.008   -2.509529   -4.359935    1.508122
  16 H     1.0000    0     1.008   -7.020077    3.177113    2.042906
  17 H     1.0000    0     1.008   -3.766228    4.025181    1.873209
  18 H     1.0000    0     1.008   -4.777177    1.608147    4.015236
  19 H     1.0000    0     1.008   -7.124120    2.205283   -2.708984
  20 H     1.0000    0     1.008   -4.805981    0.142596   -4.035826
  21 H     1.0000    0     1.008   -3.926158    3.206925   -2.906161
  22 H     1.0000    0     1.008    5.727039   -0.811597    3.548814
  23 H     1.0000    0     1.008    4.585185    2.369234    3.395758
  24 H     1.0000    0     1.008    7.688058    1.620717    2.291607
  25 H     1.0000    0     1.008   -8.471725   -1.070624    0.355981
  26 H     1.0000    0     1.008   -6.293968   -2.604466    2.394199
  27 H     1.0000    0     1.008   -6.268233   -3.260402   -0.934751
  28 H     1.0000    0     1.008    6.480557   -3.297652   -0.380086
  29 H     1.0000    0     1.008    8.140792   -0.870911   -1.986296
  30 H     1.0000    0     1.008    5.353103   -2.172138   -3.368145
  31 H     1.0000    0     1.008    3.943276    2.567844   -3.700264
  32 H     1.0000    0     1.008    6.724434    3.467537   -2.028638
  33 H     1.0000    0     1.008    3.736314    4.425751   -0.868598

--------------------------------
INTERNAL COORDINATES (ANGSTROEM)
--------------------------------
 N      0   0   0     0.000000000000     0.00000000     0.00000000
 C      1   0   0     1.333230932108     0.00000000     0.00000000
 N      2   1   0     1.331094386016   109.51477184     0.00000000
 H      2   1   3     1.087918340646   124.84250961   180.79942671
 C      3   2   1     1.378517455346   108.01260856   359.58934192
 C      5   3   2     1.360512222927   107.25797313     0.42203364
 C      1   2   3     1.497723967335   124.18109795   179.00211878
 C      3   2   1     1.495284595096   126.62892057   183.85045098
 C      7   1   2     1.530062998253   107.88412014   292.57765980
 C      7   1   2     1.525566139617   109.05571961   172.71029449
 C      7   1   2     1.530084135859   108.25482689    52.92173274
 C      8   3   2     1.529393012927   108.32223398   221.25689886
 C      8   3   2     1.530030025513   107.59817355   101.23421547
 C      8   3   2     1.526440046816   109.24771459   341.11368807
 H      5   3   2     1.087341043380   122.65107418   180.28671876
 H      6   5   3     1.086193631326   129.89917453   179.51267869
 H      9   7   1     1.099793218320   109.32626412   178.95219110
 H      9   7   1     1.100883113265   111.28221467    59.60078279
 H      9   7   1     1.100636357945   110.71638597   298.37945490
 H     11   7   1     1.099485746526   109.01309160   178.27940567
 H     11   7   1     1.100612127857   110.75876025    58.93713577
 H     11   7   1     1.100447375270   111.91910122   297.31417686
 H     13   8   3     1.100702211096   110.97435396    61.30910429
 H     13   8   3     1.100651254977   110.83393681   300.26650581
 H     13   8   3     1.099974527355   109.35818399   180.54862033
 H     10   7   1     1.098978309295   108.22759124   181.02658611
 H     10   7   1     1.100289054376   111.88594856    62.62608591
 H     10   7   1     1.100763555896   111.58187791   299.77780423
 H     12   8   3     1.100028330673   111.88921630   291.39370803
 H     12   8   3     1.099418483266   108.72038245   172.90055256
 H     12   8   3     1.100479643349   111.19254831    53.59138713
 H     14   8   3     1.100947892330   111.48747517   300.75329029
 H     14   8   3     1.098896818157   108.17678173   181.90964149
 H     14   8   3     1.100269283689   112.26496868    63.79535356

---------------------------
INTERNAL COORDINATES (A.U.)
---------------------------
 N      0   0   0     0.000000000000     0.00000000     0.00000000
 C      1   0   0     2.519441334957     0.00000000     0.00000000
 N      2   1   0     2.515403847971   109.51477184     0.00000000
 H      2   1   3     2.055867719891   124.84250961   180.79942671
 C      3   2   1     2.605020461433   108.01260856   359.58934192
 C      5   3   2     2.570995503185   107.25797313     0.42203364
 C      1   2   3     2.830288122474   124.18109795   179.00211878
 C      3   2   1     2.825678377003   126.62892057   183.85045098
 C      7   1   2     2.891400034345   107.88412014   292.57765980
 C      7   1   2     2.882902203059   109.05571961   172.71029449
 C      7   1   2     2.891439978632   108.25482689    52.92173274
 C      8   3   2     2.890133945564   108.32223398   221.25689886
 C      8   3   2     2.891337724897   107.59817355   101.23421547
 C      8   3   2     2.884553648332   109.24771459   341.11368807
 H      5   3   2     2.054776786161   122.65107418   180.28671876
 H      6   5   3     2.052608491616   129.89917453   179.51267869
 H      9   7   1     2.078307986568   109.32626412   178.95219110
 H      9   7   1     2.080367589529   111.28221467    59.60078279
 H      9   7   1     2.079901289553   110.71638597   298.37945490
 H     11   7   1     2.077726949084   109.01309160   178.27940567
 H     11   7   1     2.079855501322   110.75876025    58.93713577
 H     11   7   1     2.079544164053   111.91910122   297.31417686
 H     13   8   3     2.080025733972   110.97435396    61.30910429
 H     13   8   3     2.079929440864   110.83393681   300.26650581
 H     13   8   3     2.078650610991   109.35818399   180.54862033
 H     10   7   1     2.076768031687   108.22759124   181.02658611
 H     10   7   1     2.079244980921   111.88594856    62.62608591
 H     10   7   1     2.080141658845   111.58187791   299.77780423
 H     12   8   3     2.078752284527   111.88921630   291.39370803
 H     12   8   3     2.077599839944   108.72038245   172.90055256
 H     12   8   3     2.079605141885   111.19254831    53.59138713
 H     14   8   3     2.080490004222   111.48747517   300.75329029
 H     14   8   3     2.076614035754   108.17678173   181.90964149
 H     14   8   3     2.079207619738   112.26496868    63.79535356

---------------------
BASIS SET INFORMATION
---------------------
There are 3 groups of distinct atoms

 Group   1 Type N   : 7s4p1d contracted to 3s2p1d pattern {511/31/1}
 Group   2 Type C   : 7s4p1d contracted to 3s2p1d pattern {511/31/1}
 Group   3 Type H   : 4s1p contracted to 2s1p pattern {31/1}

Atom   0N    basis set group =>   1
Atom   1C    basis set group =>   2
Atom   2N    basis set group =>   1
Atom   3H    basis set group =>   3
Atom   4C    basis set group =>   2
Atom   5C    basis set group =>   2
Atom   6C    basis set group =>   2
Atom   7C    basis set group =>   2
Atom   8C    basis set group =>   2
Atom   9C    basis set group =>   2
Atom  10C    basis set group =>   2
Atom  11C    basis set group =>   2
Atom  12C    basis set group =>   2
Atom  13C    basis set group =>   2
Atom  14H    basis set group =>   3
Atom  15H    basis set group =>   3
Atom  16H    basis set group =>   3
Atom  17H    basis set group =>   3
Atom  18H    basis set group =>   3
Atom  19H    basis set group =>   3
Atom  20H    basis set group =>   3
Atom  21H    basis set group =>   3
Atom  22H    basis set group =>   3
Atom  23H    basis set group =>   3
Atom  24H    basis set group =>   3
Atom  25H    basis set group =>   3
Atom  26H    basis set group =>   3
Atom  27H    basis set group =>   3
Atom  28H    basis set group =>   3
Atom  29H    basis set group =>   3
Atom  30H    basis set group =>   3
Atom  31H    basis set group =>   3
Atom  32H    basis set group =>   3
Atom  33H    basis set group =>   3
---------------------------------
AUXILIARY/J BASIS SET INFORMATION
---------------------------------
There are 3 groups of distinct atoms

 Group   1 Type N   : 12s5p4d2f1g contracted to 6s4p3d1f1g pattern {711111/2111/211/2/1}
 Group   2 Type C   : 12s5p4d2f1g contracted to 6s4p3d1f1g pattern {711111/2111/211/2/1}
 Group   3 Type H   : 5s2p1d contracted to 3s1p1d pattern {311/2/1}

Atom   0N    basis set group =>   1
Atom   1C    basis set group =>   2
Atom   2N    basis set group =>   1
Atom   3H    basis set group =>   3
Atom   4C    basis set group =>   2
Atom   5C    basis set group =>   2
Atom   6C    basis set group =>   2
Atom   7C    basis set group =>   2
Atom   8C    basis set group =>   2
Atom   9C    basis set group =>   2
Atom  10C    basis set group =>   2
Atom  11C    basis set group =>   2
Atom  12C    basis set group =>   2
Atom  13C    basis set group =>   2
Atom  14H    basis set group =>   3
Atom  15H    basis set group =>   3
Atom  16H    basis set group =>   3
Atom  17H    basis set group =>   3
Atom  18H    basis set group =>   3
Atom  19H    basis set group =>   3
Atom  20H    basis set group =>   3
Atom  21H    basis set group =>   3
Atom  22H    basis set group =>   3
Atom  23H    basis set group =>   3
Atom  24H    basis set group =>   3
Atom  25H    basis set group =>   3
Atom  26H    basis set group =>   3
Atom  27H    basis set group =>   3
Atom  28H    basis set group =>   3
Atom  29H    basis set group =>   3
Atom  30H    basis set group =>   3
Atom  31H    basis set group =>   3
Atom  32H    basis set group =>   3
Atom  33H    basis set group =>   3
------------------------------------------------------------------------------
                           ORCA GTO INTEGRAL CALCULATION
                           -- RI-GTO INTEGRALS CHOSEN --
------------------------------------------------------------------------------
------------------------------------------------------------------------------
                   ___                                                        
                  /   \      - P O W E R E D   B Y -                         
                 /     \                                                     
                 |  |  |   _    _      __       _____    __    __             
                 |  |  |  | |  | |    /  \     |  _  \  |  |  /  |          
                  \  \/   | |  | |   /    \    | | | |  |  | /  /          
                 / \  \   | |__| |  /  /\  \   | |_| |  |  |/  /          
                |  |  |   |  __  | /  /__\  \  |    /   |      \           
                |  |  |   | |  | | |   __   |  |    \   |  |\   \          
                \     /   | |  | | |  |  |  |  | |\  \  |  | \   \       
                 \___/    |_|  |_| |__|  |__|  |_| \__\ |__|  \__/        
                                                                              
                      - O R C A' S   B I G   F R I E N D -                    
                                      &                                       
                       - I N T E G R A L  F E E D E R -                       
                                                                              
 v1 FN, 2020, v2 2021                                                         
------------------------------------------------------------------------------


Reading SHARK input file 5_prot_aq_7.SHARKINP.tmp ... ok
----------------------
SHARK INTEGRAL PACKAGE
----------------------

Number of atoms                             ...     34
Number of basis functions                   ...    287
Number of shells                            ...    141
Maximum angular momentum                    ...      2
Integral batch strategy                     ... SHARK/LIBINT Hybrid
RI-J (if used) integral strategy            ... SPLIT-RIJ (Revised 2003 algorithm where possible)
Printlevel                                  ...      1
Contraction scheme used                     ... SEGMENTED contraction
Coulomb Range Separation                    ... NOT USED
Exchange Range Separation                   ... Long Range
   Mu parameter                             ...  0.300000
   Scaling (regular/separated)              ...  0.157706  0.842294
Finite Nucleus Model                        ... NOT USED
Auxiliary Coulomb fitting basis             ... AVAILABLE
   # of basis functions in Aux-J            ...    868
   # of shells in Aux-J                     ...    300
   Maximum angular momentum in Aux-J        ...      4
Auxiliary J/K fitting basis                 ... NOT available
Auxiliary Correlation fitting basis         ... NOT available
Auxiliary 'external' fitting basis          ... NOT available
Integral threshold                          ...     2.500000e-11
Primitive cut-off                           ...     2.500000e-12
Primitive pair pre-selection threshold      ...     2.500000e-12

Calculating pre-screening integrals         ... done (  0.1 sec) Dimension = 141
Organizing shell pair data                  ... done (  0.1 sec)
Shell pair information
Total number of shell pairs                 ...     10011
Shell pairs after pre-screening             ...      8586
Total number of primitive shell pairs       ...     34423
Primitive shell pairs kept                  ...     20617
          la=0 lb=0:   2952 shell pairs
          la=1 lb=0:   3257 shell pairs
          la=1 lb=1:    928 shell pairs
          la=2 lb=0:    887 shell pairs
          la=2 lb=1:    487 shell pairs
          la=2 lb=2:     75 shell pairs

Calculating one electron integrals          ... done (  0.1 sec)
Calculating RI/J V-Matrix + Cholesky decomp.... done (  0.1 sec)
Calculating Nuclear repulsion               ... done (  0.0 sec) ENN=    873.086223348412 Eh

SHARK setup successfully completed in   0.6 seconds

Maximum memory used throughout the entire GTOINT-calculation: 48.7 MB
-------------------------------------------------------------------------------
                                 ORCA SCF
-------------------------------------------------------------------------------

------------
SCF SETTINGS
------------
Hamiltonian:
 Density Functional     Method          .... DFT(GTOs)
 Exchange Functional    Exchange        .... WB97X
 Correlation Functional Correlation     .... WB97X
 Gradients option       PostSCFGGA      .... off
 Hybrid DFT is turned on
   Fraction HF Exchange ScalHFX         ....  0.157706
   Scaling of DF-GGA-X  ScalDFX         ....  0.000000
   Scaling of DF-GGA-C  ScalDFC         ....  1.000000
   Scaling of DF-LDA-C  ScalLDAC        ....  1.000000
   Perturbative correction              ....  0.000000
   Density functional embedding theory  .... OFF
 Long-range corrected/Screened/Range-Separated Hybrid DFT is turned on
   Amount of maximum screened exact exchange              ....  0.842294
   Range separation parameter mu (erf(mu*r12)/r12)        ....  0.300000
 RI-approximation to the Coulomb term is turned on
   Number of AuxJ basis functions       .... 868
   RIJ-COSX (HFX calculated with COS-X)).... on


General Settings:
 Integral files         IntName         .... 5_prot_aq_7
 Hartree-Fock type      HFTyp           .... RHF
 Total Charge           Charge          ....    1
 Multiplicity           Mult            ....    1
 Number of Electrons    NEL             ....  100
 Basis Dimension        Dim             ....  287
 Nuclear Repulsion      ENuc            ....    873.0862233484 Eh

Convergence Acceleration:
 DIIS                   CNVDIIS         .... on
   Start iteration      DIISMaxIt       ....     0
   Startup error        DIISStart       ....  0.200000
   # of expansion vecs  DIISMaxEq       ....     5
   Bias factor          DIISBfac        ....   1.050
   Max. coefficient     DIISMaxC        ....  10.000
 Trust-Rad. Augm. Hess. CNVTRAH         .... auto
   Auto Start mean grad. ratio tolernc. ....  1.125000
   Auto Start start iteration           ....    20
   Auto Start num. interpolation iter.  ....    10
   Max. Number of Micro iterations      ....    16
   Max. Number of Macro iterations      .... Maxiter - #DIIS iter
   Number of Davidson start vectors     ....     2
   Converg. threshold I  (grad. norm)   ....   1.000e-05
   Converg. threshold II (energy diff.) ....   1.000e-08
   Grad. Scal. Fac. for Micro threshold ....   0.100
   Minimum threshold for Micro iter.    ....   0.010
   NR start threshold (gradient norm)   ....   0.001
   Initial trust radius                 ....   0.400
   Minimum AH scaling param. (alpha)    ....   1.000
   Maximum AH scaling param. (alpha)    .... 1000.000
   Orbital update algorithm             .... Taylor
   White noise on init. David. guess    .... on
   Maximum white noise                  ....   0.010
   Quad. conv. algorithm                .... NR
 SOSCF                  CNVSOSCF        .... on
   Start iteration      SOSCFMaxIt      ....   150
   Startup grad/error   SOSCFStart      ....  0.001000
 Level Shifting         CNVShift        .... on
   Level shift para.    LevelShift      ....    0.2500
   Turn off err/grad.   ShiftErr        ....    0.0000
 Zerner damping         CNVZerner       .... off
 Static damping         CNVDamp         .... on
   Fraction old density DampFac         ....    0.8500
   Max. Damping (<1)    DampMax         ....    0.9800
   Min. Damping (>=0)   DampMin         ....    0.0000
   Turn off err/grad.   DampErr         ....    0.0300
 Fernandez-Rico         CNVRico         .... off

SCF Procedure:
 Maximum # iterations   MaxIter         ....   125
 SCF integral mode      SCFMode         .... Direct
   Integral package                     .... SHARK and LIBINT hybrid scheme
 Reset frequency        DirectResetFreq ....    20
 Integral Threshold     Thresh          ....  2.500e-11 Eh
 Primitive CutOff       TCut            ....  2.500e-12 Eh

Convergence Tolerance:
 Convergence Check Mode ConvCheckMode   .... Total+1el-Energy
 Convergence forced     ConvForced      .... 0
 Energy Change          TolE            ....  1.000e-08 Eh
 1-El. energy change                    ....  1.000e-05 Eh
 Orbital Gradient       TolG            ....  1.000e-05
 Orbital Rotation angle TolX            ....  1.000e-05
 DIIS Error             TolErr          ....  5.000e-07


Diagonalization of the overlap matrix:
Smallest eigenvalue                        ... 1.107e-03
Time for diagonalization                   ...    0.014 sec
Threshold for overlap eigenvalues          ... 1.000e-08
Number of eigenvalues below threshold      ... 0
Time for construction of square roots      ...    0.031 sec
Total time needed                          ...    0.046 sec

Time for model grid setup =    0.819 sec

------------------------------
INITIAL GUESS: MODEL POTENTIAL
------------------------------
Loading Hartree-Fock densities                     ... done
Calculating cut-offs                               ... done
Initializing the effective Hamiltonian             ... done
Setting up the integral package (SHARK)            ... done
Starting the Coulomb interaction                   ... done (   0.8 sec)
Reading the grid                                   ... done
Mapping shells                                     ... done
Starting the XC term evaluation                    ... done (   0.8 sec)
  promolecular density results
     # of electrons  =    100.988713919
     EX              =    -75.618556801
     EC              =     -3.352777134
     EX+EC           =    -78.971333935
Transforming the Hamiltonian                       ... done (   0.0 sec)
Diagonalizing the Hamiltonian                      ... done (   0.0 sec)
Back transforming the eigenvectors                 ... done (   0.0 sec)
Now organizing SCF variables                       ... done
                      ------------------
                      INITIAL GUESS DONE (   2.5 sec)
                      ------------------
-------------------
DFT GRID GENERATION
-------------------

General Integration Accuracy     IntAcc      ... 4.388
Radial Grid Type                 RadialGrid  ... OptM3 with GC (2021)
Angular Grid (max. ang.)         AngularGrid ... 4 (Lebedev-302)
Angular grid pruning method      GridPruning ... 4 (adaptive)
Weight generation scheme         WeightScheme... Becke
Basis function cutoff            BFCut       ... 1.0000e-11
Integration weight cutoff        WCut        ... 1.0000e-14
Angular grids for H and He will be reduced by one unit
Partially contracted basis set               ... off
Rotationally invariant grid construction     ... off

Total number of grid points                  ...   144203
Total number of batches                      ...     2272
Average number of points per batch           ...       63
Average number of grid points per atom       ...     4241
Time for grid setup =    3.061 sec

--------------------
COSX GRID GENERATION
--------------------

GRIDX 1
-------
General Integration Accuracy     IntAcc      ... 3.816
Radial Grid Type                 RadialGrid  ... OptM3 with GC (2021)
Angular Grid (max. ang.)         AngularGrid ... 1 (Lebedev-50)
Angular grid pruning method      GridPruning ... 4 (adaptive)
Weight generation scheme         WeightScheme... Becke
Basis function cutoff            BFCut       ... 1.0000e-11
Integration weight cutoff        WCut        ... 1.0000e-14
Angular grids for H and He will be reduced by one unit
Partially contracted basis set               ... on
Rotationally invariant grid construction     ... off

Total number of grid points                  ...    18438
Total number of batches                      ...      307
Average number of points per batch           ...       60
Average number of grid points per atom       ...      542
UseSFitting                                  ... on

GRIDX 2
-------
General Integration Accuracy     IntAcc      ... 4.020
Radial Grid Type                 RadialGrid  ... OptM3 with GC (2021)
Angular Grid (max. ang.)         AngularGrid ... 2 (Lebedev-110)
Angular grid pruning method      GridPruning ... 4 (adaptive)
Weight generation scheme         WeightScheme... Becke
Basis function cutoff            BFCut       ... 1.0000e-11
Integration weight cutoff        WCut        ... 1.0000e-14
Angular grids for H and He will be reduced by one unit
Partially contracted basis set               ... on
Rotationally invariant grid construction     ... off

Total number of grid points                  ...    38235
Total number of batches                      ...      612
Average number of points per batch           ...       62
Average number of grid points per atom       ...     1125
UseSFitting                                  ... on

GRIDX 3
-------
General Integration Accuracy     IntAcc      ... 4.338
Radial Grid Type                 RadialGrid  ... OptM3 with GC (2021)
Angular Grid (max. ang.)         AngularGrid ... 3 (Lebedev-194)
Angular grid pruning method      GridPruning ... 4 (adaptive)
Weight generation scheme         WeightScheme... Becke
Basis function cutoff            BFCut       ... 1.0000e-11
Integration weight cutoff        WCut        ... 1.0000e-14
Angular grids for H and He will be reduced by one unit
Partially contracted basis set               ... on
Rotationally invariant grid construction     ... off

Total number of grid points                  ...    83021
Total number of batches                      ...     1311
Average number of points per batch           ...       63
Average number of grid points per atom       ...     2442
UseSFitting                                  ... on

Time for X-Grid setup             =    3.842 sec


--------------------
CPCM SOLVATION MODEL
--------------------
CPCM parameters:
  Epsilon                                         ...      80.4000
  Refrac                                          ...       1.3300
  Rsolv                                           ...       1.3000
  Surface type                                    ... GAUSSIAN VDW
  Epsilon function type                           ...         CPCM
Radii:
 Radius for N  used is    3.5149 Bohr (=   1.8600 Ang.)
 Radius for C  used is    3.8550 Bohr (=   2.0400 Ang.)
 Radius for H  used is    2.4944 Bohr (=   1.3200 Ang.)
Calculating surface                               ...        done! (  0.0s)
GEPOL surface points                              ...         1773
GEPOL Volume                                      ...    1697.1533
GEPOL Surface-area                                ...     915.5788
Calculating surface distance matrix               ...        done! (  0.0s)
Performing Cholesky decomposition & store         ...        done! (  0.2s)
Overall time for CPCM initialization              ...                 0.2s
--------------
SCF ITERATIONS
--------------
ITER       Energy         Delta-E        Max-DP      RMS-DP      [F,P]     Damp
               ***  Starting incremental Fock matrix formation  ***
  0   -540.4101216488   0.000000000000 0.03330001  0.00061681  0.1467292 0.8500
  1   -540.4685081712  -0.058386522377 0.02993870  0.00057725  0.1180078 0.8500
                               ***Turning on DIIS***
  2   -540.5126039632  -0.044095792001 0.02342403  0.00046935  0.0903673 0.8500
  3   -540.5451057115  -0.032501748309 0.01469817  0.00033227  0.0682876 0.8500
  4   -540.5700030965  -0.024897385041 0.00995530  0.00025518  0.0542549 0.8500
  5   -540.5895038905  -0.019500794028 0.00759609  0.00020997  0.0447817 0.8500
  6   -540.6052904923  -0.015786601733 0.00615652  0.00017750  0.0376185 0.8500
  7   -540.6183147090  -0.013024216758 0.00523200  0.00015290  0.0318370 0.8500
  8   -540.6291823593  -0.010867650267 0.02971446  0.00087741  0.0269152 0.0000
  9   -540.6873280279  -0.058145668563 0.00132069  0.00003153  0.0011775 0.0000
                      *** Initiating the SOSCF procedure ***
                           *** Shutting down DIIS ***
                      *** Re-Reading the Fockian *** 
                      *** Removing any level shift *** 
ITER      Energy       Delta-E        Grad      Rot      Max-DP    RMS-DP
 10   -540.68734950  -0.0000214683  0.000134  0.000134  0.000642  0.000013
               *** Restarting incremental Fock matrix formation ***
 11   -540.68732830   0.0000211925  0.000045  0.000087  0.000322  0.000008
 12   -540.68732859  -0.0000002913  0.000044  0.000077  0.000178  0.000004
 13   -540.68732864  -0.0000000406  0.000015  0.000018  0.000041  0.000001
                  ***Gradient check signals convergence***
              ***Rediagonalizing the Fockian in SOSCF/NRSCF***

               *****************************************************
               *                     SUCCESS                       *
               *           SCF CONVERGED AFTER  14 CYCLES          *
               *****************************************************

Old exchange energy                            =    -25.346214722 Eh
New exchange energy                            =    -25.346193255 Eh
Exchange energy change after final integration =      0.000021468 Eh
Total energy after final integration           =   -540.687307188 Eh
Final COS-X integration done in                =    96.438 sec

----------------
TOTAL SCF ENERGY
----------------

Total Energy       :         -540.68730719 Eh          -14712.84962 eV

Components:
Nuclear Repulsion  :          873.08622335 Eh           23757.88396 eV
Electronic Energy  :        -1413.77353054 Eh          -38470.73358 eV
One Electron Energy:        -2444.41789359 Eh          -66515.99249 eV
Two Electron Energy:         1030.64436305 Eh           28045.25891 eV
Max COSX asymmetry :            0.00000356 Eh               0.00010 eV
CPCM Dielectric    :           -0.07524658 Eh              -2.04756 eV

Virial components:
Potential Energy   :        -1074.53474140 Eh          -29239.57682 eV
Kinetic Energy     :          533.84743421 Eh           14526.72721 eV
Virial Ratio       :            2.01281241


DFT components:
N(Alpha)           :       50.000017620467 electrons
N(Beta)            :       50.000017620467 electrons
N(Total)           :      100.000035240935 electrons
E(XC)              :      -55.548984517271 Eh       
DFET-embed. en.    :        0.000000000000 Eh       
CPCM Solvation Model Properties:
Surface-charge          :           -1.02470334
Charge-correction       :            0.00324210 Eh               0.08822 eV
Free-energy (cav+disp)  :  This term is not implemented in the current solvation scheme

---------------
SCF CONVERGENCE
---------------

  Last Energy change         ...   -1.9784e-08  Tolerance :   1.0000e-08
  Last MAX-Density change    ...    3.1086e-15  Tolerance :   1.0000e-07
  Last RMS-Density change    ...    4.1175e-17  Tolerance :   5.0000e-09
  Last Orbital Gradient      ...    1.7655e-06  Tolerance :   1.0000e-05
  Last Orbital Rotation      ...    3.1207e-06  Tolerance :   1.0000e-05

             **** THE GBW FILE WAS UPDATED (5_prot_aq_7.gbw) ****
             **** DENSITY 5_prot_aq_7.scfp WAS UPDATED ****
             **** ENERGY FILE WAS UPDATED (5_prot_aq_7.en.tmp) ****
             **** THE GBW FILE WAS UPDATED (5_prot_aq_7.gbw) ****
             **** DENSITY 5_prot_aq_7.scfp WAS UPDATED ****
----------------
ORBITAL ENERGIES
----------------

  NO   OCC          E(Eh)            E(eV) 
   0   2.0000     -14.508906      -394.8074 
   1   2.0000     -14.507517      -394.7696 
   2   2.0000     -10.381944      -282.5071 
   3   2.0000     -10.345710      -281.5211 
   4   2.0000     -10.345444      -281.5139 
   5   2.0000     -10.333536      -281.1898 
   6   2.0000     -10.331808      -281.1428 
   7   2.0000     -10.276006      -279.6243 
   8   2.0000     -10.275104      -279.5998 
   9   2.0000     -10.274537      -279.5844 
  10   2.0000     -10.274323      -279.5786 
  11   2.0000     -10.273742      -279.5627 
  12   2.0000     -10.273543      -279.5573 
  13   2.0000      -1.213560       -33.0226 
  14   2.0000      -1.095529       -29.8109 
  15   2.0000      -0.980272       -26.6746 
  16   2.0000      -0.932896       -25.3854 
  17   2.0000      -0.920821       -25.0568 
  18   2.0000      -0.833391       -22.6777 
  19   2.0000      -0.824026       -22.4229 
  20   2.0000      -0.822853       -22.3910 
  21   2.0000      -0.822426       -22.3794 
  22   2.0000      -0.792686       -21.5701 
  23   2.0000      -0.764591       -20.8056 
  24   2.0000      -0.725693       -19.7471 
  25   2.0000      -0.701635       -19.0925 
  26   2.0000      -0.643241       -17.5035 
  27   2.0000      -0.627666       -17.0797 
  28   2.0000      -0.606334       -16.4992 
  29   2.0000      -0.586929       -15.9711 
  30   2.0000      -0.586488       -15.9591 
  31   2.0000      -0.576494       -15.6872 
  32   2.0000      -0.573563       -15.6074 
  33   2.0000      -0.554722       -15.0948 
  34   2.0000      -0.551370       -15.0035 
  35   2.0000      -0.549875       -14.9629 
  36   2.0000      -0.517593       -14.0844 
  37   2.0000      -0.505154       -13.7459 
  38   2.0000      -0.498786       -13.5726 
  39   2.0000      -0.497404       -13.5350 
  40   2.0000      -0.492772       -13.4090 
  41   2.0000      -0.487476       -13.2649 
  42   2.0000      -0.479807       -13.0562 
  43   2.0000      -0.479240       -13.0408 
  44   2.0000      -0.467159       -12.7120 
  45   2.0000      -0.453843       -12.3497 
  46   2.0000      -0.452664       -12.3176 
  47   2.0000      -0.451691       -12.2911 
  48   2.0000      -0.412140       -11.2149 
  49   2.0000      -0.372601       -10.1390 
  50   0.0000       0.059906         1.6301 
  51   0.0000       0.095498         2.5986 
  52   0.0000       0.130553         3.5525 
  53   0.0000       0.143735         3.9112 
  54   0.0000       0.162906         4.4329 
  55   0.0000       0.166843         4.5400 
  56   0.0000       0.176326         4.7981 
  57   0.0000       0.180653         4.9158 
  58   0.0000       0.193539         5.2665 
  59   0.0000       0.196523         5.3477 
  60   0.0000       0.206762         5.6263 
  61   0.0000       0.210892         5.7387 
  62   0.0000       0.217731         5.9248 
  63   0.0000       0.221549         6.0287 
  64   0.0000       0.231132         6.2894 
  65   0.0000       0.241404         6.5689 
  66   0.0000       0.246861         6.7174 
  67   0.0000       0.253609         6.9010 
  68   0.0000       0.258287         7.0283 
  69   0.0000       0.261309         7.1106 
  70   0.0000       0.262906         7.1540 
  71   0.0000       0.265276         7.2185 
  72   0.0000       0.269588         7.3359 
  73   0.0000       0.275893         7.5074 
  74   0.0000       0.280935         7.6446 
  75   0.0000       0.284141         7.7319 
  76   0.0000       0.290652         7.9091 
  77   0.0000       0.296045         8.0558 
  78   0.0000       0.309935         8.4338 
  79   0.0000       0.314585         8.5603 
  80   0.0000       0.320529         8.7220 
  81   0.0000       0.329312         8.9610 
  82   0.0000       0.347606         9.4589 
  83   0.0000       0.361815         9.8455 
  84   0.0000       0.403218        10.9721 
  85   0.0000       0.427648        11.6369 
  86   0.0000       0.455041        12.3823 
  87   0.0000       0.465232        12.6596 
  88   0.0000       0.473135        12.8747 
  89   0.0000       0.480988        13.0883 
  90   0.0000       0.495046        13.4709 
  91   0.0000       0.503544        13.7021 
  92   0.0000       0.509965        13.8769 
  93   0.0000       0.546446        14.8696 
  94   0.0000       0.548192        14.9171 
  95   0.0000       0.564471        15.3600 
  96   0.0000       0.577973        15.7274 
  97   0.0000       0.594555        16.1787 
  98   0.0000       0.597710        16.2645 
  99   0.0000       0.621968        16.9246 
 100   0.0000       0.637119        17.3369 
 101   0.0000       0.644144        17.5281 
 102   0.0000       0.645990        17.5783 
 103   0.0000       0.659057        17.9339 
 104   0.0000       0.673387        18.3238 
 105   0.0000       0.688183        18.7264 
 106   0.0000       0.708260        19.2727 
 107   0.0000       0.719670        19.5832 
 108   0.0000       0.727830        19.8053 
 109   0.0000       0.730384        19.8747 
 110   0.0000       0.733113        19.9490 
 111   0.0000       0.736574        20.0432 
 112   0.0000       0.741297        20.1717 
 113   0.0000       0.746706        20.3189 
 114   0.0000       0.749488        20.3946 
 115   0.0000       0.755712        20.5640 
 116   0.0000       0.762980        20.7617 
 117   0.0000       0.764799        20.8112 
 118   0.0000       0.767527        20.8855 
 119   0.0000       0.773954        21.0604 
 120   0.0000       0.780534        21.2394 
 121   0.0000       0.785977        21.3875 
 122   0.0000       0.796162        21.6647 
 123   0.0000       0.798905        21.7393 
 124   0.0000       0.804251        21.8848 
 125   0.0000       0.808006        21.9870 
 126   0.0000       0.809640        22.0314 
 127   0.0000       0.816856        22.2278 
 128   0.0000       0.817937        22.2572 
 129   0.0000       0.825036        22.4504 
 130   0.0000       0.832614        22.6566 
 131   0.0000       0.834992        22.7213 
 132   0.0000       0.835443        22.7336 
 133   0.0000       0.844842        22.9893 
 134   0.0000       0.852418        23.1955 
 135   0.0000       0.854995        23.2656 
 136   0.0000       0.864215        23.5165 
 137   0.0000       0.875833        23.8326 
 138   0.0000       0.884600        24.0712 
 139   0.0000       0.887537        24.1511 
 140   0.0000       0.962466        26.1900 
 141   0.0000       0.990287        26.9471 
 142   0.0000       1.031621        28.0718 
 143   0.0000       1.039826        28.2951 
 144   0.0000       1.044482        28.4218 
 145   0.0000       1.055924        28.7331 
 146   0.0000       1.057201        28.7679 
 147   0.0000       1.074665        29.2431 
 148   0.0000       1.131379        30.7864 
 149   0.0000       1.161322        31.6012 
 150   0.0000       1.177107        32.0307 
 151   0.0000       1.212953        33.0061 
 152   0.0000       1.221775        33.2462 
 153   0.0000       1.235477        33.6190 
 154   0.0000       1.246033        33.9063 
 155   0.0000       1.261828        34.3361 
 156   0.0000       1.297205        35.2988 
 157   0.0000       1.316081        35.8124 
 158   0.0000       1.324571        36.0434 
 159   0.0000       1.345517        36.6134 
 160   0.0000       1.350551        36.7504 
 161   0.0000       1.375749        37.4360 
 162   0.0000       1.383896        37.6577 
 163   0.0000       1.391956        37.8770 
 164   0.0000       1.407029        38.2872 
 165   0.0000       1.425332        38.7853 
 166   0.0000       1.462138        39.7868 
 167   0.0000       1.513121        41.1741 
 168   0.0000       1.520971        41.3877 
 169   0.0000       1.617119        44.0040 
 170   0.0000       1.635699        44.5096 
 171   0.0000       1.636562        44.5331 
 172   0.0000       1.641945        44.6796 
 173   0.0000       1.646270        44.7973 
 174   0.0000       1.646794        44.8115 
 175   0.0000       1.648462        44.8569 
 176   0.0000       1.655362        45.0447 
 177   0.0000       1.658558        45.1317 
 178   0.0000       1.664261        45.2868 
 179   0.0000       1.693933        46.0943 
 180   0.0000       1.716668        46.7129 
 181   0.0000       1.770375        48.1743 
 182   0.0000       1.777503        48.3683 
 183   0.0000       1.793261        48.7971 
 184   0.0000       1.798650        48.9438 
 185   0.0000       1.805338        49.1257 
 186   0.0000       1.814295        49.3695 
 187   0.0000       1.838421        50.0260 
 188   0.0000       1.841325        50.1050 
 189   0.0000       1.846576        50.2479 
 190   0.0000       1.851823        50.3907 
 191   0.0000       1.858684        50.5774 
 192   0.0000       1.866585        50.7924 
 193   0.0000       1.879866        51.1538 
 194   0.0000       1.911567        52.0164 
 195   0.0000       1.913594        52.0715 
 196   0.0000       1.918751        52.2119 
 197   0.0000       1.922635        52.3175 
 198   0.0000       1.930074        52.5200 
 199   0.0000       1.933922        52.6247 
 200   0.0000       1.936612        52.6979 
 201   0.0000       1.940702        52.8092 
 202   0.0000       1.948274        53.0152 
 203   0.0000       1.950106        53.0651 
 204   0.0000       1.958184        53.2849 
 205   0.0000       1.977597        53.8131 
 206   0.0000       1.995029        54.2875 
 207   0.0000       1.996495        54.3274 
 208   0.0000       2.005707        54.5781 
 209   0.0000       2.012533        54.7638 
 210   0.0000       2.018549        54.9275 
 211   0.0000       2.031161        55.2707 
 212   0.0000       2.039855        55.5073 
 213   0.0000       2.049071        55.7581 
 214   0.0000       2.050574        55.7990 
 215   0.0000       2.063510        56.1510 
 216   0.0000       2.066564        56.2341 
 217   0.0000       2.077225        56.5242 
 218   0.0000       2.086224        56.7690 
 219   0.0000       2.107212        57.3401 
 220   0.0000       2.108233        57.3679 
 221   0.0000       2.149763        58.4980 
 222   0.0000       2.167191        58.9723 
 223   0.0000       2.234467        60.8029 
 224   0.0000       2.251706        61.2720 
 225   0.0000       2.253728        61.3270 
 226   0.0000       2.264935        61.6320 
 227   0.0000       2.279138        62.0185 
 228   0.0000       2.292873        62.3922 
 229   0.0000       2.296406        62.4884 
 230   0.0000       2.297510        62.5184 
 231   0.0000       2.307006        62.7768 
 232   0.0000       2.320854        63.1536 
 233   0.0000       2.433898        66.2297 
 234   0.0000       2.444828        66.5272 
 235   0.0000       2.453618        66.7663 
 236   0.0000       2.460972        66.9665 
 237   0.0000       2.466387        67.1138 
 238   0.0000       2.491361        67.7934 
 239   0.0000       2.496063        67.9213 
 240   0.0000       2.509259        68.2804 
 241   0.0000       2.511024        68.3284 
 242   0.0000       2.538620        69.0794 
 243   0.0000       2.553229        69.4769 
 244   0.0000       2.554016        69.4983 
 245   0.0000       2.586276        70.3761 
 246   0.0000       2.590382        70.4879 
 247   0.0000       2.595366        70.6235 
 248   0.0000       2.609387        71.0050 
 249   0.0000       2.620209        71.2995 
 250   0.0000       2.640400        71.8489 
 251   0.0000       2.648093        72.0583 
 252   0.0000       2.714715        73.8711 
 253   0.0000       2.721015        74.0426 
 254   0.0000       2.734667        74.4141 
 255   0.0000       2.742670        74.6318 
 256   0.0000       2.785052        75.7851 
 257   0.0000       2.787804        75.8600 
 258   0.0000       2.794376        76.0388 
 259   0.0000       2.809355        76.4464 
 260   0.0000       2.837937        77.2242 
 261   0.0000       2.859946        77.8231 
 262   0.0000       2.912292        79.2475 
 263   0.0000       2.939487        79.9875 
 264   0.0000       2.949018        80.2469 
 265   0.0000       2.969877        80.8145 
 266   0.0000       2.972269        80.8795 
 267   0.0000       2.978178        81.0403 
 268   0.0000       2.988494        81.3210 
 269   0.0000       2.991173        81.3940 
 270   0.0000       2.992540        81.4311 
 271   0.0000       2.998995        81.6068 
 272   0.0000       3.015961        82.0685 
 273   0.0000       3.046098        82.8885 
 274   0.0000       3.048397        82.9511 
 275   0.0000       3.060720        83.2864 
 276   0.0000       3.065045        83.4041 
 277   0.0000       3.078747        83.7770 
 278   0.0000       3.079852        83.8070 
 279   0.0000       3.117600        84.8342 
 280   0.0000       3.135148        85.3117 
 281   0.0000       3.180402        86.5431 
 282   0.0000       3.187101        86.7254 
 283   0.0000       3.293564        89.6224 
 284   0.0000       3.460970        94.1778 
 285   0.0000       3.573773        97.2473 
 286   0.0000       3.591417        97.7274 

                    ********************************
                    * MULLIKEN POPULATION ANALYSIS *
                    ********************************

-----------------------
MULLIKEN ATOMIC CHARGES
-----------------------
   0 N :   -0.183121
   1 C :    0.210726
   2 N :   -0.173683
   3 H :    0.134344
   4 C :    0.059528
   5 C :    0.066391
   6 C :   -0.238354
   7 C :   -0.240732
   8 C :    0.043133
   9 C :    0.010362
  10 C :    0.025321
  11 C :    0.018916
  12 C :    0.050892
  13 C :    0.002807
  14 H :    0.100769
  15 H :    0.098925
  16 H :    0.057066
  17 H :    0.048988
  18 H :    0.052031
  19 H :    0.058924
  20 H :    0.055465
  21 H :    0.050616
  22 H :    0.049097
  23 H :    0.050455
  24 H :    0.057323
  25 H :    0.062145
  26 H :    0.059415
  27 H :    0.057867
  28 H :    0.054681
  29 H :    0.059650
  30 H :    0.056452
  31 H :    0.059003
  32 H :    0.063531
  33 H :    0.061068
Sum of atomic charges:    1.0000000

--------------------------------
MULLIKEN REDUCED ORBITAL CHARGES
--------------------------------
  0 N s       :     3.397161  s :     3.397161
      pz      :     1.425267  p :     3.754270
      px      :     1.167588
      py      :     1.161415
      dz2     :     0.003607  d :     0.031690
      dxz     :     0.005437
      dyz     :     0.005373
      dx2y2   :     0.007431
      dxy     :     0.009841
  1 C s       :     3.105973  s :     3.105973
      pz      :     0.927288  p :     2.616441
      px      :     0.777072
      py      :     0.912081
      dz2     :     0.005812  d :     0.066860
      dxz     :     0.017109
      dyz     :     0.006621
      dx2y2   :     0.015830
      dxy     :     0.021488
  2 N s       :     3.393555  s :     3.393555
      pz      :     1.422574  p :     3.748141
      px      :     1.158264
      py      :     1.167302
      dz2     :     0.003399  d :     0.031987
      dxz     :     0.005724
      dyz     :     0.005542
      dx2y2   :     0.007795
      dxy     :     0.009527
  3 H s       :     0.840722  s :     0.840722
      pz      :     0.005516  p :     0.024934
      px      :     0.001654
      py      :     0.017764
  4 C s       :     3.145414  s :     3.145414
      pz      :     1.013344  p :     2.748074
      px      :     0.914379
      py      :     0.820352
      dz2     :     0.004954  d :     0.046984
      dxz     :     0.007715
      dyz     :     0.008152
      dx2y2   :     0.014425
      dxy     :     0.011739
  5 C s       :     3.154532  s :     3.154532
      pz      :     1.010230  p :     2.731617
      px      :     0.902327
      py      :     0.819060
      dz2     :     0.004619  d :     0.047461
      dxz     :     0.008309
      dyz     :     0.008028
      dx2y2   :     0.014177
      dxy     :     0.012328
  6 C s       :     3.229337  s :     3.229337
      pz      :     1.074220  p :     2.945609
      px      :     0.808326
      py      :     1.063063
      dz2     :     0.014542  d :     0.063409
      dxz     :     0.008884
      dyz     :     0.012731
      dx2y2   :     0.014055
      dxy     :     0.013196
  7 C s       :     3.228883  s :     3.228883
      pz      :     1.086057  p :     2.948314
      px      :     0.800451
      py      :     1.061805
      dz2     :     0.013738  d :     0.063535
      dxz     :     0.010627
      dyz     :     0.012113
      dx2y2   :     0.014873
      dxy     :     0.012184
  8 C s       :     3.000437  s :     3.000437
      pz      :     0.956191  p :     2.930836
      px      :     1.018730
      py      :     0.955915
      dz2     :     0.007452  d :     0.025595
      dxz     :     0.001230
      dyz     :     0.006674
      dx2y2   :     0.003971
      dxy     :     0.006267
  9 C s       :     3.004231  s :     3.004231
      pz      :     1.014786  p :     2.959885
      px      :     0.986501
      py      :     0.958598
      dz2     :     0.005996  d :     0.025522
      dxz     :     0.001284
      dyz     :     0.007759
      dx2y2   :     0.004265
      dxy     :     0.006218
 10 C s       :     3.007306  s :     3.007306
      pz      :     0.917092  p :     2.941850
      px      :     1.024073
      py      :     1.000685
      dz2     :     0.006893  d :     0.025522
      dxz     :     0.001783
      dyz     :     0.007482
      dx2y2   :     0.003939
      dxy     :     0.005424
 11 C s       :     3.007429  s :     3.007429
      pz      :     0.991404  p :     2.948250
      px      :     0.991393
      py      :     0.965453
      dz2     :     0.004460  d :     0.025405
      dxz     :     0.004085
      dyz     :     0.007006
      dx2y2   :     0.004777
      dxy     :     0.005077
 12 C s       :     2.996566  s :     2.996566
      pz      :     0.914143  p :     2.926950
      px      :     1.000187
      py      :     1.012621
      dz2     :     0.005502  d :     0.025592
      dxz     :     0.003808
      dyz     :     0.007390
      dx2y2   :     0.004817
      dxy     :     0.004075
 13 C s       :     3.010240  s :     3.010240
      pz      :     0.983286  p :     2.961458
      px      :     1.036280
      py      :     0.941892
      dz2     :     0.005815  d :     0.025495
      dxz     :     0.003284
      dyz     :     0.006398
      dx2y2   :     0.005828
      dxy     :     0.004169
 14 H s       :     0.874438  s :     0.874438
      pz      :     0.005142  p :     0.024793
      px      :     0.009146
      py      :     0.010504
 15 H s       :     0.876200  s :     0.876200
      pz      :     0.005533  p :     0.024875
      px      :     0.008379
      py      :     0.010963
 16 H s       :     0.918964  s :     0.918964
      pz      :     0.004158  p :     0.023970
      px      :     0.014111
      py      :     0.005702
 17 H s       :     0.927248  s :     0.927248
      pz      :     0.004140  p :     0.023764
      px      :     0.008871
      py      :     0.010753
 18 H s       :     0.924446  s :     0.924446
      pz      :     0.013036  p :     0.023522
      px      :     0.004888
      py      :     0.005598
 19 H s       :     0.917084  s :     0.917084
      pz      :     0.003837  p :     0.023992
      px      :     0.014470
      py      :     0.005685
 20 H s       :     0.921045  s :     0.921045
      pz      :     0.009205  p :     0.023490
      px      :     0.004914
      py      :     0.009371
 21 H s       :     0.925431  s :     0.925431
      pz      :     0.004073  p :     0.023953
      px      :     0.008358
      py      :     0.011521
 22 H s       :     0.927224  s :     0.927224
      pz      :     0.006985  p :     0.023679
      px      :     0.004630
      py      :     0.012063
 23 H s       :     0.926005  s :     0.926005
      pz      :     0.006097  p :     0.023540
      px      :     0.007672
      py      :     0.009771
 24 H s       :     0.918704  s :     0.918704
      pz      :     0.003743  p :     0.023973
      px      :     0.014247
      py      :     0.005983
 25 H s       :     0.913802  s :     0.913802
      pz      :     0.004893  p :     0.024053
      px      :     0.014036
      py      :     0.005124
 26 H s       :     0.916766  s :     0.916766
      pz      :     0.013663  p :     0.023819
      px      :     0.004400
      py      :     0.005755
 27 H s       :     0.918468  s :     0.918468
      pz      :     0.009712  p :     0.023666
      px      :     0.004313
      py      :     0.009641
 28 H s       :     0.921369  s :     0.921369
      pz      :     0.007754  p :     0.023950
      px      :     0.004790
      py      :     0.011406
 29 H s       :     0.916295  s :     0.916295
      pz      :     0.005071  p :     0.024056
      px      :     0.013557
      py      :     0.005427
 30 H s       :     0.920016  s :     0.920016
      pz      :     0.012496  p :     0.023532
      px      :     0.006131
      py      :     0.004905
 31 H s       :     0.917366  s :     0.917366
      pz      :     0.013528  p :     0.023630
      px      :     0.006251
      py      :     0.003851
 32 H s       :     0.912400  s :     0.912400
      pz      :     0.004633  p :     0.024069
      px      :     0.014487
      py      :     0.004949
 33 H s       :     0.914996  s :     0.914996
      pz      :     0.006271  p :     0.023936
      px      :     0.007271
      py      :     0.010394


                     *******************************
                     * LOEWDIN POPULATION ANALYSIS *
                     *******************************

----------------------
LOEWDIN ATOMIC CHARGES
----------------------
   0 N :    0.097560
   1 C :    0.120183
   2 N :    0.102778
   3 H :    0.063209
   4 C :    0.013385
   5 C :    0.018769
   6 C :    0.016644
   7 C :    0.016359
   8 C :   -0.044828
   9 C :   -0.047621
  10 C :   -0.045827
  11 C :   -0.046148
  12 C :   -0.043776
  13 C :   -0.048610
  14 H :    0.059251
  15 H :    0.059918
  16 H :    0.043025
  17 H :    0.034414
  18 H :    0.036547
  19 H :    0.044275
  20 H :    0.037585
  21 H :    0.034680
  22 H :    0.034697
  23 H :    0.035889
  24 H :    0.043117
  25 H :    0.047393
  26 H :    0.037270
  27 H :    0.037931
  28 H :    0.035351
  29 H :    0.045183
  30 H :    0.037864
  31 H :    0.038527
  32 H :    0.047883
  33 H :    0.037122

-------------------------------
LOEWDIN REDUCED ORBITAL CHARGES
-------------------------------
  0 N s       :     3.057521  s :     3.057521
      pz      :     1.364350  p :     3.771813
      px      :     1.194336
      py      :     1.213127
      dz2     :     0.006883  d :     0.073105
      dxz     :     0.010176
      dyz     :     0.010762
      dx2y2   :     0.019943
      dxy     :     0.025341
  1 C s       :     2.835403  s :     2.835403
[...]
     76      -0.000715   0.016891   0.226283   0.000989   0.000116   0.002108
     77       0.000326  -0.007688  -0.103111  -0.000357  -0.000048  -0.000760
     78       0.000100  -0.002380  -0.031330  -0.000957  -0.000280  -0.002198
     79      -0.000230   0.005677   0.074870   0.000992   0.000411   0.002107
     80       0.001022  -0.024264  -0.321046  -0.003000  -0.000775  -0.006059
     81       0.000136  -0.002642  -0.035774  -0.000853  -0.000211  -0.001979
     82      -0.000839   0.016355   0.221331   0.002364   0.000703   0.004966
     83      -0.000599   0.011646   0.157759   0.001445   0.000271   0.002981
     84       0.006251   0.004304  -0.000351  -0.000194  -0.000049   0.000115
     85      -0.207361  -0.137513   0.011295  -0.016239  -0.000066   0.005550
     86       0.077100   0.051646  -0.004223   0.006690   0.000123  -0.002407
     87      -0.347096  -0.335574   0.025652  -0.002411   0.000297   0.001053
     88      -0.102402  -0.098666   0.007495  -0.001024  -0.000068   0.000391
     89       0.064469   0.063671  -0.004892   0.000362  -0.000195  -0.000145
     90      -0.054135  -0.081986   0.005690   0.002161  -0.000091  -0.000657
     91       0.005924   0.006493  -0.000476   0.000015  -0.000027  -0.000008
     92      -0.095863  -0.143512   0.010010   0.003621  -0.000107  -0.001058
     93       0.100851  -0.115849   0.008104   0.000342  -0.005796   0.000891
     94      -0.013737   0.015856  -0.001113  -0.000162   0.000727  -0.000086
     95       0.199711  -0.228355   0.016048   0.000574  -0.008628   0.001403
     96       0.521980  -0.638686   0.045310   0.001281  -0.003726   0.001053
     97       0.149589  -0.184999   0.013166   0.000709  -0.000185   0.000064
     98      -0.075927   0.093534  -0.006653  -0.000314   0.000191  -0.000059
     99       0.078806  -0.102151   0.007224   0.000044  -0.001761   0.000351
    100      -0.129399   0.165969  -0.011781  -0.000099   0.000812  -0.000280
    101      -0.132343   0.169105  -0.012009   0.000061   0.001138  -0.000373


-----------
IR SPECTRUM
-----------

 Mode   freq       eps      Int      T**2         TX        TY        TZ
       cm**-1   L/(mol*cm) km/mol    a.u.
----------------------------------------------------------------------------
  6:     29.63   0.000000    0.00  0.000002  ( 0.001184  0.000251  0.000813)
  7:     35.28   0.000000    0.00  0.000001  ( 0.000512 -0.000550 -0.000586)
  8:     96.37   0.000019    0.10  0.000062  (-0.000363  0.003038  0.007246)
  9:    140.00   0.000021    0.10  0.000046  (-0.000173  0.006167 -0.002832)
 10:    158.60   0.000001    0.00  0.000002  ( 0.000144  0.001050  0.000724)
 11:    228.87   0.000004    0.02  0.000006  ( 0.000009  0.001437  0.002003)
 12:    234.68   0.000001    0.01  0.000001  ( 0.000288  0.001108 -0.000408)
 13:    262.12   0.000017    0.09  0.000020  ( 0.001026  0.004180 -0.001360)
 14:    266.40   0.000001    0.00  0.000001  (-0.000345 -0.000633  0.000597)
 15:    273.89   0.000037    0.19  0.000043  (-0.003553 -0.005104  0.001992)
 16:    299.49   0.000007    0.04  0.000008  ( 0.002653  0.000140 -0.000785)
 17:    328.38   0.000014    0.07  0.000014  ( 0.000400  0.001780  0.003230)
 18:    333.07   0.000033    0.17  0.000031  (-0.000076  0.002808  0.004824)
 19:    340.48   0.000019    0.09  0.000017  (-0.000377 -0.003801  0.001586)
 20:    346.14   0.000036    0.18  0.000033  ( 0.000179 -0.000653 -0.005687)
 21:    363.98   0.000006    0.03  0.000005  ( 0.000841  0.000810  0.002007)
 22:    370.42   0.000005    0.03  0.000004  ( 0.000414 -0.001816 -0.000928)
 23:    410.25   0.000020    0.10  0.000015  ( 0.003716  0.001097 -0.000410)
 24:    443.49   0.000005    0.02  0.000003  ( 0.000591  0.000522  0.001640)
 25:    470.74   0.000052    0.26  0.000035  (-0.004673 -0.003427  0.001022)
 26:    475.11   0.000015    0.08  0.000010  (-0.001385 -0.001893 -0.002087)
 27:    520.20   0.000010    0.05  0.000006  (-0.001776 -0.001510 -0.000683)
 28:    574.55   0.000155    0.78  0.000084  (-0.000570  0.008419 -0.003602)
 29:    636.01   0.001601    8.09  0.000786  (-0.028022  0.000494  0.000145)
 30:    680.42   0.012546   63.40  0.005754  ( 0.002124  0.030138  0.069578)
 31:    684.97   0.002168   10.95  0.000988  (-0.001664 -0.012341 -0.028852)
 32:    758.49   0.009160   46.29  0.003769  (-0.001157  0.024859  0.056119)
 33:    847.04   0.000019    0.10  0.000007  (-0.001951  0.001197 -0.001306)
 34:    851.01   0.000226    1.14  0.000083  ( 0.009008  0.000362 -0.001307)
 35:    891.24   0.004950   25.02  0.001733  (-0.000693 -0.016831 -0.038073)
 36:    912.98   0.000008    0.04  0.000003  ( 0.000039 -0.001290 -0.001040)
 37:    947.66   0.000555    2.80  0.000183  ( 0.000676  0.005461  0.012346)
 38:    948.94   0.000591    2.99  0.000194  (-0.001325 -0.005766 -0.012629)
 39:    955.34   0.000968    4.89  0.000316  ( 0.009031  0.014303 -0.005489)
 40:    957.15   0.000589    2.98  0.000192  ( 0.000560 -0.012763  0.005377)
 41:    970.67   0.000024    0.12  0.000008  (-0.000485 -0.001027 -0.002522)
 42:    974.62   0.000030    0.15  0.000009  ( 0.000086  0.001929  0.002392)
 43:   1022.41   0.001493    7.54  0.000456  ( 0.021342 -0.000258 -0.000216)
 44:   1039.61   0.000087    0.44  0.000026  ( 0.003402 -0.003614  0.001217)
 45:   1050.57   0.000164    0.83  0.000049  ( 0.006577 -0.001690  0.001595)
 46:   1052.07   0.000007    0.04  0.000002  ( 0.000532 -0.000849 -0.001046)
 47:   1054.63   0.000070    0.35  0.000021  ( 0.001391  0.002592  0.003467)
 48:   1057.15   0.000100    0.51  0.000030  (-0.000309 -0.002310 -0.004919)
 49:   1126.45   0.005277   26.67  0.001462  (-0.009727 -0.033726  0.015157)
 50:   1147.52   0.017184   86.84  0.004673  (-0.068156  0.005026 -0.001610)
 51:   1220.86   0.002661   13.45  0.000680  (-0.013296  0.020225 -0.009714)
 52:   1234.42   0.073238  370.11  0.018515  (-0.136048  0.000765  0.002215)
 53:   1264.15   0.001339    6.77  0.000330  ( 0.017238 -0.005625  0.001305)
 54:   1272.62   0.002472   12.49  0.000606  (-0.021858 -0.009875  0.005565)
 55:   1279.50   0.000289    1.46  0.000070  ( 0.000796 -0.003547 -0.007563)
 56:   1281.09   0.006494   32.82  0.001582  ( 0.004355  0.015669  0.036294)
 57:   1304.66   0.000097    0.49  0.000023  ( 0.004687  0.000689 -0.000891)
 58:   1360.16   0.005042   25.48  0.001157  (-0.000379 -0.031102  0.013762)
 59:   1395.78   0.004290   21.68  0.000959  ( 0.000937  0.010151  0.029246)
 60:   1396.49   0.006083   30.74  0.001359  ( 0.000863  0.011908  0.034881)
 61:   1398.44   0.008046   40.66  0.001795  (-0.014708 -0.038127  0.011196)
 62:   1402.20   0.004756   24.04  0.001059  ( 0.009630 -0.028475  0.012447)
 63:   1412.04   0.001543    7.80  0.000341  ( 0.018377 -0.001808  0.000206)
 64:   1413.82   0.001501    7.58  0.000331  ( 0.016722  0.006560 -0.002929)
 65:   1442.80   0.000086    0.43  0.000019  ( 0.000178 -0.001052 -0.004172)
 66:   1443.72   0.000103    0.52  0.000022  ( 0.001082 -0.000280 -0.004575)
 67:   1445.58   0.000347    1.75  0.000075  ( 0.008348  0.002204 -0.000553)
 68:   1446.54   0.000023    0.12  0.000005  (-0.000870 -0.001497  0.001418)
 69:   1448.65   0.000040    0.20  0.000009  ( 0.000408 -0.000519 -0.002859)
 70:   1451.36   0.000214    1.08  0.000046  ( 0.002660  0.005049 -0.003678)
 71:   1453.91   0.000578    2.92  0.000124  ( 0.010845  0.001886 -0.001726)
 72:   1460.34   0.005504   27.81  0.001176  ( 0.001959  0.032244 -0.011515)
 73:   1468.55   0.001514    7.65  0.000322  ( 0.002429  0.004308  0.017238)
 74:   1470.97   0.001765    8.92  0.000375  (-0.000567 -0.007630 -0.017776)
 75:   1474.31   0.000345    1.74  0.000073  ( 0.007564 -0.003035  0.002559)
 76:   1480.19   0.002084   10.53  0.000439  ( 0.020329 -0.004724 -0.001919)
 77:   1481.17   0.000589    2.98  0.000124  (-0.005900 -0.008423  0.004292)
 78:   1489.98   0.000144    0.73  0.000030  ( 0.005194  0.001598 -0.000807)
 79:   1633.66   0.030491  154.09  0.005824  ( 0.076072  0.005246 -0.003138)
 80:   1648.08   0.005420   27.39  0.001026  (-0.024955  0.018622 -0.007528)
 81:   3070.60   0.003211   16.23  0.000326  (-0.000339  0.004955  0.017368)
 82:   3072.08   0.004533   22.91  0.000460  (-0.005894  0.020583  0.001430)
 83:   3072.17   0.001241    6.27  0.000126  ( 0.004127  0.009074 -0.005171)
 84:   3073.03   0.003016   15.24  0.000306  (-0.003523  0.000416 -0.017137)
 85:   3076.82   0.000447    2.26  0.000045  (-0.005891 -0.001218 -0.003030)
 86:   3076.91   0.000534    2.70  0.000054  (-0.004109 -0.005434  0.002777)
 87:   3175.67   0.000477    2.41  0.000047  ( 0.000563 -0.000892 -0.006766)
 88:   3175.82   0.002373   11.99  0.000233  ( 0.001823  0.007180  0.013354)
 89:   3177.15   0.004994   25.24  0.000491  (-0.010831 -0.017530  0.008120)
 90:   3178.78   0.002618   13.23  0.000257  ( 0.003754 -0.006241  0.014281)
 91:   3179.62   0.002121   10.72  0.000208  ( 0.000204 -0.005363 -0.013392)
 92:   3180.91   0.003239   16.37  0.000318  ( 0.004828 -0.017081 -0.001631)
 93:   3183.75   0.001669    8.43  0.000164  ( 0.003383 -0.005055 -0.011251)
 94:   3184.40   0.000866    4.38  0.000085  ( 0.002093  0.004756  0.007607)
 95:   3184.86   0.001398    7.07  0.000137  ( 0.011496  0.001767  0.001312)
 96:   3185.44   0.001478    7.47  0.000145  ( 0.004078  0.010125 -0.005060)
 97:   3189.71   0.005429   27.44  0.000531  ( 0.022547  0.004001 -0.002609)
 98:   3190.28   0.004191   21.18  0.000410  ( 0.017172 -0.009530  0.004929)
 99:   3312.64   0.005634   28.47  0.000531  ( 0.020857 -0.009050  0.003726)
100:   3323.30   0.011654   58.89  0.001094  ( 0.004090  0.030392 -0.012406)
101:   3337.09   0.003311   16.73  0.000310  ( 0.009993  0.013357 -0.005598)

* The epsilon (eps) is given for a Dirac delta lineshape.
** The dipole moment derivative (T) already includes vibrational overlap.

The first frequency considered to be a vibration is 6
The total number of vibrations considered is 96


--------------------------
THERMOCHEMISTRY AT 298.15K
--------------------------

Temperature         ... 298.15 K
Pressure            ... 1.00 atm
Total Mass          ... 181.30 AMU

Throughout the following assumptions are being made:
  (1) The electronic state is orbitally nondegenerate
  (2) There are no thermally accessible electronically excited states
  (3) Hindered rotations indicated by low frequency modes are not
      treated as such but are treated as vibrations and this may
      cause some error
  (4) All equations used are the standard statistical mechanics
      equations for an ideal gas
  (5) All vibrations are strictly harmonic

freq.      29.63  E(vib)   ...       0.55 
freq.      35.28  E(vib)   ...       0.54 
freq.      96.37  E(vib)   ...       0.47 
freq.     140.00  E(vib)   ...       0.41 
freq.     158.60  E(vib)   ...       0.39 
freq.     228.87  E(vib)   ...       0.32 
freq.     234.68  E(vib)   ...       0.32 
freq.     262.12  E(vib)   ...       0.29 
freq.     266.40  E(vib)   ...       0.29 
freq.     273.89  E(vib)   ...       0.28 
freq.     299.49  E(vib)   ...       0.26 
freq.     328.38  E(vib)   ...       0.24 
freq.     333.07  E(vib)   ...       0.24 
freq.     340.48  E(vib)   ...       0.23 
freq.     346.14  E(vib)   ...       0.23 
freq.     363.98  E(vib)   ...       0.22 
freq.     370.42  E(vib)   ...       0.21 
freq.     410.25  E(vib)   ...       0.19 
freq.     443.49  E(vib)   ...       0.17 
freq.     470.74  E(vib)   ...       0.15 
freq.     475.11  E(vib)   ...       0.15 
freq.     520.20  E(vib)   ...       0.13 
freq.     574.55  E(vib)   ...       0.11 
freq.     636.01  E(vib)   ...       0.09 
freq.     680.42  E(vib)   ...       0.08 
freq.     684.97  E(vib)   ...       0.07 
freq.     758.49  E(vib)   ...       0.06 
freq.     847.04  E(vib)   ...       0.04 
freq.     851.01  E(vib)   ...       0.04 
freq.     891.24  E(vib)   ...       0.04 
freq.     912.98  E(vib)   ...       0.03 
freq.     947.66  E(vib)   ...       0.03 
freq.     948.94  E(vib)   ...       0.03 
freq.     955.34  E(vib)   ...       0.03 
freq.     957.15  E(vib)   ...       0.03 
freq.     970.67  E(vib)   ...       0.03 
freq.     974.62  E(vib)   ...       0.03 
freq.    1022.41  E(vib)   ...       0.02 
freq.    1039.61  E(vib)   ...       0.02 
freq.    1050.57  E(vib)   ...       0.02 
freq.    1052.07  E(vib)   ...       0.02 
freq.    1054.63  E(vib)   ...       0.02 
freq.    1057.15  E(vib)   ...       0.02 
freq.    1126.45  E(vib)   ...       0.01 
freq.    1147.52  E(vib)   ...       0.01 
freq.    1220.86  E(vib)   ...       0.01 
freq.    1234.42  E(vib)   ...       0.01 
freq.    1264.15  E(vib)   ...       0.01 
freq.    1272.62  E(vib)   ...       0.01 
freq.    1279.50  E(vib)   ...       0.01 
freq.    1281.09  E(vib)   ...       0.01 
freq.    1304.66  E(vib)   ...       0.01 
freq.    1360.16  E(vib)   ...       0.01 
freq.    1395.78  E(vib)   ...       0.00 
freq.    1396.49  E(vib)   ...       0.00 
freq.    1398.44  E(vib)   ...       0.00 
freq.    1402.20  E(vib)   ...       0.00 
freq.    1412.04  E(vib)   ...       0.00 
freq.    1413.82  E(vib)   ...       0.00 
freq.    1442.80  E(vib)   ...       0.00 
freq.    1443.72  E(vib)   ...       0.00 
freq.    1445.58  E(vib)   ...       0.00 
freq.    1446.54  E(vib)   ...       0.00 
freq.    1448.65  E(vib)   ...       0.00 
freq.    1451.36  E(vib)   ...       0.00 
freq.    1453.91  E(vib)   ...       0.00 
freq.    1460.34  E(vib)   ...       0.00 
freq.    1468.55  E(vib)   ...       0.00 
freq.    1470.97  E(vib)   ...       0.00 
freq.    1474.31  E(vib)   ...       0.00 
freq.    1480.19  E(vib)   ...       0.00 
freq.    1481.17  E(vib)   ...       0.00 
freq.    1489.98  E(vib)   ...       0.00 
freq.    1633.66  E(vib)   ...       0.00 
freq.    1648.08  E(vib)   ...       0.00 
freq.    3070.60  E(vib)   ...       0.00 
freq.    3072.08  E(vib)   ...       0.00 
freq.    3072.17  E(vib)   ...       0.00 
freq.    3073.03  E(vib)   ...       0.00 
freq.    3076.82  E(vib)   ...       0.00 
freq.    3076.91  E(vib)   ...       0.00 
freq.    3175.67  E(vib)   ...       0.00 
freq.    3175.82  E(vib)   ...       0.00 
freq.    3177.15  E(vib)   ...       0.00 
freq.    3178.78  E(vib)   ...       0.00 
freq.    3179.62  E(vib)   ...       0.00 
freq.    3180.91  E(vib)   ...       0.00 
freq.    3183.75  E(vib)   ...       0.00 
freq.    3184.40  E(vib)   ...       0.00 
freq.    3184.86  E(vib)   ...       0.00 
freq.    3185.44  E(vib)   ...       0.00 
freq.    3189.71  E(vib)   ...       0.00 
freq.    3190.28  E(vib)   ...       0.00 
freq.    3312.64  E(vib)   ...       0.00 
freq.    3323.30  E(vib)   ...       0.00 
freq.    3337.09  E(vib)   ...       0.00 

------------
INNER ENERGY
------------

The inner energy is: U= E(el) + E(ZPE) + E(vib) + E(rot) + E(trans)
    E(el)   - is the total energy from the electronic structure calculation
              = E(kin-el) + E(nuc-el) + E(el-el) + E(nuc-nuc)
    E(ZPE)  - the the zero temperature vibrational energy from the frequency calculation
    E(vib)  - the the finite temperature correction to E(ZPE) due to population
              of excited vibrational states
    E(rot)  - is the rotational thermal energy
    E(trans)- is the translational thermal energy

Summary of contributions to the inner energy U:
Electronic energy                ...   -540.69349837 Eh
Zero point energy                ...      0.31107495 Eh     195.20 kcal/mol
Thermal vibrational correction   ...      0.01166856 Eh       7.32 kcal/mol
Thermal rotational correction    ...      0.00141627 Eh       0.89 kcal/mol
Thermal translational correction ...      0.00141627 Eh       0.89 kcal/mol
-----------------------------------------------------------------------
Total thermal energy                   -540.36792232 Eh


Summary of corrections to the electronic energy:
(perhaps to be used in another calculation)
Total thermal correction                  0.01450110 Eh       9.10 kcal/mol
Non-thermal (ZPE) correction              0.31107495 Eh     195.20 kcal/mol
-----------------------------------------------------------------------
Total correction                          0.32557605 Eh     204.30 kcal/mol


--------
ENTHALPY
--------

The enthalpy is H = U + kB*T
                kB is Boltzmann's constant
Total free energy                 ...   -540.36792232 Eh 
Thermal Enthalpy correction       ...      0.00094421 Eh       0.59 kcal/mol
-----------------------------------------------------------------------
Total Enthalpy                    ...   -540.36697811 Eh


Note: Only C1 symmetry has been detected, increase convergence thresholds 
      if your molecule has a higher symmetry. Symmetry factor of 1.0 is   
      used for the rotational entropy correction. 
 

Note: Rotational entropy computed according to Herzberg 
Infrared and Raman Spectra, Chapter V,1, Van Nostrand Reinhold, 1945 
Point Group:  C1, Symmetry Number:   1  
Rotational constants in cm-1:     0.055162     0.014871     0.013874 

Vibrational entropy computed according to the QRRHO of S. Grimme
Chem.Eur.J. 2012 18 9955


-------
ENTROPY
-------

The entropy contributions are T*S = T*(S(el)+S(vib)+S(rot)+S(trans))
     S(el)   - electronic entropy
     S(vib)  - vibrational entropy
     S(rot)  - rotational entropy
     S(trans)- translational entropy
The entropies will be listed as multiplied by the temperature to get
units of energy

Electronic entropy                ...      0.00000000 Eh      0.00 kcal/mol
Vibrational entropy               ...      0.01977128 Eh     12.41 kcal/mol
Rotational entropy                ...      0.01488487 Eh      9.34 kcal/mol
Translational entropy             ...      0.01971392 Eh     12.37 kcal/mol
-----------------------------------------------------------------------
Final entropy term                ...      0.05437007 Eh     34.12 kcal/mol

In case the symmetry of your molecule has not been determined correctly
or in case you have a reason to use a different symmetry number we print 
out the resulting rotational entropy values for sn=1,12 :
 --------------------------------------------------------
|  sn= 1 | S(rot)=       0.01488487 Eh      9.34 kcal/mol|
|  sn= 2 | S(rot)=       0.01423042 Eh      8.93 kcal/mol|
|  sn= 3 | S(rot)=       0.01384759 Eh      8.69 kcal/mol|
|  sn= 4 | S(rot)=       0.01357596 Eh      8.52 kcal/mol|
|  sn= 5 | S(rot)=       0.01336527 Eh      8.39 kcal/mol|
|  sn= 6 | S(rot)=       0.01319313 Eh      8.28 kcal/mol|
|  sn= 7 | S(rot)=       0.01304758 Eh      8.19 kcal/mol|
|  sn= 8 | S(rot)=       0.01292151 Eh      8.11 kcal/mol|
|  sn= 9 | S(rot)=       0.01281030 Eh      8.04 kcal/mol|
|  sn=10 | S(rot)=       0.01271082 Eh      7.98 kcal/mol|
|  sn=11 | S(rot)=       0.01262083 Eh      7.92 kcal/mol|
|  sn=12 | S(rot)=       0.01253867 Eh      7.87 kcal/mol|
 --------------------------------------------------------


-------------------
GIBBS FREE ENERGY
-------------------

The Gibbs free energy is G = H - T*S

Total enthalpy                    ...   -540.36697811 Eh 
Total entropy correction          ...     -0.05437007 Eh    -34.12 kcal/mol
-----------------------------------------------------------------------
Final Gibbs free energy         ...   -540.42134818 Eh

For completeness - the Gibbs free energy minus the electronic energy
G-E(el)                           ...      0.27215019 Eh    170.78 kcal/mol


Timings for individual modules:

Sum of individual times         ...    12537.898 sec (= 208.965 min)
GTO integral calculation        ...        7.907 sec (=   0.132 min)   0.1 %
SCF iterations                  ...     7464.108 sec (= 124.402 min)  59.5 %
SCF Gradient evaluation         ...     2235.501 sec (=  37.258 min)  17.8 %
Geometry relaxation             ...        1.582 sec (=   0.026 min)   0.0 %
Analytical frequency calculation...     2828.800 sec (=  47.147 min)  22.6 %
                             ****ORCA TERMINATED NORMALLY****
TOTAL RUN TIME: 0 days 3 hours 29 minutes 1 seconds 25 msec
