
                                 *****************
                                 * O   R   C   A *
                                 *****************

                                            #,                                       
                                            ###                                      
                                            ####                                     
                                            #####                                    
                                            ######                                   
                                           ########,                                 
                                     ,,################,,,,,                         
                               ,,#################################,,                 
                          ,,##########################################,,             
                       ,#########################################, ''#####,          
                    ,#############################################,,   '####,        
                  ,##################################################,,,,####,       
                ,###########''''           ''''###############################       
              ,#####''   ,,,,##########,,,,          '''####'''          '####       
            ,##' ,,,,###########################,,,                        '##       
           ' ,,###''''                  '''############,,,                           
         ,,##''                                '''############,,,,        ,,,,,,###''
      ,#''                                            '''#######################'''  
     '                                                          ''''####''''         
             ,#######,   #######,   ,#######,      ##                                
            ,#'     '#,  ##    ##  ,#'     '#,    #''#        ######   ,####,        
            ##       ##  ##   ,#'  ##            #'  '#       #        #'  '#        
            ##       ##  #######   ##           ,######,      #####,   #    #        
            '#,     ,#'  ##    ##  '#,     ,#' ,#      #,         ##   #,  ,#        
             '#######'   ##     ##  '#######'  #'      '#     #####' # '####'        



                  #######################################################
                  #                        -***-                        #
                  #          Department of theory and spectroscopy      #
                  #    Directorship and core code : Frank Neese         #
                  #        Max Planck Institute fuer Kohlenforschung    #
                  #                Kaiser Wilhelm Platz 1               #
                  #                 D-45470 Muelheim/Ruhr               #
                  #                      Germany                        #
                  #                                                     #
                  #                  All rights reserved                #
                  #                        -***-                        #
                  #######################################################


                         Program Version 5.0.4 -  RELEASE  -


 With contributions from (in alphabetic order):
   Daniel Aravena         : Magnetic Suceptibility
   Michael Atanasov       : Ab Initio Ligand Field Theory (pilot matlab implementation)
   Alexander A. Auer      : GIAO ZORA, VPT2 properties, NMR spectrum
   Ute Becker             : Parallelization
   Giovanni Bistoni       : ED, misc. LED, open-shell LED, HFLD
   Martin Brehm           : Molecular dynamics
   Dmytro Bykov           : SCF Hessian
   Vijay G. Chilkuri      : MRCI spin determinant printing, contributions to CSF-ICE
   Dipayan Datta          : RHF DLPNO-CCSD density
   Achintya Kumar Dutta   : EOM-CC, STEOM-CC
   Dmitry Ganyushin       : Spin-Orbit,Spin-Spin,Magnetic field MRCI
   Miquel Garcia          : C-PCM and meta-GGA Hessian, CC/C-PCM, Gaussian charge scheme
   Yang Guo               : DLPNO-NEVPT2, F12-NEVPT2, CIM, IAO-localization
   Andreas Hansen         : Spin unrestricted coupled pair/coupled cluster methods
   Benjamin Helmich-Paris : MC-RPA, TRAH-SCF, COSX integrals
   Lee Huntington         : MR-EOM, pCC
   Robert Izsak           : Overlap fitted RIJCOSX, COSX-SCS-MP3, EOM
   Marcus Kettner         : VPT2
   Christian Kollmar      : KDIIS, OOCD, Brueckner-CCSD(T), CCSD density, CASPT2, CASPT2-K
   Simone Kossmann        : Meta GGA functionals, TD-DFT gradient, OOMP2, MP2 Hessian
   Martin Krupicka        : Initial AUTO-CI
   Lucas Lang             : DCDCAS
   Marvin Lechner         : AUTO-CI (C++ implementation), FIC-MRCC
   Dagmar Lenk            : GEPOL surface, SMD
   Dimitrios Liakos       : Extrapolation schemes; Compound Job, initial MDCI parallelization
   Dimitrios Manganas     : Further ROCIS development; embedding schemes
   Dimitrios Pantazis     : SARC Basis sets
   Anastasios Papadopoulos: AUTO-CI, single reference methods and gradients
   Taras Petrenko         : DFT Hessian,TD-DFT gradient, ASA, ECA, R-Raman, ABS, FL, XAS/XES, NRVS
   Peter Pinski           : DLPNO-MP2, DLPNO-MP2 Gradient
   Christoph Reimann      : Effective Core Potentials
   Marius Retegan         : Local ZFS, SOC
   Christoph Riplinger    : Optimizer, TS searches, QM/MM, DLPNO-CCSD(T), (RO)-DLPNO pert. Triples
   Tobias Risthaus        : Range-separated hybrids, TD-DFT gradient, RPA, STAB
   Michael Roemelt        : Original ROCIS implementation
   Masaaki Saitow         : Open-shell DLPNO-CCSD energy and density
   Barbara Sandhoefer     : DKH picture change effects
   Avijit Sen             : IP-ROCIS
   Kantharuban Sivalingam : CASSCF convergence, NEVPT2, FIC-MRCI
   Bernardo de Souza      : ESD, SOC TD-DFT
   Georgi Stoychev        : AutoAux, RI-MP2 NMR, DLPNO-MP2 response
   Willem Van den Heuvel  : Paramagnetic NMR
   Boris Wezisla          : Elementary symmetry handling
   Frank Wennmohs         : Technical directorship


 We gratefully acknowledge several colleagues who have allowed us to
 interface, adapt or use parts of their codes:
   Stefan Grimme, W. Hujo, H. Kruse, P. Pracht,  : VdW corrections, initial TS optimization,
                  C. Bannwarth, S. Ehlert          DFT functionals, gCP, sTDA/sTD-DF
   Ed Valeev, F. Pavosevic, A. Kumar             : LibInt (2-el integral package), F12 methods
   Garnet Chan, S. Sharma, J. Yang, R. Olivares  : DMRG
   Ulf Ekstrom                                   : XCFun DFT Library
   Mihaly Kallay                                 : mrcc  (arbitrary order and MRCC methods)
   Jiri Pittner, Ondrej Demel                    : Mk-CCSD
   Frank Weinhold                                : gennbo (NPA and NBO analysis)
   Christopher J. Cramer and Donald G. Truhlar   : smd solvation model
   Lars Goerigk                                  : TD-DFT with DH, B97 family of functionals
   V. Asgeirsson, H. Jonsson                     : NEB implementation
   FAccTs GmbH                                   : IRC, NEB, NEB-TS, DLPNO-Multilevel, CI-OPT
                                                   MM, QMMM, 2- and 3-layer-ONIOM, Crystal-QMMM,
                                                   LR-CPCM, SF, NACMEs, symmetry and pop. for TD-DFT,
                                                   nearIR, NL-DFT gradient (VV10), updates on ESD,
                                                   ML-optimized integration grids
   S Lehtola, MJT Oliveira, MAL Marques          : LibXC Library
   Liviu Ungur et al                             : ANISO software


 Your calculation uses the libint2 library for the computation of 2-el integrals
 For citations please refer to: http://libint.valeyev.net

 Your ORCA version has been built with support for libXC version: 5.1.0
 For citations please refer to: https://tddft.org/programs/libxc/

 This ORCA versions uses:
   CBLAS   interface :  Fast vector & matrix operations
   LAPACKE interface :  Fast linear algebra routines
   SCALAPACK package :  Parallel linear algebra routines
   Shared memory     :  Shared parallel matrices
   BLAS/LAPACK       :  OpenBLAS 0.3.15  USE64BITINT DYNAMIC_ARCH NO_AFFINITY SkylakeX SINGLE_THREADED
        Core in use  :  SkylakeX
   Copyright (c) 2011-2014, The OpenBLAS Project




***************************************
The coordinates will be read from file: 5_prot_aq_6.xyz
***************************************


Your calculation utilizes the atom-pairwise dispersion correction
based on tight binding partial charges (D4)
Cite in your paper:
E.Caldeweyher, C.Bannwarth, S.Grimme, J.Chem.Phys., (2017), 147, 034112.
E.Caldeweyher, S.Ehlert, A.Hansen, H.Neugebauer, S.Grimme, J.Chem.Phys., (2018), in progress.
   

XCFun DFT library Copyright 2009-2010 Ulf Ekstrom and contributors.
See http://admol.org/xcfun for more information.
This is free software; see the source code for copying conditions.
There is ABSOLUTELY NO WARRANTY; not even for MERCHANTABILITY or FITNESS FOR A PARTICULAR PURPOSE.
For details see the documentation.
Scientific users of this library should cite U. Ekstrom, L. Visscher, R. Bast, A. J. Thorvaldsen and K. Ruud;
J.Chem.Theor.Comp. 2010, DOI: 10.1021/ct100117s
XCFun Version 0.99 

================================================================================

----- Orbital basis set information -----
Your calculation utilizes the basis: def2-SVP
   F. Weigend and R. Ahlrichs, Phys. Chem. Chem. Phys. 7, 3297 (2005).

----- AuxJ basis set information -----
Your calculation utilizes the auxiliary basis: def2/J
   F. Weigend, Phys. Chem. Chem. Phys. 8, 1057 (2006).

================================================================================
                                        WARNINGS
                       Please study these warnings very carefully!
================================================================================


WARNING: Geometry Optimization
  ===> : Switching off AutoStart
         For restart on a previous wavefunction, please use MOREAD

INFO   : the flag for use of the SHARK integral package has been found!

================================================================================
                                       INPUT FILE
================================================================================
NAME = 5_prot_aq_6.inp
|  1> # ORCA 5.0.4 - /users/bwb16179/postgrad/2024_03/DFT_Crest_Conformers/Opt/prot/5_prot_aq_6.inp # write input file
|  2> # Basic Mode
|  3> #
|  4> ! Opt Freq wB97X Def2-SVP D4 SlowConv TightSCF Defgrid2 Def2/J RIJCOSX CPCM(Water)
|  5> 
|  6> 
|  7> 
|  8> %maxcore 4500
|  9> 
| 10> %geom
| 11> Maxiter 150
| 12> END
| 13> 
| 14> * xyzfile 1 1 5_prot_aq_6.xyz
| 15> 
| 16>                          ****END OF INPUT****
================================================================================

                       *****************************
                       * Geometry Optimization Run *
                       *****************************

Geometry optimization settings:
Update method            Update   .... BFGS
Choice of coordinates    CoordSys .... Z-matrix Internals
Initial Hessian          InHess   .... Almoef's Model

Convergence Tolerances:
Energy Change            TolE     ....  5.0000e-06 Eh
Max. Gradient            TolMAXG  ....  3.0000e-04 Eh/bohr
RMS Gradient             TolRMSG  ....  1.0000e-04 Eh/bohr
Max. Displacement        TolMAXD  ....  4.0000e-03 bohr
RMS Displacement         TolRMSD  ....  2.0000e-03 bohr
Strict Convergence                ....  False
------------------------------------------------------------------------------
                        ORCA OPTIMIZATION COORDINATE SETUP
------------------------------------------------------------------------------

The optimization will be done in new redundant internal coordinates
Making redundant internal coordinates   ...  (new redundants) done
Evaluating the initial hessian          ...  (Almloef) done
Evaluating the coordinates              ...  done
Calculating the B-matrix                .... done
Calculating the G-matrix                .... done
Diagonalizing the G-matrix              .... done
Small eigenvalue found = 9.440e-03
Small eigenvalue found = 2.454e-02
The first mode is                       ....   87
The number of degrees of freedom        ....   96

    -----------------------------------------------------------------
                    Redundant Internal Coordinates


    -----------------------------------------------------------------
         Definition                    Initial Value    Approx d2E/dq
    -----------------------------------------------------------------
      1. B(C   1,N   0)                  1.3302         0.696957   
      2. B(N   2,C   1)                  1.3303         0.696920   
      3. B(H   3,C   1)                  1.0702         0.387271   
      4. B(C   4,N   2)                  1.3603         0.624009   
      5. B(C   5,C   4)                  1.3620         0.692451   
      6. B(C   5,N   0)                  1.3604         0.623966   
      7. B(C   6,N   0)                  1.4756         0.408559   
      8. B(C   7,N   2)                  1.4756         0.408546   
      9. B(C   8,C   6)                  1.5253         0.380064   
     10. B(C   9,C   6)                  1.5298         0.373881   
     11. B(C  10,C   6)                  1.5302         0.373313   
     12. B(C  11,C   7)                  1.5253         0.380114   
     13. B(C  12,C   7)                  1.5298         0.373805   
     14. B(C  13,C   7)                  1.5302         0.373348   
     15. B(H  14,C   4)                  1.0688         0.389241   
     16. B(H  15,C   5)                  1.0688         0.389244   
     17. B(H  16,C   8)                  1.0870         0.364128   
     18. B(H  17,C   8)                  1.0873         0.363630   
     19. B(H  18,C   8)                  1.0861         0.365327   
     20. B(H  19,C  10)                  1.0870         0.364059   
     21. B(H  20,C  10)                  1.0877         0.363216   
     22. B(H  21,C  10)                  1.0857         0.365805   
     23. B(H  22,C  12)                  1.0864         0.364920   
     24. B(H  23,C  12)                  1.0858         0.365719   
     25. B(H  24,C  12)                  1.0876         0.363280   
     26. B(H  25,C   9)                  1.0876         0.363285   
     27. B(H  26,C   9)                  1.0864         0.364937   
     28. B(H  27,C   9)                  1.0858         0.365708   
     29. B(H  28,C  11)                  1.0861         0.365304   
     30. B(H  29,C  11)                  1.0870         0.364113   
     31. B(H  30,C  11)                  1.0874         0.363620   
     32. B(H  31,C  13)                  1.0870         0.364111   
     33. B(H  32,C  13)                  1.0877         0.363191   
     34. B(H  33,C  13)                  1.0857         0.365826   
     35. A(C   1,N   0,C   5)          107.3821         0.438022   
     36. A(C   1,N   0,C   6)          124.7628         0.406124   
     37. A(C   5,N   0,C   6)          127.8328         0.398282   
     38. A(N   0,C   1,H   3)          124.9166         0.362223   
     39. A(N   0,C   1,N   2)          110.1695         0.446868   
     40. A(N   2,C   1,H   3)          124.9139         0.362220   
     41. A(C   1,N   2,C   4)          107.3833         0.438024   
     42. A(C   1,N   2,C   7)          124.7395         0.406118   
     43. A(C   4,N   2,C   7)          127.8598         0.398284   
     44. A(C   5,C   4,H  14)          128.8153         0.364402   
     45. A(N   2,C   4,H  14)          123.6527         0.355777   
     46. A(N   2,C   4,C   5)          107.5319         0.440407   
     47. A(N   0,C   5,H  15)          123.6492         0.355773   
     48. A(C   4,C   5,H  15)          128.8178         0.364402   
     49. A(N   0,C   5,C   4)          107.5330         0.440402   
     50. A(N   0,C   6,C  10)          107.6331         0.366619   
     51. A(N   0,C   6,C   9)          108.3227         0.366715   
     52. A(C   8,C   6,C   9)          109.8571         0.364474   
     53. A(N   0,C   6,C   8)          109.6635         0.367748   
     54. A(C   9,C   6,C  10)          111.1271         0.363359   
     55. A(C   8,C   6,C  10)          110.1825         0.364379   
     56. A(C  12,C   7,C  13)          111.1279         0.363352   
     57. A(C  11,C   7,C  13)          110.1762         0.364393   
     58. A(N   2,C   7,C  13)          107.6678         0.366623   
     59. A(C  11,C   7,C  12)          109.8639         0.364469   
     60. A(N   2,C   7,C  12)          108.2796         0.366700   
     61. A(N   2,C   7,C  11)          109.6706         0.367754   
     62. A(C   6,C   8,H  18)          108.9162         0.326010   
     63. A(H  16,C   8,H  17)          109.6523         0.291796   
     64. A(C   6,C   8,H  17)          111.2711         0.325760   
     65. A(C   6,C   8,H  16)          111.5471         0.325833   
     66. A(H  17,C   8,H  18)          107.7824         0.291946   
     67. A(H  16,C   8,H  18)          107.5229         0.292009   
     68. A(H  26,C   9,H  27)          107.6423         0.292159   
     69. A(H  25,C   9,H  27)          108.0835         0.291951   
     70. A(C   6,C   9,H  27)          109.3455         0.325187   
     71. A(H  25,C   9,H  26)          108.9186         0.291854   
     72. A(C   6,C   9,H  26)          111.9701         0.325074   
     73. A(C   6,C   9,H  25)          110.7557         0.324832   
     74. A(H  20,C  10,H  21)          108.1718         0.291954   
     75. A(H  19,C  10,H  21)          108.1152         0.292061   
     76. A(C   6,C  10,H  21)          109.5057         0.325120   
     77. A(H  19,C  10,H  20)          108.7089         0.291734   
     78. A(C   6,C  10,H  20)          110.7392         0.324741   
     79. A(C   6,C  10,H  19)          111.5035         0.324864   
     80. A(H  29,C  11,H  30)          109.6548         0.291792   
     81. A(H  28,C  11,H  30)          107.7801         0.291942   
     82. A(C   7,C  11,H  30)          111.2773         0.325766   
     83. A(H  28,C  11,H  29)          107.5246         0.292005   
     84. A(C   7,C  11,H  29)          111.5434         0.325838   
     85. A(C   7,C  11,H  28)          108.9117         0.326013   
     86. A(H  23,C  12,H  24)          108.0836         0.291951   
     87. A(H  22,C  12,H  24)          108.9123         0.291851   
     88. A(C   7,C  12,H  24)          110.7469         0.324820   
     89. A(H  22,C  12,H  23)          107.6593         0.292159   
     90. A(C   7,C  12,H  23)          109.3578         0.325178   
     91. A(C   7,C  12,H  22)          111.9570         0.325061   
     92. A(H  31,C  13,H  33)          108.1100         0.292070   
     93. A(C   7,C  13,H  33)          109.4998         0.325128   
     94. A(H  31,C  13,H  32)          108.7067         0.291738   
     95. A(C   7,C  13,H  32)          110.7345         0.324742   
     96. A(H  32,C  13,H  33)          108.1723         0.291954   
     97. A(C   7,C  13,H  31)          111.5206         0.324877   
     98. D(H   3,C   1,N   0,C   6)     -1.5439         0.040162   
     99. D(N   2,C   1,N   0,C   6)    178.4531         0.040162   
    100. D(N   2,C   1,N   0,C   5)      0.0542         0.040162   
    101. D(H   3,C   1,N   0,C   5)   -179.9428         0.040162   
    102. D(C   7,N   2,C   1,N   0)    178.6235         0.040157   
    103. D(C   4,N   2,C   1,N   0)      0.0403         0.040157   
    104. D(C   4,N   2,C   1,H   3)   -179.9627         0.040157   
    105. D(C   7,N   2,C   1,H   3)     -1.3795         0.040157   
    106. D(H  14,C   4,N   2,C   1)    179.9660         0.031563   
    107. D(C   5,C   4,N   2,C   1)     -0.1187         0.031563   
    108. D(H  14,C   4,N   2,C   7)      1.4407         0.031563   
    109. D(C   5,C   4,N   2,C   7)   -178.6440         0.031563   
    110. D(H  15,C   5,N   0,C   1)    179.9608         0.031558   
    111. D(C   4,C   5,N   0,C   6)   -178.4616         0.031558   
    112. D(C   4,C   5,N   0,C   1)     -0.1270         0.031558   
    113. D(H  15,C   5,C   4,H  14)     -0.0328         0.033709   
    114. D(N   0,C   5,C   4,H  14)   -179.9390         0.033709   
    115. D(N   0,C   5,C   4,N   2)      0.1515         0.033709   
    116. D(H  15,C   5,C   4,N   2)   -179.9423         0.033709   
    117. D(H  15,C   5,N   0,C   6)      1.6261         0.031558   
    118. D(C  10,C   6,N   0,C   5)    110.8598         0.014241   
    119. D(C  10,C   6,N   0,C   1)    -67.2055         0.014241   
    120. D(C   9,C   6,N   0,C   5)   -128.8973         0.014241   
    121. D(C   9,C   6,N   0,C   1)     53.0374         0.014241   
    122. D(C   8,C   6,N   0,C   5)     -9.0092         0.014241   
    123. D(C   8,C   6,N   0,C   1)    172.9255         0.014241   
    124. D(C  12,C   7,N   2,C   4)   -128.3141         0.014240   
    125. D(C  11,C   7,N   2,C   4)     -8.4395         0.014240   
    126. D(C  11,C   7,N   2,C   1)    173.2731         0.014240   
    127. D(C  13,C   7,N   2,C   1)    -66.8408         0.014240   
    128. D(C  12,C   7,N   2,C   1)     53.3985         0.014240   
    129. D(C  13,C   7,N   2,C   4)    111.4466         0.014240   
    130. D(H  18,C   8,C   6,C  10)     64.5061         0.011512   
    131. D(H  18,C   8,C   6,C   9)    -58.2487         0.011512   
    132. D(H  18,C   8,C   6,N   0)   -177.1950         0.011512   
    133. D(H  17,C   8,C   6,C   9)     60.4270         0.011512   
    134. D(H  17,C   8,C   6,C  10)   -176.8182         0.011512   
    135. D(H  17,C   8,C   6,N   0)    -58.5193         0.011512   
    136. D(H  16,C   8,C   6,C  10)    -54.0165         0.011512   
    137. D(H  16,C   8,C   6,C   9)   -176.7713         0.011512   
    138. D(H  16,C   8,C   6,N   0)     64.2824         0.011512   
    139. D(H  27,C   9,C   6,C  10)    -67.1767         0.011161   
    140. D(H  27,C   9,C   6,C   8)     55.0186         0.011161   
    141. D(H  27,C   9,C   6,N   0)    174.7854         0.011161   
    142. D(H  26,C   9,C   6,C  10)     52.0324         0.011161   
    143. D(H  26,C   9,C   6,C   8)    174.2277         0.011161   
    144. D(H  26,C   9,C   6,N   0)    -66.0055         0.011161   
    145. D(H  25,C   9,C   6,C  10)    173.8197         0.011161   
    146. D(H  25,C   9,C   6,N   0)     55.7817         0.011161   
    147. D(H  25,C   9,C   6,C   8)    -63.9851         0.011161   
    148. D(H  21,C  10,C   6,C   8)    -58.8490         0.011129   
    149. D(H  21,C  10,C   6,N   0)   -178.3882         0.011129   
    150. D(H  20,C  10,C   6,C   9)   -177.6394         0.011129   
    151. D(H  20,C  10,C   6,C   8)     60.3543         0.011129   
    152. D(H  20,C  10,C   6,N   0)    -59.1849         0.011129   
    153. D(H  19,C  10,C   6,C   9)    -56.4529         0.011129   
    154. D(H  19,C  10,C   6,C   8)   -178.4592         0.011129   
    155. D(H  21,C  10,C   6,C   9)     63.1573         0.011129   
    156. D(H  19,C  10,C   6,N   0)     62.0016         0.011129   
    157. D(H  29,C  11,C   7,N   2)     64.0109         0.011515   
    158. D(H  28,C  11,C   7,C  13)     64.1885         0.011515   
    159. D(H  28,C  11,C   7,C  12)    -58.5676         0.011515   
    160. D(H  28,C  11,C   7,N   2)   -177.4695         0.011515   
    161. D(H  30,C  11,C   7,C  13)   -177.1378         0.011515   
    162. D(H  30,C  11,C   7,C  12)     60.1061         0.011515   
    163. D(H  30,C  11,C   7,N   2)    -58.7959         0.011515   
    164. D(H  29,C  11,C   7,C  13)    -54.3310         0.011515   
    165. D(H  29,C  11,C   7,C  12)   -177.0871         0.011515   
    166. D(H  24,C  12,C   7,C  13)    173.7362         0.011157   
    167. D(H  24,C  12,C   7,C  11)    -64.0713         0.011157   
    168. D(H  24,C  12,C   7,N   2)     55.6821         0.011157   
    169. D(H  23,C  12,C   7,C  13)    -67.2577         0.011157   
    170. D(H  23,C  12,C   7,C  11)     54.9348         0.011157   
    171. D(H  23,C  12,C   7,N   2)    174.6881         0.011157   
    172. D(H  22,C  12,C   7,C  13)     51.9725         0.011157   
    173. D(H  22,C  12,C   7,C  11)    174.1649         0.011157   
    174. D(H  22,C  12,C   7,N   2)    -66.0817         0.011157   
    175. D(H  33,C  13,C   7,C  12)     62.9624         0.011131   
    176. D(H  33,C  13,C   7,C  11)    -59.0487         0.011131   
    177. D(H  33,C  13,C   7,N   2)   -178.6139         0.011131   
    178. D(H  32,C  13,C   7,C  12)   -177.8404         0.011131   
    179. D(H  32,C  13,C   7,C  11)     60.1485         0.011131   
    180. D(H  32,C  13,C   7,N   2)    -59.4167         0.011131   
    181. D(H  31,C  13,C   7,C  12)    -56.6483         0.011131   
    182. D(H  31,C  13,C   7,C  11)   -178.6594         0.011131   
    183. D(H  31,C  13,C   7,N   2)     61.7754         0.011131   
    -----------------------------------------------------------------

Number of atoms                         .... 34
Number of degrees of freedom            .... 183

         *************************************************************
         *                GEOMETRY OPTIMIZATION CYCLE   1            *
         *************************************************************
---------------------------------
CARTESIAN COORDINATES (ANGSTROEM)
---------------------------------
  N     -1.091836   -0.076548   -0.263323
  C      0.002440    0.174549    0.450170
  N      1.089337   -0.120278   -0.257877
  H      0.007658    0.558176    1.449233
  C      0.673356   -0.576247   -1.470142
  C     -0.688420   -0.550946   -1.472780
  C     -2.473240    0.104237    0.223019
  C      2.475496    0.063007    0.213804
  C     -3.454139   -0.115103   -0.924284
  C     -2.611490    1.530196    0.759436
  C     -2.714250   -0.926497    1.328002
  C      3.445898   -0.536613   -0.798739
  C      2.622543   -0.649375    1.559641
  C      2.722846    1.566376    0.355593
  H      1.339141   -0.887544   -2.246154
  H     -1.362323   -0.836898   -2.251530
  H     -3.418835   -1.138237   -1.289603
  H     -3.262310    0.572790   -1.744238
  H     -4.462512    0.069416   -0.565536
  H     -2.043481   -0.772792    2.169467
  H     -2.573751   -1.936561    0.949818
  H     -3.734406   -0.839001    1.689136
  H      2.020058   -0.183011    2.334069
  H      3.659602   -0.606115    1.878336
  H      2.338859   -1.695887    1.474642
  H     -2.333550    2.256616   -0.000790
  H     -2.000256    1.693249    1.642614
  H     -3.645489    1.711481    1.036797
  H      4.458302   -0.435191   -0.418801
  H      3.400334   -0.016113   -1.751911
  H      3.252887   -1.595832   -0.950846
  H      2.057560    2.012381    1.090447
  H      2.579558    2.071720   -0.596841
  H      3.745278    1.736549    0.678749

----------------------------
CARTESIAN COORDINATES (A.U.)
----------------------------
  NO LB      ZA    FRAG     MASS         X           Y           Z
   0 N     7.0000    0    14.007   -2.063270   -0.144654   -0.497609
   1 C     6.0000    0    12.011    0.004610    0.329850    0.850697
   2 N     7.0000    0    14.007    2.058548   -0.227292   -0.487317
   3 H     1.0000    0     1.008    0.014471    1.054801    2.738653
   4 C     6.0000    0    12.011    1.272459   -1.088948   -2.778166
   5 C     6.0000    0    12.011   -1.300925   -1.041137   -2.783152
   6 C     6.0000    0    12.011   -4.673746    0.196979    0.421445
   7 C     6.0000    0    12.011    4.678010    0.119066    0.404031
   8 C     6.0000    0    12.011   -6.527377   -0.217512   -1.746644
   9 C     6.0000    0    12.011   -4.935001    2.891651    1.435126
  10 C     6.0000    0    12.011   -5.129189   -1.750825    2.509560
  11 C     6.0000    0    12.011    6.511804   -1.014052   -1.509399
  12 C     6.0000    0    12.011    4.955888   -1.227141    2.947294
  13 C     6.0000    0    12.011    5.145433    2.960023    0.671973
  14 H     1.0000    0     1.008    2.530610   -1.677216   -4.244617
  15 H     1.0000    0     1.008   -2.574417   -1.581508   -4.254776
  16 H     1.0000    0     1.008   -6.460662   -2.150956   -2.436996
  17 H     1.0000    0     1.008   -6.164872    1.082416   -3.296131
  18 H     1.0000    0     1.008   -8.432926    0.131178   -1.068709
  19 H     1.0000    0     1.008   -3.861619   -1.460366    4.099699
  20 H     1.0000    0     1.008   -4.863685   -3.659570    1.794896
  21 H     1.0000    0     1.008   -7.057004   -1.585482    3.192005
  22 H     1.0000    0     1.008    3.817356   -0.345840    4.410751
  23 H     1.0000    0     1.008    6.915646   -1.145392    3.549540
  24 H     1.0000    0     1.008    4.419803   -3.204761    2.786669
  25 H     1.0000    0     1.008   -4.409770    4.264385   -0.001492
  26 H     1.0000    0     1.008   -3.779936    3.199776    3.104090
  27 H     1.0000    0     1.008   -6.888976    3.234230    1.959262
  28 H     1.0000    0     1.008    8.424970   -0.822393   -0.791419
  29 H     1.0000    0     1.008    6.425700   -0.030450   -3.310632
  30 H     1.0000    0     1.008    6.147065   -3.015685   -1.796838
  31 H     1.0000    0     1.008    3.888226    3.802849    2.060647
  32 H     1.0000    0     1.008    4.874658    3.914984   -1.127865
  33 H     1.0000    0     1.008    7.077550    3.281601    1.282649

--------------------------------
INTERNAL COORDINATES (ANGSTROEM)
--------------------------------
 N      0   0   0     0.000000000000     0.00000000     0.00000000
 C      1   0   0     1.330248034972     0.00000000     0.00000000
 N      2   1   0     1.330262594824   110.16949855     0.00000000
 H      2   1   3     1.070198462746   124.91661783   180.00296171
 C      3   2   1     1.360343156185   107.38327500     0.04030426
 C      1   2   3     1.360361894335   107.38211920     0.05419704
 C      1   2   3     1.475631895266   124.76284407   178.45313435
 C      3   2   1     1.475640567231   124.73953960   178.62350424
 C      7   1   2     1.525312426905   109.66347417   172.92548533
 C      7   1   2     1.529776619985   108.32272620    53.03740261
 C      7   1   2     1.530190735146   107.63305670   292.79449996
 C      8   3   2     1.525276524030   109.67058988   173.27313229
 C      8   3   2     1.529832454738   108.27955323    53.39854153
 C      8   3   2     1.530165383371   107.66779813   293.15924288
 H      5   3   2     1.068817238880   123.65267022   179.96604788
 H      6   1   2     1.068815119803   123.64917946   179.96076569
 H      9   7   1     1.086972053596   111.54705400    64.28237923
 H      9   7   1     1.087344385986   111.27113571   301.48068463
 H      9   7   1     1.086077451783   108.91621605   182.80496588
 H     11   7   1     1.087023639665   111.50345736    62.00155744
 H     11   7   1     1.087654832471   110.73915634   300.81508860
 H     11   7   1     1.085721296123   109.50574752   181.61175498
 H     13   8   3     1.086380576354   111.95695420   293.91827521
 H     13   8   3     1.085785161318   109.35782280   174.68811862
 H     13   8   3     1.087606659593   110.74693857    55.68205375
 H     10   7   1     1.087602625113   110.75574039    55.78173920
 H     10   7   1     1.086368034397   111.97010854   293.99450236
 H     10   7   1     1.085793499528   109.34551518   174.78535883
 H     12   8   3     1.086094335705   108.91170667   182.53046551
 H     12   8   3     1.086982869671   111.54344058    64.01089517
 H     12   8   3     1.087351831205   111.27729560   301.20412440
 H     14   8   3     1.086984808111   111.52059357    61.77538976
 H     14   8   3     1.087673374365   110.73447723   300.58329355
 H     14   8   3     1.085705255567   109.49976095   181.38608551

---------------------------
INTERNAL COORDINATES (A.U.)
---------------------------
 N      0   0   0     0.000000000000     0.00000000     0.00000000
 C      1   0   0     2.513804476285     0.00000000     0.00000000
 N      2   1   0     2.513831990417   110.16949855     0.00000000
 H      2   1   3     2.022382003534   124.91661783   180.00296171
 C      3   2   1     2.570676013343   107.38327500     0.04030426
 C      1   2   3     2.570711423316   107.38211920     0.05419704
 C      1   2   3     2.788540156532   124.76284407   178.45313435
 C      3   2   1     2.788556544170   124.73953960   178.62350424
 C      7   1   2     2.882422755518   109.66347417   172.92548533
 C      7   1   2     2.890858857847   108.32272620    53.03740261
 C      7   1   2     2.891641422090   107.63305670   292.79449996
 C      8   3   2     2.882354908916   109.67058988   173.27313229
 C      8   3   2     2.890964370239   108.27955323    53.39854153
 C      8   3   2     2.891593514177   107.66779813   293.15924288
 H      5   3   2     2.019771868697   123.65267022   179.96604788
 H      6   1   2     2.019767864221   123.64917946   179.96076569
 H      9   7   1     2.054079496522   111.54705400    64.28237923
 H      9   7   1     2.054783102771   111.27113571   301.48068463
 H      9   7   1     2.052388944097   108.91621605   182.80496588
 H     11   7   1     2.054176980066   111.50345736    62.00155744
 H     11   7   1     2.055369761607   110.73915634   300.81508860
 H     11   7   1     2.051715907439   109.50574752   181.61175498
 H     13   8   3     2.052961766520   111.95695420   293.91827521
 H     13   8   3     2.051836595167   109.35782280   174.68811862
 H     13   8   3     2.055278728060   110.74693857    55.68205375
 H     10   7   1     2.055271103998   110.75574039    55.78173920
 H     10   7   1     2.052938065657   111.97010854   293.99450236
 H     10   7   1     2.051852352100   109.34551518   174.78535883
 H     12   8   3     2.052420850086   108.91170667   182.53046551
 H     12   8   3     2.054099935942   111.54344058    64.01089517
 H     12   8   3     2.054797172195   111.27729560   301.20412440
 H     14   8   3     2.054103599063   111.52059357    61.77538976
 H     14   8   3     2.055404800708   110.73447723   300.58329355
 H     14   8   3     2.051685595180   109.49976095   181.38608551

---------------------
BASIS SET INFORMATION
---------------------
There are 3 groups of distinct atoms

 Group   1 Type N   : 7s4p1d contracted to 3s2p1d pattern {511/31/1}
 Group   2 Type C   : 7s4p1d contracted to 3s2p1d pattern {511/31/1}
 Group   3 Type H   : 4s1p contracted to 2s1p pattern {31/1}

Atom   0N    basis set group =>   1
Atom   1C    basis set group =>   2
Atom   2N    basis set group =>   1
Atom   3H    basis set group =>   3
Atom   4C    basis set group =>   2
Atom   5C    basis set group =>   2
Atom   6C    basis set group =>   2
Atom   7C    basis set group =>   2
Atom   8C    basis set group =>   2
Atom   9C    basis set group =>   2
Atom  10C    basis set group =>   2
Atom  11C    basis set group =>   2
Atom  12C    basis set group =>   2
Atom  13C    basis set group =>   2
Atom  14H    basis set group =>   3
Atom  15H    basis set group =>   3
Atom  16H    basis set group =>   3
Atom  17H    basis set group =>   3
Atom  18H    basis set group =>   3
Atom  19H    basis set group =>   3
Atom  20H    basis set group =>   3
Atom  21H    basis set group =>   3
Atom  22H    basis set group =>   3
Atom  23H    basis set group =>   3
Atom  24H    basis set group =>   3
Atom  25H    basis set group =>   3
Atom  26H    basis set group =>   3
Atom  27H    basis set group =>   3
Atom  28H    basis set group =>   3
Atom  29H    basis set group =>   3
Atom  30H    basis set group =>   3
Atom  31H    basis set group =>   3
Atom  32H    basis set group =>   3
Atom  33H    basis set group =>   3
---------------------------------
AUXILIARY/J BASIS SET INFORMATION
---------------------------------
There are 3 groups of distinct atoms

 Group   1 Type N   : 12s5p4d2f1g contracted to 6s4p3d1f1g pattern {711111/2111/211/2/1}
 Group   2 Type C   : 12s5p4d2f1g contracted to 6s4p3d1f1g pattern {711111/2111/211/2/1}
 Group   3 Type H   : 5s2p1d contracted to 3s1p1d pattern {311/2/1}

Atom   0N    basis set group =>   1
Atom   1C    basis set group =>   2
Atom   2N    basis set group =>   1
Atom   3H    basis set group =>   3
Atom   4C    basis set group =>   2
Atom   5C    basis set group =>   2
Atom   6C    basis set group =>   2
Atom   7C    basis set group =>   2
Atom   8C    basis set group =>   2
Atom   9C    basis set group =>   2
Atom  10C    basis set group =>   2
Atom  11C    basis set group =>   2
Atom  12C    basis set group =>   2
Atom  13C    basis set group =>   2
Atom  14H    basis set group =>   3
Atom  15H    basis set group =>   3
Atom  16H    basis set group =>   3
Atom  17H    basis set group =>   3
Atom  18H    basis set group =>   3
Atom  19H    basis set group =>   3
Atom  20H    basis set group =>   3
Atom  21H    basis set group =>   3
Atom  22H    basis set group =>   3
Atom  23H    basis set group =>   3
Atom  24H    basis set group =>   3
Atom  25H    basis set group =>   3
Atom  26H    basis set group =>   3
Atom  27H    basis set group =>   3
Atom  28H    basis set group =>   3
Atom  29H    basis set group =>   3
Atom  30H    basis set group =>   3
Atom  31H    basis set group =>   3
Atom  32H    basis set group =>   3
Atom  33H    basis set group =>   3
------------------------------------------------------------------------------
                           ORCA GTO INTEGRAL CALCULATION
                           -- RI-GTO INTEGRALS CHOSEN --
------------------------------------------------------------------------------
------------------------------------------------------------------------------
                   ___                                                        
                  /   \      - P O W E R E D   B Y -                         
                 /     \                                                     
                 |  |  |   _    _      __       _____    __    __             
                 |  |  |  | |  | |    /  \     |  _  \  |  |  /  |          
                  \  \/   | |  | |   /    \    | | | |  |  | /  /          
                 / \  \   | |__| |  /  /\  \   | |_| |  |  |/  /          
                |  |  |   |  __  | /  /__\  \  |    /   |      \           
                |  |  |   | |  | | |   __   |  |    \   |  |\   \          
                \     /   | |  | | |  |  |  |  | |\  \  |  | \   \       
                 \___/    |_|  |_| |__|  |__|  |_| \__\ |__|  \__/        
                                                                              
                      - O R C A' S   B I G   F R I E N D -                    
                                      &                                       
                       - I N T E G R A L  F E E D E R -                       
                                                                              
 v1 FN, 2020, v2 2021                                                         
------------------------------------------------------------------------------


Reading SHARK input file 5_prot_aq_6.SHARKINP.tmp ... ok
----------------------
SHARK INTEGRAL PACKAGE
----------------------

Number of atoms                             ...     34
Number of basis functions                   ...    287
Number of shells                            ...    141
Maximum angular momentum                    ...      2
Integral batch strategy                     ... SHARK/LIBINT Hybrid
RI-J (if used) integral strategy            ... SPLIT-RIJ (Revised 2003 algorithm where possible)
Printlevel                                  ...      1
Contraction scheme used                     ... SEGMENTED contraction
Coulomb Range Separation                    ... NOT USED
Exchange Range Separation                   ... Long Range
   Mu parameter                             ...  0.300000
   Scaling (regular/separated)              ...  0.157706  0.842294
Finite Nucleus Model                        ... NOT USED
Auxiliary Coulomb fitting basis             ... AVAILABLE
   # of basis functions in Aux-J            ...    868
   # of shells in Aux-J                     ...    300
   Maximum angular momentum in Aux-J        ...      4
Auxiliary J/K fitting basis                 ... NOT available
Auxiliary Correlation fitting basis         ... NOT available
Auxiliary 'external' fitting basis          ... NOT available
Integral threshold                          ...     2.500000e-11
Primitive cut-off                           ...     2.500000e-12
Primitive pair pre-selection threshold      ...     2.500000e-12

Calculating pre-screening integrals         ... done (  0.1 sec) Dimension = 141
Organizing shell pair data                  ... done (  0.1 sec)
Shell pair information
Total number of shell pairs                 ...     10011
Shell pairs after pre-screening             ...      8623
Total number of primitive shell pairs       ...     34423
Primitive shell pairs kept                  ...     20713
          la=0 lb=0:   2960 shell pairs
          la=1 lb=0:   3274 shell pairs
          la=1 lb=1:    934 shell pairs
          la=2 lb=0:    891 shell pairs
          la=2 lb=1:    489 shell pairs
          la=2 lb=2:     75 shell pairs

Calculating one electron integrals          ... done (  0.1 sec)
Calculating RI/J V-Matrix + Cholesky decomp.... done (  0.1 sec)
Calculating Nuclear repulsion               ... done (  0.0 sec) ENN=    878.402177444532 Eh

SHARK setup successfully completed in   0.4 seconds

Maximum memory used throughout the entire GTOINT-calculation: 48.8 MB
-------------------------------------------------------------------------------
                                 ORCA SCF
-------------------------------------------------------------------------------

------------
SCF SETTINGS
------------
Hamiltonian:
 Density Functional     Method          .... DFT(GTOs)
 Exchange Functional    Exchange        .... WB97X
 Correlation Functional Correlation     .... WB97X
 Gradients option       PostSCFGGA      .... off
 Hybrid DFT is turned on
   Fraction HF Exchange ScalHFX         ....  0.157706
   Scaling of DF-GGA-X  ScalDFX         ....  0.000000
   Scaling of DF-GGA-C  ScalDFC         ....  1.000000
   Scaling of DF-LDA-C  ScalLDAC        ....  1.000000
   Perturbative correction              ....  0.000000
   Density functional embedding theory  .... OFF
 Long-range corrected/Screened/Range-Separated Hybrid DFT is turned on
   Amount of maximum screened exact exchange              ....  0.842294
   Range separation parameter mu (erf(mu*r12)/r12)        ....  0.300000
 RI-approximation to the Coulomb term is turned on
   Number of AuxJ basis functions       .... 868
   RIJ-COSX (HFX calculated with COS-X)).... on


General Settings:
 Integral files         IntName         .... 5_prot_aq_6
 Hartree-Fock type      HFTyp           .... RHF
 Total Charge           Charge          ....    1
 Multiplicity           Mult            ....    1
 Number of Electrons    NEL             ....  100
 Basis Dimension        Dim             ....  287
 Nuclear Repulsion      ENuc            ....    878.4021774445 Eh

Convergence Acceleration:
 DIIS                   CNVDIIS         .... on
   Start iteration      DIISMaxIt       ....     0
   Startup error        DIISStart       ....  0.200000
   # of expansion vecs  DIISMaxEq       ....     5
   Bias factor          DIISBfac        ....   1.050
   Max. coefficient     DIISMaxC        ....  10.000
 Trust-Rad. Augm. Hess. CNVTRAH         .... auto
   Auto Start mean grad. ratio tolernc. ....  1.125000
   Auto Start start iteration           ....    20
   Auto Start num. interpolation iter.  ....    10
   Max. Number of Micro iterations      ....    16
   Max. Number of Macro iterations      .... Maxiter - #DIIS iter
   Number of Davidson start vectors     ....     2
   Converg. threshold I  (grad. norm)   ....   1.000e-05
   Converg. threshold II (energy diff.) ....   1.000e-08
   Grad. Scal. Fac. for Micro threshold ....   0.100
   Minimum threshold for Micro iter.    ....   0.010
   NR start threshold (gradient norm)   ....   0.001
   Initial trust radius                 ....   0.400
   Minimum AH scaling param. (alpha)    ....   1.000
   Maximum AH scaling param. (alpha)    .... 1000.000
   Orbital update algorithm             .... Taylor
   White noise on init. David. guess    .... on
   Maximum white noise                  ....   0.010
   Quad. conv. algorithm                .... NR
 SOSCF                  CNVSOSCF        .... on
   Start iteration      SOSCFMaxIt      ....   150
   Startup grad/error   SOSCFStart      ....  0.001000
 Level Shifting         CNVShift        .... on
   Level shift para.    LevelShift      ....    0.2500
   Turn off err/grad.   ShiftErr        ....    0.0000
 Zerner damping         CNVZerner       .... off
 Static damping         CNVDamp         .... on
   Fraction old density DampFac         ....    0.8500
   Max. Damping (<1)    DampMax         ....    0.9800
   Min. Damping (>=0)   DampMin         ....    0.0000
   Turn off err/grad.   DampErr         ....    0.0300
 Fernandez-Rico         CNVRico         .... off

SCF Procedure:
 Maximum # iterations   MaxIter         ....   125
 SCF integral mode      SCFMode         .... Direct
   Integral package                     .... SHARK and LIBINT hybrid scheme
 Reset frequency        DirectResetFreq ....    20
 Integral Threshold     Thresh          ....  2.500e-11 Eh
 Primitive CutOff       TCut            ....  2.500e-12 Eh

Convergence Tolerance:
 Convergence Check Mode ConvCheckMode   .... Total+1el-Energy
 Convergence forced     ConvForced      .... 0
 Energy Change          TolE            ....  1.000e-08 Eh
 1-El. energy change                    ....  1.000e-05 Eh
 Orbital Gradient       TolG            ....  1.000e-05
 Orbital Rotation angle TolX            ....  1.000e-05
 DIIS Error             TolErr          ....  5.000e-07


Diagonalization of the overlap matrix:
Smallest eigenvalue                        ... 9.837e-04
Time for diagonalization                   ...    0.014 sec
Threshold for overlap eigenvalues          ... 1.000e-08
Number of eigenvalues below threshold      ... 0
Time for construction of square roots      ...    0.007 sec
Total time needed                          ...    0.021 sec

Time for model grid setup =    0.700 sec

------------------------------
INITIAL GUESS: MODEL POTENTIAL
------------------------------
Loading Hartree-Fock densities                     ... done
Calculating cut-offs                               ... done
Initializing the effective Hamiltonian             ... done
Setting up the integral package (SHARK)            ... done
Starting the Coulomb interaction                   ... done (   0.8 sec)
Reading the grid                                   ... done
Mapping shells                                     ... done
Starting the XC term evaluation                    ... done (   0.8 sec)
  promolecular density results
     # of electrons  =    100.985896729
     EX              =    -75.693617380
     EC              =     -3.362443827
     EX+EC           =    -79.056061207
Transforming the Hamiltonian                       ... done (   0.0 sec)
Diagonalizing the Hamiltonian                      ... done (   0.0 sec)
Back transforming the eigenvectors                 ... done (   0.0 sec)
Now organizing SCF variables                       ... done
                      ------------------
                      INITIAL GUESS DONE (   2.3 sec)
                      ------------------
-------------------
DFT GRID GENERATION
-------------------

General Integration Accuracy     IntAcc      ... 4.388
Radial Grid Type                 RadialGrid  ... OptM3 with GC (2021)
Angular Grid (max. ang.)         AngularGrid ... 4 (Lebedev-302)
Angular grid pruning method      GridPruning ... 4 (adaptive)
Weight generation scheme         WeightScheme... Becke
Basis function cutoff            BFCut       ... 1.0000e-11
Integration weight cutoff        WCut        ... 1.0000e-14
Angular grids for H and He will be reduced by one unit
Partially contracted basis set               ... off
Rotationally invariant grid construction     ... off

Total number of grid points                  ...   144100
Total number of batches                      ...     2268
Average number of points per batch           ...       63
Average number of grid points per atom       ...     4238
Time for grid setup =    2.592 sec

--------------------
COSX GRID GENERATION
--------------------

GRIDX 1
-------
General Integration Accuracy     IntAcc      ... 3.816
Radial Grid Type                 RadialGrid  ... OptM3 with GC (2021)
Angular Grid (max. ang.)         AngularGrid ... 1 (Lebedev-50)
Angular grid pruning method      GridPruning ... 4 (adaptive)
Weight generation scheme         WeightScheme... Becke
Basis function cutoff            BFCut       ... 1.0000e-11
Integration weight cutoff        WCut        ... 1.0000e-14
Angular grids for H and He will be reduced by one unit
Partially contracted basis set               ... on
Rotationally invariant grid construction     ... off

Total number of grid points                  ...    18451
Total number of batches                      ...      306
Average number of points per batch           ...       60
Average number of grid points per atom       ...      543
UseSFitting                                  ... on

GRIDX 2
-------
General Integration Accuracy     IntAcc      ... 4.020
Radial Grid Type                 RadialGrid  ... OptM3 with GC (2021)
Angular Grid (max. ang.)         AngularGrid ... 2 (Lebedev-110)
Angular grid pruning method      GridPruning ... 4 (adaptive)
Weight generation scheme         WeightScheme... Becke
Basis function cutoff            BFCut       ... 1.0000e-11
Integration weight cutoff        WCut        ... 1.0000e-14
Angular grids for H and He will be reduced by one unit
Partially contracted basis set               ... on
Rotationally invariant grid construction     ... off

Total number of grid points                  ...    38233
Total number of batches                      ...      614
Average number of points per batch           ...       62
Average number of grid points per atom       ...     1124
UseSFitting                                  ... on

GRIDX 3
-------
General Integration Accuracy     IntAcc      ... 4.338
Radial Grid Type                 RadialGrid  ... OptM3 with GC (2021)
Angular Grid (max. ang.)         AngularGrid ... 3 (Lebedev-194)
Angular grid pruning method      GridPruning ... 4 (adaptive)
Weight generation scheme         WeightScheme... Becke
Basis function cutoff            BFCut       ... 1.0000e-11
Integration weight cutoff        WCut        ... 1.0000e-14
Angular grids for H and He will be reduced by one unit
Partially contracted basis set               ... on
Rotationally invariant grid construction     ... off

Total number of grid points                  ...    82941
Total number of batches                      ...     1312
Average number of points per batch           ...       63
Average number of grid points per atom       ...     2439
UseSFitting                                  ... on

Time for X-Grid setup             =    3.341 sec


--------------------
CPCM SOLVATION MODEL
--------------------
CPCM parameters:
  Epsilon                                         ...      80.4000
  Refrac                                          ...       1.3300
  Rsolv                                           ...       1.3000
  Surface type                                    ... GAUSSIAN VDW
  Epsilon function type                           ...         CPCM
Radii:
 Radius for N  used is    3.5149 Bohr (=   1.8600 Ang.)
 Radius for C  used is    3.8550 Bohr (=   2.0400 Ang.)
 Radius for H  used is    2.4944 Bohr (=   1.3200 Ang.)
Calculating surface                               ...        done! (  0.0s)
GEPOL surface points                              ...         1762
GEPOL Volume                                      ...    1681.5800
GEPOL Surface-area                                ...     903.1655
Calculating surface distance matrix               ...        done! (  0.0s)
Performing Cholesky decomposition & store         ...        done! (  0.1s)
Overall time for CPCM initialization              ...                 0.1s
--------------
SCF ITERATIONS
--------------
ITER       Energy         Delta-E        Max-DP      RMS-DP      [F,P]     Damp
               ***  Starting incremental Fock matrix formation  ***
  0   -540.3921583078   0.000000000000 0.03393755  0.00063950  0.1507303 0.8500
  1   -540.4530952339  -0.060936926147 0.03047481  0.00059708  0.1213959 0.8500
                               ***Turning on DIIS***
  2   -540.4992003247  -0.046105090751 0.02386959  0.00048587  0.0931824 0.8500
  3   -540.5332572243  -0.034056899643 0.01495828  0.00034553  0.0706194 0.8500
  4   -540.5593772595  -0.026120035147 0.01012375  0.00026588  0.0562108 0.8500
  5   -540.5798508066  -0.020473547180 0.00773195  0.00021881  0.0464450 0.8500
  6   -540.5964299507  -0.016579144063 0.00627191  0.00018488  0.0390316 0.8500
  7   -540.6101089048  -0.013678954133 0.00533534  0.00015912  0.0330333 0.8500
  8   -540.6215222139  -0.011413309068 0.03027293  0.00091246  0.0279304 0.0000
  9   -540.6825637518  -0.061041537889 0.00134941  0.00003246  0.0011958 0.0000
                      *** Initiating the SOSCF procedure ***
                           *** Shutting down DIIS ***
                      *** Re-Reading the Fockian *** 
                      *** Removing any level shift *** 
ITER      Energy       Delta-E        Grad      Rot      Max-DP    RMS-DP
 10   -540.68258590  -0.0000221482  0.000125  0.000125  0.000666  0.000013
               *** Restarting incremental Fock matrix formation ***
 11   -540.68252185   0.0000640543  0.000045  0.000073  0.000354  0.000008
 12   -540.68252214  -0.0000002992  0.000055  0.000122  0.000191  0.000004
 13   -540.68252219  -0.0000000412  0.000012  0.000017  0.000045  0.000001
 14   -540.68252220  -0.0000000184  0.000003  0.000007  0.000006  0.000000
                  ***Gradient check signals convergence***
              ***Rediagonalizing the Fockian in SOSCF/NRSCF***

               *****************************************************
               *                     SUCCESS                       *
               *           SCF CONVERGED AFTER  15 CYCLES          *
               *****************************************************

Old exchange energy                            =    -25.379257320 Eh
New exchange energy                            =    -25.379286494 Eh
Exchange energy change after final integration =     -0.000029174 Eh
Total energy after final integration           =   -540.682551398 Eh
Final COS-X integration done in                =    94.774 sec

----------------
TOTAL SCF ENERGY
----------------

Total Energy       :         -540.68255140 Eh          -14712.72020 eV

Components:
Nuclear Repulsion  :          878.40217744 Eh           23902.53843 eV
Electronic Energy  :        -1419.08472884 Eh          -38615.25863 eV
One Electron Energy:        -2454.74532618 Eh          -66797.01622 eV
Two Electron Energy:         1035.66059733 Eh           28181.75759 eV
Max COSX asymmetry :            0.00000743 Eh               0.00020 eV
CPCM Dielectric    :           -0.07509928 Eh              -2.04356 eV

Virial components:
Potential Energy   :        -1075.08054058 Eh          -29254.42878 eV
Kinetic Energy     :          534.39798918 Eh           14541.70857 eV
Virial Ratio       :            2.01176008


DFT components:
N(Alpha)           :       50.000117941322 electrons
N(Beta)            :       50.000117941322 electrons
N(Total)           :      100.000235882644 electrons
E(XC)              :      -55.663094543853 Eh       
DFET-embed. en.    :        0.000000000000 Eh       
CPCM Solvation Model Properties:
Surface-charge          :           -1.02400540
Charge-correction       :            0.00318889 Eh               0.08677 eV
Free-energy (cav+disp)  :  This term is not implemented in the current solvation scheme

---------------
SCF CONVERGENCE
---------------

  Last Energy change         ...   -1.9184e-08  Tolerance :   1.0000e-08
  Last MAX-Density change    ...    5.3291e-15  Tolerance :   1.0000e-07
  Last RMS-Density change    ...    4.1746e-17  Tolerance :   5.0000e-09
  Last Orbital Gradient      ...    9.4254e-07  Tolerance :   1.0000e-05
  Last Orbital Rotation      ...    2.7119e-06  Tolerance :   1.0000e-05

             **** THE GBW FILE WAS UPDATED (5_prot_aq_6.gbw) ****
             **** DENSITY 5_prot_aq_6.scfp WAS UPDATED ****
             **** ENERGY FILE WAS UPDATED (5_prot_aq_6.en.tmp) ****
             **** THE GBW FILE WAS UPDATED (5_prot_aq_6.gbw) ****
             **** DENSITY 5_prot_aq_6.scfp WAS UPDATED ****
----------------
ORBITAL ENERGIES
----------------

  NO   OCC          E(Eh)            E(eV) 
   0   2.0000     -14.509886      -394.8341 
   1   2.0000     -14.509831      -394.8326 
   2   2.0000     -10.378019      -282.4003 
   3   2.0000     -10.343523      -281.4616 
   4   2.0000     -10.343424      -281.4589 
   5   2.0000     -10.329355      -281.0760 
   6   2.0000     -10.328786      -281.0605 
   7   2.0000     -10.271323      -279.4969 
   8   2.0000     -10.271202      -279.4936 
   9   2.0000     -10.270269      -279.4682 
  10   2.0000     -10.270224      -279.4670 
  11   2.0000     -10.269601      -279.4501 
  12   2.0000     -10.269548      -279.4486 
  13   2.0000      -1.221260       -33.2322 
  14   2.0000      -1.104986       -30.0682 
  15   2.0000      -0.984552       -26.7910 
  16   2.0000      -0.935397       -25.4534 
  17   2.0000      -0.922407       -25.1000 
  18   2.0000      -0.837918       -22.8009 
  19   2.0000      -0.827477       -22.5168 
  20   2.0000      -0.826544       -22.4914 
  21   2.0000      -0.824928       -22.4474 
  22   2.0000      -0.800181       -21.7740 
  23   2.0000      -0.769467       -20.9383 
  24   2.0000      -0.731411       -19.9027 
  25   2.0000      -0.707554       -19.2535 
  26   2.0000      -0.645011       -17.5516 
  27   2.0000      -0.633186       -17.2299 
  28   2.0000      -0.610130       -16.6025 
  29   2.0000      -0.592110       -16.1121 
  30   2.0000      -0.590023       -16.0553 
  31   2.0000      -0.581157       -15.8141 
  32   2.0000      -0.570655       -15.5283 
  33   2.0000      -0.558253       -15.1908 
  34   2.0000      -0.556780       -15.1507 
  35   2.0000      -0.549785       -14.9604 
  36   2.0000      -0.520510       -14.1638 
  37   2.0000      -0.509846       -13.8736 
  38   2.0000      -0.501291       -13.6408 
  39   2.0000      -0.500837       -13.6285 
  40   2.0000      -0.492241       -13.3946 
  41   2.0000      -0.492189       -13.3931 
  42   2.0000      -0.483062       -13.1448 
  43   2.0000      -0.482562       -13.1312 
  44   2.0000      -0.469983       -12.7889 
  45   2.0000      -0.454855       -12.3772 
  46   2.0000      -0.452457       -12.3120 
  47   2.0000      -0.452203       -12.3051 
  48   2.0000      -0.414458       -11.2780 
  49   2.0000      -0.369350       -10.0505 
  50   0.0000       0.057804         1.5729 
  51   0.0000       0.098858         2.6901 
  52   0.0000       0.131956         3.5907 
  53   0.0000       0.146322         3.9816 
  54   0.0000       0.162343         4.4176 
  55   0.0000       0.174785         4.7561 
  56   0.0000       0.183416         4.9910 
  57   0.0000       0.185249         5.0409 
  58   0.0000       0.194066         5.2808 
  59   0.0000       0.200410         5.4534 
  60   0.0000       0.209718         5.7067 
  61   0.0000       0.211311         5.7501 
  62   0.0000       0.220617         6.0033 
  63   0.0000       0.224473         6.1082 
  64   0.0000       0.230424         6.2701 
  65   0.0000       0.244908         6.6643 
  66   0.0000       0.245150         6.6709 
  67   0.0000       0.256666         6.9842 
  68   0.0000       0.260617         7.0918 
  69   0.0000       0.263777         7.1777 
  70   0.0000       0.266323         7.2470 
  71   0.0000       0.270641         7.3645 
  72   0.0000       0.274815         7.4781 
  73   0.0000       0.279951         7.6179 
  74   0.0000       0.282431         7.6854 
  75   0.0000       0.288144         7.8408 
  76   0.0000       0.293380         7.9833 
  77   0.0000       0.298010         8.1093 
  78   0.0000       0.303522         8.2592 
  79   0.0000       0.321707         8.7541 
  80   0.0000       0.328837         8.9481 
  81   0.0000       0.331332         9.0160 
  82   0.0000       0.344759         9.3814 
  83   0.0000       0.377571        10.2742 
  84   0.0000       0.406813        11.0700 
  85   0.0000       0.433545        11.7974 
  86   0.0000       0.449026        12.2186 
  87   0.0000       0.463738        12.6189 
  88   0.0000       0.468943        12.7606 
  89   0.0000       0.487347        13.2614 
  90   0.0000       0.489993        13.3334 
  91   0.0000       0.505885        13.7658 
  92   0.0000       0.506493        13.7824 
  93   0.0000       0.546920        14.8824 
  94   0.0000       0.550384        14.9767 
  95   0.0000       0.564391        15.3579 
  96   0.0000       0.581052        15.8112 
  97   0.0000       0.593212        16.1421 
  98   0.0000       0.606195        16.4954 
  99   0.0000       0.630203        17.1487 
 100   0.0000       0.639055        17.3896 
 101   0.0000       0.645878        17.5752 
 102   0.0000       0.647902        17.6303 
 103   0.0000       0.662485        18.0271 
 104   0.0000       0.675196        18.3730 
 105   0.0000       0.702974        19.1289 
 106   0.0000       0.713075        19.4038 
 107   0.0000       0.719019        19.5655 
 108   0.0000       0.725199        19.7337 
 109   0.0000       0.735009        20.0006 
 110   0.0000       0.744112        20.2483 
 111   0.0000       0.744860        20.2687 
 112   0.0000       0.748747        20.3744 
 113   0.0000       0.750580        20.4243 
 114   0.0000       0.758937        20.6517 
 115   0.0000       0.762876        20.7589 
 116   0.0000       0.769775        20.9467 
 117   0.0000       0.771919        21.0050 
 118   0.0000       0.778199        21.1759 
 119   0.0000       0.782075        21.2813 
 120   0.0000       0.782841        21.3022 
 121   0.0000       0.791619        21.5410 
 122   0.0000       0.794339        21.6151 
 123   0.0000       0.805833        21.9278 
 124   0.0000       0.807916        21.9845 
 125   0.0000       0.812142        22.0995 
 126   0.0000       0.818609        22.2755 
 127   0.0000       0.819823        22.3085 
 128   0.0000       0.823007        22.3952 
 129   0.0000       0.830001        22.5855 
 130   0.0000       0.830774        22.6065 
 131   0.0000       0.843141        22.9430 
 132   0.0000       0.845588        23.0096 
 133   0.0000       0.852106        23.1870 
 134   0.0000       0.859616        23.3913 
 135   0.0000       0.860399        23.4126 
 136   0.0000       0.878788        23.9130 
 137   0.0000       0.880744        23.9663 
 138   0.0000       0.883302        24.0359 
 139   0.0000       0.888047        24.1650 
 140   0.0000       0.975901        26.5556 
 141   0.0000       0.995361        27.0852 
 142   0.0000       1.021894        27.8072 
 143   0.0000       1.041076        28.3291 
 144   0.0000       1.050437        28.5838 
 145   0.0000       1.071040        29.1445 
 146   0.0000       1.073826        29.2203 
 147   0.0000       1.079408        29.3722 
 148   0.0000       1.125962        30.6390 
 149   0.0000       1.190203        32.3871 
 150   0.0000       1.196415        32.5561 
 151   0.0000       1.200135        32.6573 
 152   0.0000       1.203722        32.7550 
 153   0.0000       1.240385        33.7526 
 154   0.0000       1.242500        33.8101 
 155   0.0000       1.272381        34.6233 
 156   0.0000       1.280389        34.8411 
 157   0.0000       1.315320        35.7917 
 158   0.0000       1.331778        36.2395 
 159   0.0000       1.347246        36.6604 
 160   0.0000       1.353329        36.8260 
 161   0.0000       1.372840        37.3569 
 162   0.0000       1.378307        37.5056 
 163   0.0000       1.386284        37.7227 
 164   0.0000       1.402032        38.1512 
 165   0.0000       1.442684        39.2574 
 166   0.0000       1.473774        40.1034 
 167   0.0000       1.510158        41.0935 
 168   0.0000       1.529650        41.6239 
 169   0.0000       1.630190        44.3597 
 170   0.0000       1.635425        44.5022 
 171   0.0000       1.641602        44.6703 
 172   0.0000       1.650423        44.9103 
 173   0.0000       1.651155        44.9302 
 174   0.0000       1.653401        44.9913 
 175   0.0000       1.658896        45.1409 
 176   0.0000       1.663497        45.2661 
 177   0.0000       1.667045        45.3626 
 178   0.0000       1.674123        45.5552 
 179   0.0000       1.678966        45.6870 
 180   0.0000       1.708068        46.4789 
 181   0.0000       1.777411        48.3658 
 182   0.0000       1.784973        48.5716 
 183   0.0000       1.801575        49.0233 
 184   0.0000       1.806247        49.1505 
 185   0.0000       1.818214        49.4761 
 186   0.0000       1.823093        49.6089 
 187   0.0000       1.838152        50.0187 
 188   0.0000       1.851606        50.3848 
 189   0.0000       1.853746        50.4430 
 190   0.0000       1.857483        50.5447 
 191   0.0000       1.866801        50.7982 
 192   0.0000       1.883032        51.2399 
 193   0.0000       1.901405        51.7399 
 194   0.0000       1.924422        52.3662 
 195   0.0000       1.929808        52.5128 
 196   0.0000       1.935900        52.6785 
 197   0.0000       1.942117        52.8477 
 198   0.0000       1.946946        52.9791 
 199   0.0000       1.949901        53.0595 
 200   0.0000       1.957219        53.2586 
 201   0.0000       1.959567        53.3225 
 202   0.0000       1.962156        53.3930 
 203   0.0000       1.975128        53.7460 
 204   0.0000       1.986925        54.0670 
 205   0.0000       1.987234        54.0754 
 206   0.0000       1.999345        54.4049 
 207   0.0000       2.020948        54.9928 
 208   0.0000       2.021578        55.0099 
 209   0.0000       2.027345        55.1669 
 210   0.0000       2.028115        55.1878 
 211   0.0000       2.035946        55.4009 
 212   0.0000       2.057301        55.9820 
 213   0.0000       2.058207        56.0067 
 214   0.0000       2.070702        56.3467 
 215   0.0000       2.075973        56.4901 
 216   0.0000       2.084826        56.7310 
 217   0.0000       2.091678        56.9175 
 218   0.0000       2.101570        57.1866 
 219   0.0000       2.121164        57.7198 
 220   0.0000       2.123850        57.7929 
 221   0.0000       2.171277        59.0835 
 222   0.0000       2.178977        59.2930 
 223   0.0000       2.258127        61.4468 
 224   0.0000       2.263836        61.6021 
 225   0.0000       2.271557        61.8122 
 226   0.0000       2.276533        61.9476 
 227   0.0000       2.293168        62.4003 
 228   0.0000       2.306412        62.7607 
 229   0.0000       2.308653        62.8216 
 230   0.0000       2.318973        63.1025 
 231   0.0000       2.319623        63.1202 
 232   0.0000       2.333499        63.4977 
 233   0.0000       2.451028        66.6959 
 234   0.0000       2.458547        66.9005 
 235   0.0000       2.470128        67.2156 
 236   0.0000       2.476548        67.3903 
 237   0.0000       2.480904        67.5088 
 238   0.0000       2.507796        68.2406 
 239   0.0000       2.515266        68.4439 
 240   0.0000       2.527050        68.7645 
 241   0.0000       2.534864        68.9772 
 242   0.0000       2.549103        69.3646 
 243   0.0000       2.574105        70.0450 
 244   0.0000       2.575498        70.0829 
 245   0.0000       2.605710        70.9050 
 246   0.0000       2.609996        71.0216 
 247   0.0000       2.611483        71.0621 
 248   0.0000       2.629223        71.5448 
 249   0.0000       2.648462        72.0683 
 250   0.0000       2.657518        72.3147 
 251   0.0000       2.662004        72.4368 
 252   0.0000       2.745081        74.6974 
 253   0.0000       2.745278        74.7028 
 254   0.0000       2.755320        74.9761 
 255   0.0000       2.775772        75.5326 
 256   0.0000       2.809338        76.4460 
 257   0.0000       2.817499        76.6680 
 258   0.0000       2.817761        76.6752 
 259   0.0000       2.835120        77.1475 
 260   0.0000       2.861835        77.8745 
 261   0.0000       2.900094        78.9156 
 262   0.0000       2.932438        79.7957 
 263   0.0000       2.953555        80.3703 
 264   0.0000       2.958695        80.5102 
 265   0.0000       2.989446        81.3470 
 266   0.0000       2.991128        81.3927 
 267   0.0000       2.999729        81.6268 
 268   0.0000       3.005080        81.7724 
 269   0.0000       3.011357        81.9432 
 270   0.0000       3.011999        81.9607 
 271   0.0000       3.018883        82.1480 
 272   0.0000       3.031889        82.5019 
 273   0.0000       3.065831        83.4255 
 274   0.0000       3.070273        83.5464 
 275   0.0000       3.078320        83.7653 
 276   0.0000       3.088331        84.0378 
 277   0.0000       3.093831        84.1874 
 278   0.0000       3.112588        84.6978 
 279   0.0000       3.117064        84.8196 
 280   0.0000       3.164284        86.1045 
 281   0.0000       3.201417        87.1150 
 282   0.0000       3.210218        87.3545 
 283   0.0000       3.321367        90.3790 
 284   0.0000       3.491041        94.9961 
 285   0.0000       3.602107        98.0183 
 286   0.0000       3.631421        98.8160 

                    ********************************
                    * MULLIKEN POPULATION ANALYSIS *
                    ********************************

-----------------------
MULLIKEN ATOMIC CHARGES
-----------------------
   0 N :   -0.154942
   1 C :    0.207772
   2 N :   -0.154788
   3 H :    0.124014
   4 C :    0.066883
   5 C :    0.066228
   6 C :   -0.262459
   7 C :   -0.260772
   8 C :    0.033283
   9 C :    0.045115
  10 C :    0.063679
  11 C :    0.033422
  12 C :    0.045274
  13 C :    0.062390
  14 H :    0.086104
  15 H :    0.086135
  16 H :    0.053333
  17 H :    0.052531
  18 H :    0.057953
  19 H :    0.044179
  20 H :    0.046911
  21 H :    0.051246
  22 H :    0.046367
  23 H :    0.053123
  24 H :    0.050424
  25 H :    0.050544
  26 H :    0.046486
  27 H :    0.053355
  28 H :    0.057686
  29 H :    0.053499
  30 H :    0.052348
  31 H :    0.044059
  32 H :    0.047164
  33 H :    0.051453
Sum of atomic charges:    1.0000000

--------------------------------
MULLIKEN REDUCED ORBITAL CHARGES
--------------------------------
  0 N s       :     3.383265  s :     3.383265
      pz      :     1.172623  p :     3.738404
      px      :     1.156330
      py      :     1.409452
      dz2     :     0.006739  d :     0.033272
      dxz     :     0.010008
      dyz     :     0.005448
      dx2y2   :     0.005174
      dxy     :     0.005903
  1 C s       :     3.100090  s :     3.100090
      pz      :     0.913996  p :     2.625133
      px      :     0.773057
      py      :     0.938081
      dz2     :     0.011731  d :     0.067005
      dxz     :     0.021292
      dyz     :     0.006675
      dx2y2   :     0.010286
      dxy     :     0.017021
  2 N s       :     3.383300  s :     3.383300
      pz      :     1.175439  p :     3.738220
      px      :     1.156788
      py      :     1.405993
      dz2     :     0.006936  d :     0.033269
      dxz     :     0.009896
      dyz     :     0.005229
      dx2y2   :     0.005143
      dxy     :     0.006065
  3 H s       :     0.850586  s :     0.850586
      pz      :     0.017446  p :     0.025400
      px      :     0.001447
      py      :     0.006507
  4 C s       :     3.142165  s :     3.142165
      pz      :     0.828420  p :     2.742389
      px      :     0.905261
      py      :     1.008709
      dz2     :     0.013217  d :     0.048563
      dxz     :     0.012451
      dyz     :     0.008609
      dx2y2   :     0.006028
      dxy     :     0.008258
  5 C s       :     3.142515  s :     3.142515
      pz      :     0.830430  p :     2.742704
      px      :     0.906227
      py      :     1.006048
      dz2     :     0.013206  d :     0.048552
      dxz     :     0.012399
      dyz     :     0.008601
      dx2y2   :     0.006208
      dxy     :     0.008137
  6 C s       :     3.234596  s :     3.234596
      pz      :     1.067859  p :     2.963421
      px      :     0.820307
      py      :     1.075255
      dz2     :     0.010844  d :     0.064442
      dxz     :     0.013523
      dyz     :     0.012469
      dx2y2   :     0.018071
      dxy     :     0.009534
  7 C s       :     3.234157  s :     3.234157
      pz      :     1.064913  p :     2.962177
      px      :     0.818038
      py      :     1.079226
      dz2     :     0.012205  d :     0.064439
      dxz     :     0.012709
      dyz     :     0.011391
      dx2y2   :     0.017985
      dxy     :     0.010149
  8 C s       :     2.980711  s :     2.980711
      pz      :     0.962193  p :     2.960031
      px      :     0.982629
      py      :     1.015210
      dz2     :     0.003474  d :     0.025975
      dxz     :     0.006274
      dyz     :     0.007185
      dx2y2   :     0.007460
      dxy     :     0.001583
  9 C s       :     2.983696  s :     2.983696
      pz      :     1.005535  p :     2.945214
      px      :     1.029178
      py      :     0.910501
      dz2     :     0.003749  d :     0.025975
      dxz     :     0.005337
      dyz     :     0.007131
      dx2y2   :     0.007625
      dxy     :     0.002133
 10 C s       :     2.976786  s :     2.976786
      pz      :     0.951631  p :     2.933450
      px      :     1.018763
      py      :     0.963056
      dz2     :     0.004209  d :     0.026085
      dxz     :     0.006342
      dyz     :     0.006212
      dx2y2   :     0.008034
      dxy     :     0.001287
 11 C s       :     2.980769  s :     2.980769
      pz      :     0.976684  p :     2.959818
      px      :     0.983376
      py      :     0.999758
      dz2     :     0.005616  d :     0.025990
      dxz     :     0.005338
      dyz     :     0.005155
      dx2y2   :     0.007447
      dxy     :     0.002435
 12 C s       :     2.983743  s :     2.983743
      pz      :     0.924386  p :     2.945012
      px      :     1.028862
      py      :     0.991764
      dz2     :     0.006244  d :     0.025972
      dxz     :     0.005048
      dyz     :     0.005320
      dx2y2   :     0.007018
      dxy     :     0.002342
 13 C s       :     2.977714  s :     2.977714
      pz      :     1.018441  p :     2.933818
      px      :     1.018652
      py      :     0.896725
      dz2     :     0.004723  d :     0.026078
      dxz     :     0.004515
      dyz     :     0.006365
      dx2y2   :     0.007407
      dxy     :     0.003068
 14 H s       :     0.888386  s :     0.888386
      pz      :     0.011020  p :     0.025510
      px      :     0.008520
      py      :     0.005969
 15 H s       :     0.888350  s :     0.888350
      pz      :     0.011079  p :     0.025515
      px      :     0.008677
      py      :     0.005759
 16 H s       :     0.922152  s :     0.922152
      pz      :     0.005482  p :     0.024515
      px      :     0.004515
      py      :     0.014517
 17 H s       :     0.923037  s :     0.923037
      pz      :     0.010595  p :     0.024432
      px      :     0.004658
      py      :     0.009179
 18 H s       :     0.917323  s :     0.917323
      pz      :     0.005262  p :     0.024723
      px      :     0.014055
      py      :     0.005406
 19 H s       :     0.931344  s :     0.931344
      pz      :     0.011100  p :     0.024477
      px      :     0.008912
      py      :     0.004464
 20 H s       :     0.928843  s :     0.928843
      pz      :     0.005353  p :     0.024246
      px      :     0.005090
      py      :     0.013803
 21 H s       :     0.924031  s :     0.924031
      pz      :     0.005665  p :     0.024723
      px      :     0.014543
      py      :     0.004514
 22 H s       :     0.928977  s :     0.928977
      pz      :     0.009909  p :     0.024656
      px      :     0.008246
      py      :     0.006502
 23 H s       :     0.922135  s :     0.922135
      pz      :     0.005049  p :     0.024742
      px      :     0.014877
      py      :     0.004816
 24 H s       :     0.925333  s :     0.925333
      pz      :     0.003851  p :     0.024243
      px      :     0.005658
      py      :     0.014734
 25 H s       :     0.925210  s :     0.925210
      pz      :     0.009905  p :     0.024245
      px      :     0.005627
      py      :     0.008713
 26 H s       :     0.928851  s :     0.928851
      pz      :     0.012209  p :     0.024663
      px      :     0.008353
      py      :     0.004101
 27 H s       :     0.921902  s :     0.921902
      pz      :     0.005653  p :     0.024744
      px      :     0.014827
      py      :     0.004264
 28 H s       :     0.917591  s :     0.917591
      pz      :     0.005604  p :     0.024724
      px      :     0.014138
      py      :     0.004982
 29 H s       :     0.921988  s :     0.921988
      pz      :     0.012926  p :     0.024513
      px      :     0.004529
      py      :     0.007058
 30 H s       :     0.923211  s :     0.923211
      pz      :     0.004571  p :     0.024441
      px      :     0.004679
      py      :     0.015191
 31 H s       :     0.931457  s :     0.931457
      pz      :     0.009959  p :     0.024484
      px      :     0.008841
      py      :     0.005684
 32 H s       :     0.928594  s :     0.928594
      pz      :     0.013114  p :     0.024242
      px      :     0.005091
      py      :     0.006037
 33 H s       :     0.923822  s :     0.923822
      pz      :     0.006030  p :     0.024725
      px      :     0.014587
      py      :     0.004108


                     *******************************
                     * LOEWDIN POPULATION ANALYSIS *
                     *******************************

----------------------
LOEWDIN ATOMIC CHARGES
----------------------
   0 N :    0.115262
   1 C :    0.121468
   2 N :    0.115482
   3 H :    0.055910
   4 C :    0.016279
   5 C :    0.015935
   6 C :    0.012988
   7 C :    0.013196
   8 C :   -0.041369
   9 C :   -0.040526
  10 C :   -0.039134
  11 C :   -0.041259
  12 C :   -0.040534
  13 C :   -0.039184
  14 H :    0.053673
  15 H :    0.053684
  16 H :    0.035147
  17 H :    0.035966
  18 H :    0.045472
  19 H :    0.032134
  20 H :    0.034525
  21 H :    0.040604
  22 H :    0.032559
  23 H :    0.041937
  24 H :    0.035618
  25 H :    0.035658
  26 H :    0.032600
  27 H :    0.042057
  28 H :    0.045373
  29 H :    0.035231
  30 H :    0.035921
  31 H :    0.032064
  32 H :    0.034630
  33 H :    0.040631

-------------------------------
LOEWDIN REDUCED ORBITAL CHARGES
-------------------------------
  0 N s       :     3.046024  s :     3.046024
      pz      :     1.220359  p :     3.761500
      px      :     1.192408
      py      :     1.348732
      dz2     :     0.016920  d :     0.077215
      dxz     :     0.025835
      dyz     :     0.011159
      dx2y2   :     0.011935
      dxy     :     0.011365
  1 C s       :     2.826795  s :     2.826795
      pz      :     1.020934  p :     2.894297
      px      :     0.901715
      py      :     0.971649
[...]
     76       0.030613  -0.015915  -0.090367   0.002455  -0.000134  -0.000000
     77      -0.044872   0.022639   0.128474  -0.003262   0.000198   0.000040
     78       0.055832  -0.008275  -0.046676  -0.010972   0.000188  -0.000644
     79       0.025383  -0.003657  -0.020780  -0.003793   0.000214  -0.000211
     80       0.072300  -0.010763  -0.061043  -0.012443   0.000337  -0.000756
     81       0.158919  -0.045074  -0.258648  -0.002908   0.000945  -0.000241
     82      -0.029747   0.008523   0.049218   0.000361  -0.000440  -0.000098
     83      -0.048308   0.013579   0.077932   0.000807  -0.000292   0.000028
     84      -0.002126  -0.657553   0.116928  -0.000541  -0.002516   0.002478
     85      -0.000250  -0.078568   0.013958   0.000065  -0.000668   0.000599
     86      -0.000753  -0.238878   0.042442   0.000153  -0.001880   0.001687
     87      -0.000086  -0.023102   0.004101   0.000017  -0.001804   0.001703
     88       0.000618   0.156469  -0.027845  -0.000110   0.003086  -0.002661
     89      -0.000875  -0.221379   0.039371  -0.000079  -0.005043   0.004380
     90      -0.000073  -0.035706   0.006317   0.000028  -0.001798   0.001682
     91      -0.000693  -0.299144   0.053025  -0.000003  -0.006473   0.005674
     92      -0.000154  -0.070162   0.012423  -0.000129  -0.001995   0.001764
     93       0.001538  -0.048723   0.008688   0.012108   0.000131   0.000694
     94      -0.000753   0.024232  -0.004349  -0.005656  -0.000208  -0.000319
     95      -0.001903   0.064399  -0.011544  -0.014751  -0.000283  -0.000877
     96      -0.000165  -0.028538   0.005140  -0.000965  -0.000075   0.000002
     97       0.000462   0.098729  -0.017814   0.002709   0.000145   0.000009
     98      -0.000633  -0.140915   0.025411  -0.003617  -0.000205   0.000011
     99       0.001502  -0.279586   0.050876   0.003427   0.000940   0.000293
    100       0.000214  -0.042409   0.007773   0.000311   0.000409  -0.000090
    101       0.000489  -0.084372   0.015353   0.000935   0.000287   0.000037


-----------
IR SPECTRUM
-----------

 Mode   freq       eps      Int      T**2         TX        TY        TZ
       cm**-1   L/(mol*cm) km/mol    a.u.
----------------------------------------------------------------------------
  6:     29.15   0.000000    0.00  0.000000  ( 0.000400 -0.000191 -0.000173)
  7:     49.87   0.000001    0.00  0.000006  (-0.000078  0.001749 -0.001587)
  8:     86.48   0.000021    0.10  0.000075  (-0.000249  0.008241 -0.002640)
  9:    139.89   0.000027    0.13  0.000059  ( 0.000067 -0.002079 -0.007406)
 10:    162.84   0.000000    0.00  0.000000  ( 0.000211  0.000262  0.000136)
 11:    222.42   0.000006    0.03  0.000008  ( 0.000664  0.002737  0.000227)
 12:    231.48   0.000000    0.00  0.000001  (-0.000256  0.000366 -0.000602)
 13:    262.67   0.000030    0.15  0.000036  (-0.001636  0.001995  0.005436)
 14:    264.42   0.000017    0.08  0.000020  (-0.002257 -0.000559 -0.003794)
 15:    279.38   0.000024    0.12  0.000027  (-0.005201 -0.000012  0.000051)
 16:    303.03   0.000006    0.03  0.000006  (-0.000131 -0.000139 -0.002410)
 17:    328.29   0.000010    0.05  0.000010  (-0.000151  0.003005  0.000919)
 18:    332.68   0.000013    0.07  0.000012  (-0.000170  0.000839  0.003426)
 19:    336.88   0.000007    0.03  0.000006  ( 0.000668 -0.001571  0.001853)
 20:    350.22   0.000096    0.48  0.000085  ( 0.000124  0.008665 -0.003170)
 21:    362.50   0.000001    0.00  0.000000  (-0.000645 -0.000197  0.000085)
 22:    370.92   0.000000    0.00  0.000000  ( 0.000178  0.000195  0.000060)
 23:    417.15   0.000012    0.06  0.000009  ( 0.002974 -0.000028 -0.000123)
 24:    442.31   0.000012    0.06  0.000009  ( 0.000119  0.002819 -0.000880)
 25:    471.65   0.000035    0.18  0.000023  (-0.000033  0.001604  0.004524)
 26:    478.51   0.000001    0.00  0.000000  ( 0.000614  0.000087 -0.000067)
 27:    519.14   0.000033    0.17  0.000020  (-0.004403  0.000432 -0.000276)
 28:    575.70   0.000142    0.72  0.000077  ( 0.000021  0.002940  0.008255)
 29:    634.88   0.001973    9.97  0.000970  (-0.031131  0.000923 -0.000191)
 30:    680.23   0.000001    0.00  0.000000  ( 0.000459  0.000294 -0.000111)
 31:    692.05   0.014898   75.29  0.006718  ( 0.001605  0.076637 -0.029020)
 32:    752.57   0.009550   48.26  0.003960  ( 0.000826  0.058698 -0.022672)
 33:    847.42   0.000000    0.00  0.000000  ( 0.000114 -0.000159 -0.000308)
 34:    851.53   0.000305    1.54  0.000112  (-0.010575  0.000232 -0.000041)
 35:    908.16   0.004632   23.41  0.001592  (-0.000812 -0.037087  0.014686)
 36:    908.98   0.000061    0.31  0.000021  ( 0.000325 -0.004364  0.001336)
 37:    947.97   0.000256    1.29  0.000084  ( 0.000240 -0.007994  0.004488)
 38:    948.74   0.000953    4.82  0.000313  (-0.001111  0.016356 -0.006684)
 39:    956.64   0.000633    3.20  0.000206  (-0.013450  0.000995  0.004950)
 40:    957.44   0.001008    5.10  0.000329  ( 0.003855  0.006186  0.016599)
 41:    971.67   0.000023    0.12  0.000007  ( 0.000738 -0.002559  0.000601)
 42:    972.78   0.000137    0.69  0.000044  (-0.000848 -0.006543  0.000563)
 43:   1023.31   0.001363    6.89  0.000416  ( 0.020387 -0.000189 -0.000011)
 44:   1038.33   0.000035    0.18  0.000011  ( 0.000014 -0.001088 -0.003075)
 45:   1051.53   0.000037    0.19  0.000011  ( 0.003084 -0.000693  0.001015)
 46:   1051.66   0.000032    0.16  0.000010  ( 0.002788  0.000421 -0.001297)
 47:   1057.33   0.000021    0.10  0.000006  (-0.000154 -0.002184  0.001123)
 48:   1058.64   0.000222    1.12  0.000065  (-0.000064 -0.007733  0.002384)
 49:   1128.78   0.005740   29.01  0.001587  ( 0.000686  0.014428  0.037123)
 50:   1157.71   0.014013   70.81  0.003777  (-0.061447  0.001171  0.000156)
 51:   1220.63   0.002744   13.87  0.000701  (-0.000689  0.010263  0.024406)
 52:   1233.78   0.075881  383.47  0.019193  (-0.138516  0.002398 -0.000419)
 53:   1273.58   0.000566    2.86  0.000139  (-0.001321  0.003631  0.011120)
 54:   1276.77   0.001415    7.15  0.000346  ( 0.018510  0.001807  0.000077)
 55:   1280.09   0.000183    0.93  0.000045  (-0.001994 -0.005905  0.002403)
 56:   1281.13   0.006769   34.21  0.001649  (-0.000583  0.038036 -0.014200)
 57:   1309.01   0.001032    5.21  0.000246  (-0.015677  0.000368  0.000146)
 58:   1362.59   0.005849   29.56  0.001340  ( 0.000273  0.013234  0.034122)
 59:   1396.60   0.000712    3.60  0.000159  ( 0.002400  0.011656  0.004184)
 60:   1396.84   0.010183   51.46  0.002275  (-0.001032  0.035789 -0.031512)
 61:   1398.26   0.008079   40.83  0.001803  (-0.001162 -0.028367 -0.031576)
 62:   1401.80   0.004114   20.79  0.000916  (-0.030123 -0.000783  0.002818)
 63:   1413.30   0.000221    1.11  0.000049  (-0.004470 -0.002470 -0.004755)
 64:   1413.68   0.001734    8.76  0.000383  (-0.019381  0.002520  0.000831)
 65:   1442.81   0.000067    0.34  0.000015  (-0.000059 -0.003808  0.000043)
 66:   1443.33   0.000081    0.41  0.000018  ( 0.000342  0.003785 -0.001770)
 67:   1446.35   0.000092    0.46  0.000020  (-0.001279  0.004170  0.000896)
 68:   1447.88   0.000101    0.51  0.000022  (-0.003529 -0.002831  0.001135)
 69:   1449.15   0.000233    1.18  0.000050  ( 0.006337  0.000160  0.003144)
 70:   1450.15   0.000453    2.29  0.000097  (-0.003382  0.002056  0.009046)
 71:   1452.07   0.000399    2.02  0.000086  (-0.009177  0.000173 -0.001213)
 72:   1459.90   0.007293   36.86  0.001559  ( 0.000213  0.016196  0.036009)
 73:   1469.12   0.000778    3.93  0.000165  (-0.000021 -0.012186  0.004083)
 74:   1470.56   0.002326   11.76  0.000494  (-0.002310  0.019722 -0.009966)
 75:   1472.64   0.000688    3.48  0.000146  ( 0.011802  0.002334 -0.000998)
 76:   1479.10   0.002536   12.81  0.000535  ( 0.023076  0.001051  0.001166)
 77:   1479.90   0.000567    2.87  0.000120  (-0.002386  0.000026  0.010671)
 78:   1491.92   0.000004    0.02  0.000001  (-0.000487  0.000320 -0.000697)
 79:   1637.31   0.028490  143.98  0.005430  ( 0.073672 -0.001514 -0.000531)
 80:   1640.18   0.001909    9.65  0.000363  ( 0.002957  0.006633  0.017622)
 81:   3071.28   0.004129   20.87  0.000420  (-0.000804 -0.020467  0.000143)
 82:   3071.40   0.001917    9.69  0.000195  (-0.000346  0.013933 -0.000745)
 83:   3073.32   0.005119   25.87  0.000520  ( 0.001108  0.001357 -0.022730)
 84:   3073.36   0.000641    3.24  0.000065  (-0.003256  0.001254 -0.007275)
 85:   3077.43   0.000462    2.33  0.000047  (-0.005203 -0.002854 -0.003405)
 86:   3077.59   0.000508    2.57  0.000051  ( 0.004883 -0.003016 -0.004307)
 87:   3176.71   0.002027   10.24  0.000199  (-0.004649  0.004550 -0.012522)
 88:   3177.20   0.001221    6.17  0.000120  (-0.005728 -0.003832  0.008511)
 89:   3178.96   0.006224   31.45  0.000611  ( 0.002961 -0.013009 -0.020807)
 90:   3179.16   0.001863    9.42  0.000183  (-0.012732 -0.001715 -0.004226)
 91:   3180.03   0.002405   12.16  0.000236  (-0.000915 -0.014858  0.003800)
 92:   3180.45   0.002185   11.04  0.000214  ( 0.000228  0.013851 -0.004741)
 93:   3184.06   0.001642    8.30  0.000161  (-0.006756 -0.009909  0.004138)
 94:   3184.14   0.001719    8.69  0.000169  ( 0.003873 -0.011330  0.005014)
 95:   3185.15   0.001249    6.31  0.000122  ( 0.010358  0.001504 -0.003578)
 96:   3185.44   0.001215    6.14  0.000119  (-0.009508  0.003492 -0.004053)
 97:   3190.27   0.005747   29.04  0.000562  ( 0.022192  0.003199  0.007710)
 98:   3190.48   0.003866   19.54  0.000378  ( 0.015281 -0.005459 -0.010718)
 99:   3308.42   0.010884   55.00  0.001027  (-0.000138 -0.011092 -0.030059)
100:   3326.30   0.006628   33.50  0.000622  ( 0.024930 -0.000473 -0.000299)
101:   3342.93   0.003735   18.88  0.000349  ( 0.000888  0.006480  0.017490)

* The epsilon (eps) is given for a Dirac delta lineshape.
** The dipole moment derivative (T) already includes vibrational overlap.

The first frequency considered to be a vibration is 6
The total number of vibrations considered is 96


--------------------------
THERMOCHEMISTRY AT 298.15K
--------------------------

Temperature         ... 298.15 K
Pressure            ... 1.00 atm
Total Mass          ... 181.30 AMU

Throughout the following assumptions are being made:
  (1) The electronic state is orbitally nondegenerate
  (2) There are no thermally accessible electronically excited states
  (3) Hindered rotations indicated by low frequency modes are not
      treated as such but are treated as vibrations and this may
      cause some error
  (4) All equations used are the standard statistical mechanics
      equations for an ideal gas
  (5) All vibrations are strictly harmonic

freq.      29.15  E(vib)   ...       0.55 
freq.      49.87  E(vib)   ...       0.52 
freq.      86.48  E(vib)   ...       0.48 
freq.     139.89  E(vib)   ...       0.41 
freq.     162.84  E(vib)   ...       0.39 
freq.     222.42  E(vib)   ...       0.33 
freq.     231.48  E(vib)   ...       0.32 
freq.     262.67  E(vib)   ...       0.29 
freq.     264.42  E(vib)   ...       0.29 
freq.     279.38  E(vib)   ...       0.28 
freq.     303.03  E(vib)   ...       0.26 
freq.     328.29  E(vib)   ...       0.24 
freq.     332.68  E(vib)   ...       0.24 
freq.     336.88  E(vib)   ...       0.24 
freq.     350.22  E(vib)   ...       0.23 
freq.     362.50  E(vib)   ...       0.22 
freq.     370.92  E(vib)   ...       0.21 
freq.     417.15  E(vib)   ...       0.18 
freq.     442.31  E(vib)   ...       0.17 
freq.     471.65  E(vib)   ...       0.15 
freq.     478.51  E(vib)   ...       0.15 
freq.     519.14  E(vib)   ...       0.13 
freq.     575.70  E(vib)   ...       0.11 
freq.     634.88  E(vib)   ...       0.09 
freq.     680.23  E(vib)   ...       0.08 
freq.     692.05  E(vib)   ...       0.07 
freq.     752.57  E(vib)   ...       0.06 
freq.     847.42  E(vib)   ...       0.04 
freq.     851.53  E(vib)   ...       0.04 
freq.     908.16  E(vib)   ...       0.03 
freq.     908.98  E(vib)   ...       0.03 
freq.     947.97  E(vib)   ...       0.03 
freq.     948.74  E(vib)   ...       0.03 
freq.     956.64  E(vib)   ...       0.03 
freq.     957.44  E(vib)   ...       0.03 
freq.     971.67  E(vib)   ...       0.03 
freq.     972.78  E(vib)   ...       0.03 
freq.    1023.31  E(vib)   ...       0.02 
freq.    1038.33  E(vib)   ...       0.02 
freq.    1051.53  E(vib)   ...       0.02 
freq.    1051.66  E(vib)   ...       0.02 
freq.    1057.33  E(vib)   ...       0.02 
freq.    1058.64  E(vib)   ...       0.02 
freq.    1128.78  E(vib)   ...       0.01 
freq.    1157.71  E(vib)   ...       0.01 
freq.    1220.63  E(vib)   ...       0.01 
freq.    1233.78  E(vib)   ...       0.01 
freq.    1273.58  E(vib)   ...       0.01 
freq.    1276.77  E(vib)   ...       0.01 
freq.    1280.09  E(vib)   ...       0.01 
freq.    1281.13  E(vib)   ...       0.01 
freq.    1309.01  E(vib)   ...       0.01 
freq.    1362.59  E(vib)   ...       0.01 
freq.    1396.60  E(vib)   ...       0.00 
freq.    1396.84  E(vib)   ...       0.00 
freq.    1398.26  E(vib)   ...       0.00 
freq.    1401.80  E(vib)   ...       0.00 
freq.    1413.30  E(vib)   ...       0.00 
freq.    1413.68  E(vib)   ...       0.00 
freq.    1442.81  E(vib)   ...       0.00 
freq.    1443.33  E(vib)   ...       0.00 
freq.    1446.35  E(vib)   ...       0.00 
freq.    1447.88  E(vib)   ...       0.00 
freq.    1449.15  E(vib)   ...       0.00 
freq.    1450.15  E(vib)   ...       0.00 
freq.    1452.07  E(vib)   ...       0.00 
freq.    1459.90  E(vib)   ...       0.00 
freq.    1469.12  E(vib)   ...       0.00 
freq.    1470.56  E(vib)   ...       0.00 
freq.    1472.64  E(vib)   ...       0.00 
freq.    1479.10  E(vib)   ...       0.00 
freq.    1479.90  E(vib)   ...       0.00 
freq.    1491.92  E(vib)   ...       0.00 
freq.    1637.31  E(vib)   ...       0.00 
freq.    1640.18  E(vib)   ...       0.00 
freq.    3071.28  E(vib)   ...       0.00 
freq.    3071.40  E(vib)   ...       0.00 
freq.    3073.32  E(vib)   ...       0.00 
freq.    3073.36  E(vib)   ...       0.00 
freq.    3077.43  E(vib)   ...       0.00 
freq.    3077.59  E(vib)   ...       0.00 
freq.    3176.71  E(vib)   ...       0.00 
freq.    3177.20  E(vib)   ...       0.00 
freq.    3178.96  E(vib)   ...       0.00 
freq.    3179.16  E(vib)   ...       0.00 
freq.    3180.03  E(vib)   ...       0.00 
freq.    3180.45  E(vib)   ...       0.00 
freq.    3184.06  E(vib)   ...       0.00 
freq.    3184.14  E(vib)   ...       0.00 
freq.    3185.15  E(vib)   ...       0.00 
freq.    3185.44  E(vib)   ...       0.00 
freq.    3190.27  E(vib)   ...       0.00 
freq.    3190.48  E(vib)   ...       0.00 
freq.    3308.42  E(vib)   ...       0.00 
freq.    3326.30  E(vib)   ...       0.00 
freq.    3342.93  E(vib)   ...       0.00 

------------
INNER ENERGY
------------

The inner energy is: U= E(el) + E(ZPE) + E(vib) + E(rot) + E(trans)
    E(el)   - is the total energy from the electronic structure calculation
              = E(kin-el) + E(nuc-el) + E(el-el) + E(nuc-nuc)
    E(ZPE)  - the the zero temperature vibrational energy from the frequency calculation
    E(vib)  - the the finite temperature correction to E(ZPE) due to population
              of excited vibrational states
    E(rot)  - is the rotational thermal energy
    E(trans)- is the translational thermal energy

Summary of contributions to the inner energy U:
Electronic energy                ...   -540.69248457 Eh
Zero point energy                ...      0.31124433 Eh     195.31 kcal/mol
Thermal vibrational correction   ...      0.01164189 Eh       7.31 kcal/mol
Thermal rotational correction    ...      0.00141627 Eh       0.89 kcal/mol
Thermal translational correction ...      0.00141627 Eh       0.89 kcal/mol
-----------------------------------------------------------------------
Total thermal energy                   -540.36676581 Eh


Summary of corrections to the electronic energy:
(perhaps to be used in another calculation)
Total thermal correction                  0.01447443 Eh       9.08 kcal/mol
Non-thermal (ZPE) correction              0.31124433 Eh     195.31 kcal/mol
-----------------------------------------------------------------------
Total correction                          0.32571876 Eh     204.39 kcal/mol


--------
ENTHALPY
--------

The enthalpy is H = U + kB*T
                kB is Boltzmann's constant
Total free energy                 ...   -540.36676581 Eh 
Thermal Enthalpy correction       ...      0.00094421 Eh       0.59 kcal/mol
-----------------------------------------------------------------------
Total Enthalpy                    ...   -540.36582160 Eh


Note: Only C1 symmetry has been detected, increase convergence thresholds 
      if your molecule has a higher symmetry. Symmetry factor of 1.0 is   
      used for the rotational entropy correction. 
 

Note: Rotational entropy computed according to Herzberg 
Infrared and Raman Spectra, Chapter V,1, Van Nostrand Reinhold, 1945 
Point Group:  C1, Symmetry Number:   1  
Rotational constants in cm-1:     0.054882     0.014954     0.013932 

Vibrational entropy computed according to the QRRHO of S. Grimme
Chem.Eur.J. 2012 18 9955


-------
ENTROPY
-------

The entropy contributions are T*S = T*(S(el)+S(vib)+S(rot)+S(trans))
     S(el)   - electronic entropy
     S(vib)  - vibrational entropy
     S(rot)  - rotational entropy
     S(trans)- translational entropy
The entropies will be listed as multiplied by the temperature to get
units of energy

Electronic entropy                ...      0.00000000 Eh      0.00 kcal/mol
Vibrational entropy               ...      0.01964986 Eh     12.33 kcal/mol
Rotational entropy                ...      0.01488267 Eh      9.34 kcal/mol
Translational entropy             ...      0.01971392 Eh     12.37 kcal/mol
-----------------------------------------------------------------------
Final entropy term                ...      0.05424646 Eh     34.04 kcal/mol

In case the symmetry of your molecule has not been determined correctly
or in case you have a reason to use a different symmetry number we print 
out the resulting rotational entropy values for sn=1,12 :
 --------------------------------------------------------
|  sn= 1 | S(rot)=       0.01488267 Eh      9.34 kcal/mol|
|  sn= 2 | S(rot)=       0.01422822 Eh      8.93 kcal/mol|
|  sn= 3 | S(rot)=       0.01384539 Eh      8.69 kcal/mol|
|  sn= 4 | S(rot)=       0.01357376 Eh      8.52 kcal/mol|
|  sn= 5 | S(rot)=       0.01336307 Eh      8.39 kcal/mol|
|  sn= 6 | S(rot)=       0.01319093 Eh      8.28 kcal/mol|
|  sn= 7 | S(rot)=       0.01304538 Eh      8.19 kcal/mol|
|  sn= 8 | S(rot)=       0.01291931 Eh      8.11 kcal/mol|
|  sn= 9 | S(rot)=       0.01280810 Eh      8.04 kcal/mol|
|  sn=10 | S(rot)=       0.01270862 Eh      7.97 kcal/mol|
|  sn=11 | S(rot)=       0.01261863 Eh      7.92 kcal/mol|
|  sn=12 | S(rot)=       0.01253647 Eh      7.87 kcal/mol|
 --------------------------------------------------------


-------------------
GIBBS FREE ENERGY
-------------------

The Gibbs free energy is G = H - T*S

Total enthalpy                    ...   -540.36582160 Eh 
Total entropy correction          ...     -0.05424646 Eh    -34.04 kcal/mol
-----------------------------------------------------------------------
Final Gibbs free energy         ...   -540.42006806 Eh

For completeness - the Gibbs free energy minus the electronic energy
G-E(el)                           ...      0.27241651 Eh    170.94 kcal/mol


Timings for individual modules:

Sum of individual times         ...     9898.981 sec (= 164.983 min)
GTO integral calculation        ...        5.713 sec (=   0.095 min)   0.1 %
SCF iterations                  ...     5615.503 sec (=  93.592 min)  56.7 %
SCF Gradient evaluation         ...     1638.865 sec (=  27.314 min)  16.6 %
Geometry relaxation             ...        1.147 sec (=   0.019 min)   0.0 %
Analytical frequency calculation...     2637.752 sec (=  43.963 min)  26.6 %
                             ****ORCA TERMINATED NORMALLY****
TOTAL RUN TIME: 0 days 2 hours 45 minutes 1 seconds 103 msec
