
                                 *****************
                                 * O   R   C   A *
                                 *****************

                                            #,                                       
                                            ###                                      
                                            ####                                     
                                            #####                                    
                                            ######                                   
                                           ########,                                 
                                     ,,################,,,,,                         
                               ,,#################################,,                 
                          ,,##########################################,,             
                       ,#########################################, ''#####,          
                    ,#############################################,,   '####,        
                  ,##################################################,,,,####,       
                ,###########''''           ''''###############################       
              ,#####''   ,,,,##########,,,,          '''####'''          '####       
            ,##' ,,,,###########################,,,                        '##       
           ' ,,###''''                  '''############,,,                           
         ,,##''                                '''############,,,,        ,,,,,,###''
      ,#''                                            '''#######################'''  
     '                                                          ''''####''''         
             ,#######,   #######,   ,#######,      ##                                
            ,#'     '#,  ##    ##  ,#'     '#,    #''#        ######   ,####,        
            ##       ##  ##   ,#'  ##            #'  '#       #        #'  '#        
            ##       ##  #######   ##           ,######,      #####,   #    #        
            '#,     ,#'  ##    ##  '#,     ,#' ,#      #,         ##   #,  ,#        
             '#######'   ##     ##  '#######'  #'      '#     #####' # '####'        



                  #######################################################
                  #                        -***-                        #
                  #          Department of theory and spectroscopy      #
                  #    Directorship and core code : Frank Neese         #
                  #        Max Planck Institute fuer Kohlenforschung    #
                  #                Kaiser Wilhelm Platz 1               #
                  #                 D-45470 Muelheim/Ruhr               #
                  #                      Germany                        #
                  #                                                     #
                  #                  All rights reserved                #
                  #                        -***-                        #
                  #######################################################


                         Program Version 5.0.4 -  RELEASE  -


 With contributions from (in alphabetic order):
   Daniel Aravena         : Magnetic Suceptibility
   Michael Atanasov       : Ab Initio Ligand Field Theory (pilot matlab implementation)
   Alexander A. Auer      : GIAO ZORA, VPT2 properties, NMR spectrum
   Ute Becker             : Parallelization
   Giovanni Bistoni       : ED, misc. LED, open-shell LED, HFLD
   Martin Brehm           : Molecular dynamics
   Dmytro Bykov           : SCF Hessian
   Vijay G. Chilkuri      : MRCI spin determinant printing, contributions to CSF-ICE
   Dipayan Datta          : RHF DLPNO-CCSD density
   Achintya Kumar Dutta   : EOM-CC, STEOM-CC
   Dmitry Ganyushin       : Spin-Orbit,Spin-Spin,Magnetic field MRCI
   Miquel Garcia          : C-PCM and meta-GGA Hessian, CC/C-PCM, Gaussian charge scheme
   Yang Guo               : DLPNO-NEVPT2, F12-NEVPT2, CIM, IAO-localization
   Andreas Hansen         : Spin unrestricted coupled pair/coupled cluster methods
   Benjamin Helmich-Paris : MC-RPA, TRAH-SCF, COSX integrals
   Lee Huntington         : MR-EOM, pCC
   Robert Izsak           : Overlap fitted RIJCOSX, COSX-SCS-MP3, EOM
   Marcus Kettner         : VPT2
   Christian Kollmar      : KDIIS, OOCD, Brueckner-CCSD(T), CCSD density, CASPT2, CASPT2-K
   Simone Kossmann        : Meta GGA functionals, TD-DFT gradient, OOMP2, MP2 Hessian
   Martin Krupicka        : Initial AUTO-CI
   Lucas Lang             : DCDCAS
   Marvin Lechner         : AUTO-CI (C++ implementation), FIC-MRCC
   Dagmar Lenk            : GEPOL surface, SMD
   Dimitrios Liakos       : Extrapolation schemes; Compound Job, initial MDCI parallelization
   Dimitrios Manganas     : Further ROCIS development; embedding schemes
   Dimitrios Pantazis     : SARC Basis sets
   Anastasios Papadopoulos: AUTO-CI, single reference methods and gradients
   Taras Petrenko         : DFT Hessian,TD-DFT gradient, ASA, ECA, R-Raman, ABS, FL, XAS/XES, NRVS
   Peter Pinski           : DLPNO-MP2, DLPNO-MP2 Gradient
   Christoph Reimann      : Effective Core Potentials
   Marius Retegan         : Local ZFS, SOC
   Christoph Riplinger    : Optimizer, TS searches, QM/MM, DLPNO-CCSD(T), (RO)-DLPNO pert. Triples
   Tobias Risthaus        : Range-separated hybrids, TD-DFT gradient, RPA, STAB
   Michael Roemelt        : Original ROCIS implementation
   Masaaki Saitow         : Open-shell DLPNO-CCSD energy and density
   Barbara Sandhoefer     : DKH picture change effects
   Avijit Sen             : IP-ROCIS
   Kantharuban Sivalingam : CASSCF convergence, NEVPT2, FIC-MRCI
   Bernardo de Souza      : ESD, SOC TD-DFT
   Georgi Stoychev        : AutoAux, RI-MP2 NMR, DLPNO-MP2 response
   Willem Van den Heuvel  : Paramagnetic NMR
   Boris Wezisla          : Elementary symmetry handling
   Frank Wennmohs         : Technical directorship


 We gratefully acknowledge several colleagues who have allowed us to
 interface, adapt or use parts of their codes:
   Stefan Grimme, W. Hujo, H. Kruse, P. Pracht,  : VdW corrections, initial TS optimization,
                  C. Bannwarth, S. Ehlert          DFT functionals, gCP, sTDA/sTD-DF
   Ed Valeev, F. Pavosevic, A. Kumar             : LibInt (2-el integral package), F12 methods
   Garnet Chan, S. Sharma, J. Yang, R. Olivares  : DMRG
   Ulf Ekstrom                                   : XCFun DFT Library
   Mihaly Kallay                                 : mrcc  (arbitrary order and MRCC methods)
   Jiri Pittner, Ondrej Demel                    : Mk-CCSD
   Frank Weinhold                                : gennbo (NPA and NBO analysis)
   Christopher J. Cramer and Donald G. Truhlar   : smd solvation model
   Lars Goerigk                                  : TD-DFT with DH, B97 family of functionals
   V. Asgeirsson, H. Jonsson                     : NEB implementation
   FAccTs GmbH                                   : IRC, NEB, NEB-TS, DLPNO-Multilevel, CI-OPT
                                                   MM, QMMM, 2- and 3-layer-ONIOM, Crystal-QMMM,
                                                   LR-CPCM, SF, NACMEs, symmetry and pop. for TD-DFT,
                                                   nearIR, NL-DFT gradient (VV10), updates on ESD,
                                                   ML-optimized integration grids
   S Lehtola, MJT Oliveira, MAL Marques          : LibXC Library
   Liviu Ungur et al                             : ANISO software


 Your calculation uses the libint2 library for the computation of 2-el integrals
 For citations please refer to: http://libint.valeyev.net

 Your ORCA version has been built with support for libXC version: 5.1.0
 For citations please refer to: https://tddft.org/programs/libxc/

 This ORCA versions uses:
   CBLAS   interface :  Fast vector & matrix operations
   LAPACKE interface :  Fast linear algebra routines
   SCALAPACK package :  Parallel linear algebra routines
   Shared memory     :  Shared parallel matrices
   BLAS/LAPACK       :  OpenBLAS 0.3.15  USE64BITINT DYNAMIC_ARCH NO_AFFINITY SkylakeX SINGLE_THREADED
        Core in use  :  SkylakeX
   Copyright (c) 2011-2014, The OpenBLAS Project




***************************************
The coordinates will be read from file: 5_prot_aq_9.xyz
***************************************


Your calculation utilizes the atom-pairwise dispersion correction
based on tight binding partial charges (D4)
Cite in your paper:
E.Caldeweyher, C.Bannwarth, S.Grimme, J.Chem.Phys., (2017), 147, 034112.
E.Caldeweyher, S.Ehlert, A.Hansen, H.Neugebauer, S.Grimme, J.Chem.Phys., (2018), in progress.
   

XCFun DFT library Copyright 2009-2010 Ulf Ekstrom and contributors.
See http://admol.org/xcfun for more information.
This is free software; see the source code for copying conditions.
There is ABSOLUTELY NO WARRANTY; not even for MERCHANTABILITY or FITNESS FOR A PARTICULAR PURPOSE.
For details see the documentation.
Scientific users of this library should cite U. Ekstrom, L. Visscher, R. Bast, A. J. Thorvaldsen and K. Ruud;
J.Chem.Theor.Comp. 2010, DOI: 10.1021/ct100117s
XCFun Version 0.99 

================================================================================

----- Orbital basis set information -----
Your calculation utilizes the basis: def2-SVP
   F. Weigend and R. Ahlrichs, Phys. Chem. Chem. Phys. 7, 3297 (2005).

----- AuxJ basis set information -----
Your calculation utilizes the auxiliary basis: def2/J
   F. Weigend, Phys. Chem. Chem. Phys. 8, 1057 (2006).

================================================================================
                                        WARNINGS
                       Please study these warnings very carefully!
================================================================================


WARNING: Geometry Optimization
  ===> : Switching off AutoStart
         For restart on a previous wavefunction, please use MOREAD

INFO   : the flag for use of the SHARK integral package has been found!

================================================================================
                                       INPUT FILE
================================================================================
NAME = 5_prot_aq_9.inp
|  1> # ORCA 5.0.4 - /users/bwb16179/postgrad/2024_03/DFT_Crest_Conformers/Opt/prot/5_prot_aq_9.inp # write input file
|  2> # Basic Mode
|  3> #
|  4> ! Opt Freq wB97X Def2-SVP D4 SlowConv TightSCF Defgrid2 Def2/J RIJCOSX CPCM(Water)
|  5> 
|  6> 
|  7> 
|  8> %maxcore 4500
|  9> 
| 10> %geom
| 11> Maxiter 150
| 12> END
| 13> 
| 14> * xyzfile 1 1 5_prot_aq_9.xyz
| 15> 
| 16>                          ****END OF INPUT****
================================================================================

                       *****************************
                       * Geometry Optimization Run *
                       *****************************

Geometry optimization settings:
Update method            Update   .... BFGS
Choice of coordinates    CoordSys .... Z-matrix Internals
Initial Hessian          InHess   .... Almoef's Model

Convergence Tolerances:
Energy Change            TolE     ....  5.0000e-06 Eh
Max. Gradient            TolMAXG  ....  3.0000e-04 Eh/bohr
RMS Gradient             TolRMSG  ....  1.0000e-04 Eh/bohr
Max. Displacement        TolMAXD  ....  4.0000e-03 bohr
RMS Displacement         TolRMSD  ....  2.0000e-03 bohr
Strict Convergence                ....  False
------------------------------------------------------------------------------
                        ORCA OPTIMIZATION COORDINATE SETUP
------------------------------------------------------------------------------

The optimization will be done in new redundant internal coordinates
Making redundant internal coordinates   ...  (new redundants) done
Evaluating the initial hessian          ...  (Almloef) done
Evaluating the coordinates              ...  done
Calculating the B-matrix                .... done
Calculating the G-matrix                .... done
Diagonalizing the G-matrix              .... done
Small eigenvalue found = 9.542e-03
Small eigenvalue found = 2.468e-02
The first mode is                       ....   87
The number of degrees of freedom        ....   96

    -----------------------------------------------------------------
                    Redundant Internal Coordinates


    -----------------------------------------------------------------
         Definition                    Initial Value    Approx d2E/dq
    -----------------------------------------------------------------
      1. B(C   1,N   0)                  1.3304         0.696642   
      2. B(N   2,C   1)                  1.3301         0.697462   
      3. B(H   3,C   1)                  1.0695         0.388215   
      4. B(C   4,N   2)                  1.3613         0.621866   
      5. B(C   5,C   4)                  1.3609         0.695220   
      6. B(C   5,N   0)                  1.3612         0.622112   
      7. B(C   6,N   0)                  1.4752         0.409174   
      8. B(C   7,N   2)                  1.4750         0.409448   
      9. B(C   8,C   6)                  1.5304         0.372972   
     10. B(C   9,C   6)                  1.5267         0.378083   
     11. B(C  10,C   6)                  1.5291         0.374756   
     12. B(C  11,C   7)                  1.5273         0.377338   
     13. B(C  12,C   7)                  1.5304         0.373006   
     14. B(C  13,C   7)                  1.5288         0.375233   
     15. B(H  14,C   4)                  1.0689         0.389161   
     16. B(H  15,C   5)                  1.0689         0.389152   
     17. B(H  16,C   8)                  1.0876         0.363296   
     18. B(H  17,C   8)                  1.0857         0.365824   
     19. B(H  18,C   8)                  1.0875         0.363439   
     20. B(H  19,C  10)                  1.0864         0.364926   
     21. B(H  20,C  10)                  1.0858         0.365679   
     22. B(H  21,C  10)                  1.0876         0.363318   
     23. B(H  22,C  12)                  1.0876         0.363279   
     24. B(H  23,C  12)                  1.0857         0.365831   
     25. B(H  24,C  12)                  1.0875         0.363356   
     26. B(H  25,C   9)                  1.0865         0.364733   
     27. B(H  26,C   9)                  1.0875         0.363473   
     28. B(H  27,C   9)                  1.0859         0.365570   
     29. B(H  28,C  11)                  1.0864         0.364894   
     30. B(H  29,C  11)                  1.0859         0.365568   
     31. B(H  30,C  11)                  1.0875         0.363477   
     32. B(H  31,C  13)                  1.0876         0.363259   
     33. B(H  32,C  13)                  1.0859         0.365622   
     34. B(H  33,C  13)                  1.0865         0.364782   
     35. A(C   1,N   0,C   5)          107.3974         0.437752   
     36. A(C   1,N   0,C   6)          125.5322         0.406199   
     37. A(C   5,N   0,C   6)          126.9963         0.398179   
     38. A(N   0,C   1,H   3)          124.8936         0.362346   
     39. A(N   0,C   1,N   2)          110.1406         0.446894   
     40. A(N   2,C   1,H   3)          124.9650         0.362418   
     41. A(C   1,N   2,C   4)          107.3889         0.437813   
     42. A(C   1,N   2,C   7)          125.8415         0.406332   
     43. A(C   4,N   2,C   7)          126.6866         0.398198   
     44. A(C   5,C   4,H  14)          128.9301         0.364638   
     45. A(N   2,C   4,H  14)          123.5242         0.355557   
     46. A(N   2,C   4,C   5)          107.5450         0.440451   
     47. A(N   0,C   5,H  15)          123.5556         0.355579   
     48. A(C   4,C   5,H  15)          128.9191         0.364636   
     49. A(N   0,C   5,C   4)          107.5246         0.440483   
     50. A(N   0,C   6,C  10)          108.8867         0.366956   
     51. A(N   0,C   6,C   9)          109.3105         0.367513   
     52. A(C   8,C   6,C   9)          110.4737         0.363997   
     53. A(N   0,C   6,C   8)          107.3735         0.366656   
     54. A(C   9,C   6,C  10)          109.8511         0.364294   
     55. A(C   8,C   6,C  10)          110.8860         0.363447   
     56. A(C  12,C   7,C  13)          110.8073         0.363532   
     57. A(C  11,C   7,C  13)          109.8641         0.364250   
     58. A(N   2,C   7,C  13)          109.0265         0.367079   
     59. A(C  11,C   7,C  12)          110.5487         0.363880   
     60. A(N   2,C   7,C  12)          107.3508         0.366704   
     61. A(N   2,C   7,C  11)          109.1833         0.367431   
     62. A(C   6,C   8,H  18)          111.1542         0.324725   
     63. A(H  16,C   8,H  17)          108.2492         0.291967   
     64. A(C   6,C   8,H  17)          109.5350         0.325074   
     65. A(C   6,C   8,H  16)          110.8597         0.324704   
     66. A(H  17,C   8,H  18)          108.2696         0.291985   
     67. A(H  16,C   8,H  18)          108.6888         0.291667   
     68. A(H  26,C   9,H  27)          107.9573         0.291957   
     69. A(H  25,C   9,H  27)          107.3480         0.292116   
     70. A(C   6,C   9,H  27)          109.0727         0.325765   
     71. A(H  25,C   9,H  26)          109.4821         0.291852   
     72. A(C   6,C   9,H  26)          111.0881         0.325457   
     73. A(C   6,C   9,H  25)          111.7471         0.325642   
     74. A(H  20,C  10,H  21)          108.0024         0.291951   
     75. A(H  19,C  10,H  21)          109.2061         0.291857   
     76. A(C   6,C  10,H  21)          110.8895         0.324962   
     77. A(H  19,C  10,H  20)          107.3216         0.292154   
     78. A(C   6,C  10,H  20)          109.2148         0.325308   
     79. A(C   6,C  10,H  19)          112.0608         0.325198   
     80. A(H  29,C  11,H  30)          108.0011         0.291957   
     81. A(H  28,C  11,H  30)          109.4006         0.291873   
     82. A(C   7,C  11,H  30)          111.0563         0.325352   
     83. A(H  28,C  11,H  29)          107.3227         0.292136   
     84. A(C   7,C  11,H  29)          109.1266         0.325659   
     85. A(C   7,C  11,H  28)          111.7894         0.325560   
     86. A(H  23,C  12,H  24)          108.2681         0.291975   
     87. A(H  22,C  12,H  24)          108.6808         0.291654   
     88. A(C   7,C  12,H  24)          110.8981         0.324717   
     89. A(H  22,C  12,H  23)          108.2894         0.291965   
     90. A(C   7,C  12,H  23)          109.5359         0.325080   
     91. A(C   7,C  12,H  22)          111.0859         0.324706   
     92. A(H  31,C  13,H  33)          109.2981         0.291831   
     93. A(C   7,C  13,H  33)          112.0181         0.325245   
     94. A(H  31,C  13,H  32)          107.9719         0.291937   
     95. A(C   7,C  13,H  32)          109.1922         0.325368   
     96. A(H  32,C  13,H  33)          107.2793         0.292129   
     97. A(C   7,C  13,H  31)          110.9323         0.325021   
     98. D(H   3,C   1,N   0,C   6)     -2.6815         0.040122   
     99. D(N   2,C   1,N   0,C   6)    177.6318         0.040122   
    100. D(N   2,C   1,N   0,C   5)      0.5848         0.040122   
    101. D(H   3,C   1,N   0,C   5)   -179.7286         0.040122   
    102. D(C   7,N   2,C   1,N   0)   -177.4611         0.040226   
    103. D(C   4,N   2,C   1,N   0)     -0.6030         0.040226   
    104. D(C   4,N   2,C   1,H   3)    179.7106         0.040226   
    105. D(C   7,N   2,C   1,H   3)      2.8526         0.040226   
    106. D(H  14,C   4,N   2,C   1)   -179.9084         0.031329   
    107. D(C   5,C   4,N   2,C   1)      0.3805         0.031329   
    108. D(H  14,C   4,N   2,C   7)     -3.0846         0.031329   
    109. D(C   5,C   4,N   2,C   7)    177.2043         0.031329   
    110. D(H  15,C   5,N   0,C   1)    179.9387         0.031356   
    111. D(C   4,C   5,N   0,C   6)   -177.3239         0.031356   
    112. D(C   4,C   5,N   0,C   1)     -0.3328         0.031356   
    113. D(H  15,C   5,C   4,H  14)     -0.0106         0.034002   
    114. D(N   0,C   5,C   4,H  14)   -179.7198         0.034002   
    115. D(N   0,C   5,C   4,N   2)     -0.0294         0.034002   
    116. D(H  15,C   5,C   4,N   2)    179.6798         0.034002   
    117. D(H  15,C   5,N   0,C   6)      2.9476         0.031356   
    118. D(C  10,C   6,N   0,C   5)   -143.5106         0.014283   
    119. D(C  10,C   6,N   0,C   1)     40.0183         0.014283   
    120. D(C   9,C   6,N   0,C   5)    -23.4991         0.014283   
    121. D(C   9,C   6,N   0,C   1)    160.0297         0.014283   
    122. D(C   8,C   6,N   0,C   5)     96.3671         0.014283   
    123. D(C   8,C   6,N   0,C   1)    -80.1040         0.014283   
    124. D(C  12,C   7,N   2,C   4)    -92.2886         0.014302   
    125. D(C  11,C   7,N   2,C   4)     27.5829         0.014302   
    126. D(C  11,C   7,N   2,C   1)   -156.1569         0.014302   
    127. D(C  13,C   7,N   2,C   1)    -36.1217         0.014302   
    128. D(C  12,C   7,N   2,C   1)     83.9716         0.014302   
    129. D(C  13,C   7,N   2,C   4)    147.6181         0.014302   
    130. D(H  18,C   8,C   6,C  10)    -57.5176         0.011110   
    131. D(H  18,C   8,C   6,C   9)   -179.5524         0.011110   
    132. D(H  18,C   8,C   6,N   0)     61.3255         0.011110   
    133. D(H  17,C   8,C   6,C   9)    -59.9509         0.011110   
    134. D(H  17,C   8,C   6,C  10)     62.0840         0.011110   
    135. D(H  17,C   8,C   6,N   0)   -179.0730         0.011110   
    136. D(H  16,C   8,C   6,C  10)   -178.5239         0.011110   
    137. D(H  16,C   8,C   6,C   9)     59.4413         0.011110   
    138. D(H  16,C   8,C   6,N   0)    -59.6808         0.011110   
    139. D(H  27,C   9,C   6,C  10)    -53.7591         0.011399   
    140. D(H  27,C   9,C   6,C   8)     68.8826         0.011399   
    141. D(H  27,C   9,C   6,N   0)   -173.1765         0.011399   
    142. D(H  26,C   9,C   6,C  10)     65.1198         0.011399   
    143. D(H  26,C   9,C   6,C   8)   -172.2384         0.011399   
    144. D(H  26,C   9,C   6,N   0)    -54.2976         0.011399   
    145. D(H  25,C   9,C   6,C  10)   -172.2871         0.011399   
    146. D(H  25,C   9,C   6,N   0)     68.2955         0.011399   
    147. D(H  25,C   9,C   6,C   8)    -49.6454         0.011399   
    148. D(H  21,C  10,C   6,C   8)    170.7979         0.011210   
    149. D(H  21,C  10,C   6,N   0)     52.8718         0.011210   
    150. D(H  20,C  10,C   6,C   9)     52.0988         0.011210   
    151. D(H  20,C  10,C   6,C   8)    -70.2989         0.011210   
    152. D(H  20,C  10,C   6,N   0)    171.7750         0.011210   
    153. D(H  19,C  10,C   6,C   9)    170.8791         0.011210   
    154. D(H  19,C  10,C   6,C   8)     48.4814         0.011210   
    155. D(H  21,C  10,C   6,C   9)    -66.8044         0.011210   
    156. D(H  19,C  10,C   6,N   0)    -69.4447         0.011210   
    157. D(H  29,C  11,C   7,N   2)    172.4823         0.011357   
    158. D(H  28,C  11,C   7,C  13)    171.5210         0.011357   
    159. D(H  28,C  11,C   7,C  12)     48.9196         0.011357   
    160. D(H  28,C  11,C   7,N   2)    -68.9605         0.011357   
    161. D(H  30,C  11,C   7,C  13)    -65.9838         0.011357   
    162. D(H  30,C  11,C   7,C  12)    171.4148         0.011357   
    163. D(H  30,C  11,C   7,N   2)     53.5346         0.011357   
    164. D(H  29,C  11,C   7,C  13)     52.9639         0.011357   
    165. D(H  29,C  11,C   7,C  12)    -69.6375         0.011357   
    166. D(H  24,C  12,C   7,C  13)    178.7867         0.011112   
    167. D(H  24,C  12,C   7,C  11)    -59.1644         0.011112   
    168. D(H  24,C  12,C   7,N   2)     59.8328         0.011112   
    169. D(H  23,C  12,C   7,C  13)    -61.7732         0.011112   
    170. D(H  23,C  12,C   7,C  11)     60.2757         0.011112   
    171. D(H  23,C  12,C   7,N   2)    179.2729         0.011112   
    172. D(H  22,C  12,C   7,C  13)     57.8106         0.011112   
    173. D(H  22,C  12,C   7,C  11)    179.8596         0.011112   
    174. D(H  22,C  12,C   7,N   2)    -61.1433         0.011112   
    175. D(H  33,C  13,C   7,C  12)    -47.9946         0.011237   
    176. D(H  33,C  13,C   7,C  11)   -170.4429         0.011237   
    177. D(H  33,C  13,C   7,N   2)     69.9429         0.011237   
    178. D(H  32,C  13,C   7,C  12)     70.6919         0.011237   
    179. D(H  32,C  13,C   7,C  11)    -51.7565         0.011237   
    180. D(H  32,C  13,C   7,N   2)   -171.3706         0.011237   
    181. D(H  31,C  13,C   7,C  12)   -170.4306         0.011237   
    182. D(H  31,C  13,C   7,C  11)     67.1211         0.011237   
    183. D(H  31,C  13,C   7,N   2)    -52.4931         0.011237   
    -----------------------------------------------------------------

Number of atoms                         .... 34
Number of degrees of freedom            .... 183

         *************************************************************
         *                GEOMETRY OPTIMIZATION CYCLE   1            *
         *************************************************************
---------------------------------
CARTESIAN COORDINATES (ANGSTROEM)
---------------------------------
  N     -1.090223   -0.260133    0.062984
  C     -0.007471    0.480617   -0.157977
  N      1.088676   -0.262814   -0.036289
  H     -0.017939    1.521611   -0.403189
  C      0.691118   -1.523809    0.287628
  C     -0.668416   -1.522260    0.349173
  C     -2.480676    0.232736    0.063705
  C      2.477327    0.219670   -0.157121
  C     -2.730727    0.893149    1.421488
  C     -3.433075   -0.942669   -0.141907
  C     -2.648641    1.242083   -1.072639
  C      3.382514   -0.948139   -0.543666
  C      2.883778    0.786323    1.205183
  C      2.536863    1.302018   -1.235170
  H      1.369816   -2.333733    0.448509
  H     -1.331493   -2.330821    0.570675
  H     -2.585820    0.181326    2.230916
  H     -3.753267    1.255326    1.466222
  H     -2.062953    1.737409    1.576183
  H     -2.106885    2.164360   -0.882588
  H     -3.699194    1.498536   -1.170441
  H     -2.316175    0.820228   -2.018330
  H      2.245920    1.620598    1.488044
  H      3.908792    1.141309    1.159565
  H      2.821460    0.022825    1.977163
  H     -3.437370   -1.611824    0.714094
  H     -3.176268   -1.502164   -1.038339
  H     -4.443638   -0.563767   -0.261763
  H      3.480175   -1.667395    0.264664
  H      4.376851   -0.570388   -0.762231
  H      3.011564   -1.452292   -1.432931
  H      2.091553    0.950946   -2.163270
  H      3.574928    1.550482   -1.434600
  H      2.040556    2.216427   -0.922151

----------------------------
CARTESIAN COORDINATES (A.U.)
----------------------------
  NO LB      ZA    FRAG     MASS         X           Y           Z
   0 N     7.0000    0    14.007   -2.060223   -0.491581    0.119022
   1 C     6.0000    0    12.011   -0.014118    0.908235   -0.298533
   2 N     7.0000    0    14.007    2.057299   -0.496647   -0.068576
   3 H     1.0000    0     1.008   -0.033899    2.875429   -0.761916
   4 C     6.0000    0    12.011    1.306023   -2.879582    0.543539
   5 C     6.0000    0    12.011   -1.263124   -2.876655    0.659841
   6 C     6.0000    0    12.011   -4.687799    0.439808    0.120385
   7 C     6.0000    0    12.011    4.681469    0.415116   -0.296916
   8 C     6.0000    0    12.011   -5.160327    1.687807    2.686224
   9 C     6.0000    0    12.011   -6.487572   -1.781386   -0.268166
  10 C     6.0000    0    12.011   -5.005206    2.347196   -2.026994
  11 C     6.0000    0    12.011    6.392024   -1.791723   -1.027379
  12 C     6.0000    0    12.011    5.449551    1.485934    2.277466
  13 C     6.0000    0    12.011    4.793976    2.460457   -2.334133
  14 H     1.0000    0     1.008    2.588576   -4.410116    0.847559
  15 H     1.0000    0     1.008   -2.516157   -4.404613    1.078419
  16 H     1.0000    0     1.008   -4.886491    0.342657    4.215819
  17 H     1.0000    0     1.008   -7.092647    2.372222    2.770758
  18 H     1.0000    0     1.008   -3.898416    3.283228    2.978554
  19 H     1.0000    0     1.008   -3.981436    4.090048   -1.667850
  20 H     1.0000    0     1.008   -6.990463    2.831822   -2.211814
  21 H     1.0000    0     1.008   -4.376936    1.550007   -3.814092
  22 H     1.0000    0     1.008    4.244174    3.062487    2.811997
  23 H     1.0000    0     1.008    7.386546    2.156762    2.191261
  24 H     1.0000    0     1.008    5.331786    0.043132    3.736296
  25 H     1.0000    0     1.008   -6.495687   -3.045907    1.349443
  26 H     1.0000    0     1.008   -6.002277   -2.838678   -1.962176
  27 H     1.0000    0     1.008   -8.397259   -1.065365   -0.494660
  28 H     1.0000    0     1.008    6.576578   -3.150920    0.500143
  29 H     1.0000    0     1.008    8.271050   -1.077876   -1.440408
  30 H     1.0000    0     1.008    5.691031   -2.744434   -2.707847
  31 H     1.0000    0     1.008    3.952463    1.797027   -4.087988
  32 H     1.0000    0     1.008    6.755635    2.929987   -2.711001
  33 H     1.0000    0     1.008    3.856092    4.188440   -1.742613

--------------------------------
INTERNAL COORDINATES (ANGSTROEM)
--------------------------------
 N      0   0   0     0.000000000000     0.00000000     0.00000000
 C      1   0   0     1.330371107068     0.00000000     0.00000000
 N      2   1   0     1.330050770310   110.14059342     0.00000000
 H      2   1   3     1.069535948910   124.89361678   179.68661613
 C      3   2   1     1.361279668141   107.38885158   359.39697121
 C      5   3   2     1.360927202879   107.54498714     0.38047856
 C      1   2   3     1.475222456947   125.53224023   177.63183657
 C      3   2   1     1.475040350394   125.84146702   182.53893312
 C      7   1   2     1.530439645748   107.37353020   279.89597707
 C      7   1   2     1.526734402847   109.31045722   160.02973215
 C      7   1   2     1.529140708279   108.88666838    40.01825051
 C      8   3   2     1.527271369195   109.18329090   203.84306546
 C      8   3   2     1.530414936924   107.35075203    83.97160974
 C      8   3   2     1.528794020827   109.02650740   323.87833720
 H      5   3   2     1.068873378777   123.52420245   180.09161324
 H      6   5   3     1.068879848228   128.91912004   179.67984527
 H      9   7   1     1.087594569366   110.85969731   300.31916905
 H      9   7   1     1.085707382421   109.53495045   180.92704122
 H      9   7   1     1.087487206994   111.15423719    61.32547198
 H     11   7   1     1.086376424463   112.06076589   290.55534087
 H     11   7   1     1.085814982947   109.21476690   171.77504833
 H     11   7   1     1.087578296480   110.88945193    52.87182507
 H     13   8   3     1.087607174463   111.08591663   298.85673203
 H     13   8   3     1.085702221540   109.53590896   179.27286515
 H     13   8   3     1.087549937025   110.89807189    59.83275550
 H     10   7   1     1.086520297670   111.74713076    68.29551041
 H     10   7   1     1.087462070819   111.08805938   305.70243577
 H     10   7   1     1.085895901675   109.07267663   186.82351638
 H     12   8   3     1.086399691954   111.78944509   291.03945343
 H     12   8   3     1.085897915776   109.12657779   172.48234262
 H     12   8   3     1.087458778339   111.05629098    53.53463999
 H     14   8   3     1.087622115697   110.93234367   307.50689514
 H     14   8   3     1.085857402243   109.19218624   188.62936382
 H     14   8   3     1.086483174226   112.01808384    69.94287267

---------------------------
INTERNAL COORDINATES (A.U.)
---------------------------
 N      0   0   0     0.000000000000     0.00000000     0.00000000
 C      1   0   0     2.514037048841     0.00000000     0.00000000
 N      2   1   0     2.513431700097   110.14059342     0.00000000
 H      2   1   3     2.021130033824   124.89361678   179.68661613
 C      3   2   1     2.572445764462   107.38885158   359.39697121
 C      5   3   2     2.571779701644   107.54498714     0.38047856
 C      1   2   3     2.787766430241   125.53224023   177.63183657
 C      3   2   1     2.787422298727   125.84146702   182.53893312
 C      7   1   2     2.892111794959   107.37353020   279.89597707
 C      7   1   2     2.885109900616   109.31045722   160.02973215
 C      7   1   2     2.889657158879   108.88666838    40.01825051
 C      8   3   2     2.886124619958   109.18329090   203.84306546
 C      8   3   2     2.892065102049   107.35075203    83.97160974
 C      8   3   2     2.889002014539   109.02650740   323.87833720
 H      5   3   2     2.019877957727   123.52420245   180.09161324
 H      6   5   3     2.019890183219   128.91912004   179.67984527
 H      9   7   1     2.055255880842   110.85969731   300.31916905
 H      9   7   1     2.051689614352   109.53495045   180.92704122
 H      9   7   1     2.055052995361   111.15423719    61.32547198
 H     11   7   1     2.052953920585   112.06076589   290.55534087
 H     11   7   1     2.051892949877   109.21476690   171.77504833
 H     11   7   1     2.055225129544   110.88945193    52.87182507
 H     13   8   3     2.055279701022   111.08591663   298.85673203
 H     13   8   3     2.051679861701   109.53590896   179.27286515
 H     13   8   3     2.055171537941   110.89807189    59.83275550
 H     10   7   1     2.053225801542   111.74713076    68.29551041
 H     10   7   1     2.055005494875   111.08805938   305.70243577
 H     10   7   1     2.052045864113   109.07267663   186.82351638
 H     12   8   3     2.052997889770   111.78944509   291.03945343
 H     12   8   3     2.052049670212   109.12657779   172.48234262
 H     12   8   3     2.054999272989   111.05629098    53.53463999
 H     14   8   3     2.055307935862   110.93234367   307.50689514
 H     14   8   3     2.051973110731   109.19218624   188.62936382
 H     14   8   3     2.053155648401   112.01808384    69.94287267

---------------------
BASIS SET INFORMATION
---------------------
There are 3 groups of distinct atoms

 Group   1 Type N   : 7s4p1d contracted to 3s2p1d pattern {511/31/1}
 Group   2 Type C   : 7s4p1d contracted to 3s2p1d pattern {511/31/1}
 Group   3 Type H   : 4s1p contracted to 2s1p pattern {31/1}

Atom   0N    basis set group =>   1
Atom   1C    basis set group =>   2
Atom   2N    basis set group =>   1
Atom   3H    basis set group =>   3
Atom   4C    basis set group =>   2
Atom   5C    basis set group =>   2
Atom   6C    basis set group =>   2
Atom   7C    basis set group =>   2
Atom   8C    basis set group =>   2
Atom   9C    basis set group =>   2
Atom  10C    basis set group =>   2
Atom  11C    basis set group =>   2
Atom  12C    basis set group =>   2
Atom  13C    basis set group =>   2
Atom  14H    basis set group =>   3
Atom  15H    basis set group =>   3
Atom  16H    basis set group =>   3
Atom  17H    basis set group =>   3
Atom  18H    basis set group =>   3
Atom  19H    basis set group =>   3
Atom  20H    basis set group =>   3
Atom  21H    basis set group =>   3
Atom  22H    basis set group =>   3
Atom  23H    basis set group =>   3
Atom  24H    basis set group =>   3
Atom  25H    basis set group =>   3
Atom  26H    basis set group =>   3
Atom  27H    basis set group =>   3
Atom  28H    basis set group =>   3
Atom  29H    basis set group =>   3
Atom  30H    basis set group =>   3
Atom  31H    basis set group =>   3
Atom  32H    basis set group =>   3
Atom  33H    basis set group =>   3
---------------------------------
AUXILIARY/J BASIS SET INFORMATION
---------------------------------
There are 3 groups of distinct atoms

 Group   1 Type N   : 12s5p4d2f1g contracted to 6s4p3d1f1g pattern {711111/2111/211/2/1}
 Group   2 Type C   : 12s5p4d2f1g contracted to 6s4p3d1f1g pattern {711111/2111/211/2/1}
 Group   3 Type H   : 5s2p1d contracted to 3s1p1d pattern {311/2/1}

Atom   0N    basis set group =>   1
Atom   1C    basis set group =>   2
Atom   2N    basis set group =>   1
Atom   3H    basis set group =>   3
Atom   4C    basis set group =>   2
Atom   5C    basis set group =>   2
Atom   6C    basis set group =>   2
Atom   7C    basis set group =>   2
Atom   8C    basis set group =>   2
Atom   9C    basis set group =>   2
Atom  10C    basis set group =>   2
Atom  11C    basis set group =>   2
Atom  12C    basis set group =>   2
Atom  13C    basis set group =>   2
Atom  14H    basis set group =>   3
Atom  15H    basis set group =>   3
Atom  16H    basis set group =>   3
Atom  17H    basis set group =>   3
Atom  18H    basis set group =>   3
Atom  19H    basis set group =>   3
Atom  20H    basis set group =>   3
Atom  21H    basis set group =>   3
Atom  22H    basis set group =>   3
Atom  23H    basis set group =>   3
Atom  24H    basis set group =>   3
Atom  25H    basis set group =>   3
Atom  26H    basis set group =>   3
Atom  27H    basis set group =>   3
Atom  28H    basis set group =>   3
Atom  29H    basis set group =>   3
Atom  30H    basis set group =>   3
Atom  31H    basis set group =>   3
Atom  32H    basis set group =>   3
Atom  33H    basis set group =>   3
------------------------------------------------------------------------------
                           ORCA GTO INTEGRAL CALCULATION
                           -- RI-GTO INTEGRALS CHOSEN --
------------------------------------------------------------------------------
------------------------------------------------------------------------------
                   ___                                                        
                  /   \      - P O W E R E D   B Y -                         
                 /     \                                                     
                 |  |  |   _    _      __       _____    __    __             
                 |  |  |  | |  | |    /  \     |  _  \  |  |  /  |          
                  \  \/   | |  | |   /    \    | | | |  |  | /  /          
                 / \  \   | |__| |  /  /\  \   | |_| |  |  |/  /          
                |  |  |   |  __  | /  /__\  \  |    /   |      \           
                |  |  |   | |  | | |   __   |  |    \   |  |\   \          
                \     /   | |  | | |  |  |  |  | |\  \  |  | \   \       
                 \___/    |_|  |_| |__|  |__|  |_| \__\ |__|  \__/        
                                                                              
                      - O R C A' S   B I G   F R I E N D -                    
                                      &                                       
                       - I N T E G R A L  F E E D E R -                       
                                                                              
 v1 FN, 2020, v2 2021                                                         
------------------------------------------------------------------------------


Reading SHARK input file 5_prot_aq_9.SHARKINP.tmp ... ok
----------------------
SHARK INTEGRAL PACKAGE
----------------------

Number of atoms                             ...     34
Number of basis functions                   ...    287
Number of shells                            ...    141
Maximum angular momentum                    ...      2
Integral batch strategy                     ... SHARK/LIBINT Hybrid
RI-J (if used) integral strategy            ... SPLIT-RIJ (Revised 2003 algorithm where possible)
Printlevel                                  ...      1
Contraction scheme used                     ... SEGMENTED contraction
Coulomb Range Separation                    ... NOT USED
Exchange Range Separation                   ... Long Range
   Mu parameter                             ...  0.300000
   Scaling (regular/separated)              ...  0.157706  0.842294
Finite Nucleus Model                        ... NOT USED
Auxiliary Coulomb fitting basis             ... AVAILABLE
   # of basis functions in Aux-J            ...    868
   # of shells in Aux-J                     ...    300
   Maximum angular momentum in Aux-J        ...      4
Auxiliary J/K fitting basis                 ... NOT available
Auxiliary Correlation fitting basis         ... NOT available
Auxiliary 'external' fitting basis          ... NOT available
Integral threshold                          ...     2.500000e-11
Primitive cut-off                           ...     2.500000e-12
Primitive pair pre-selection threshold      ...     2.500000e-12

Calculating pre-screening integrals         ... done (  0.1 sec) Dimension = 141
Organizing shell pair data                  ... done (  0.1 sec)
Shell pair information
Total number of shell pairs                 ...     10011
Shell pairs after pre-screening             ...      8613
Total number of primitive shell pairs       ...     34423
Primitive shell pairs kept                  ...     20712
          la=0 lb=0:   2959 shell pairs
          la=1 lb=0:   3268 shell pairs
          la=1 lb=1:    934 shell pairs
          la=2 lb=0:    889 shell pairs
          la=2 lb=1:    488 shell pairs
          la=2 lb=2:     75 shell pairs

Calculating one electron integrals          ... done (  0.1 sec)
Calculating RI/J V-Matrix + Cholesky decomp.... done (  0.1 sec)
Calculating Nuclear repulsion               ... done (  0.0 sec) ENN=    878.018593430541 Eh

SHARK setup successfully completed in   0.4 seconds

Maximum memory used throughout the entire GTOINT-calculation: 48.9 MB
-------------------------------------------------------------------------------
                                 ORCA SCF
-------------------------------------------------------------------------------

------------
SCF SETTINGS
------------
Hamiltonian:
 Density Functional     Method          .... DFT(GTOs)
 Exchange Functional    Exchange        .... WB97X
 Correlation Functional Correlation     .... WB97X
 Gradients option       PostSCFGGA      .... off
 Hybrid DFT is turned on
   Fraction HF Exchange ScalHFX         ....  0.157706
   Scaling of DF-GGA-X  ScalDFX         ....  0.000000
   Scaling of DF-GGA-C  ScalDFC         ....  1.000000
   Scaling of DF-LDA-C  ScalLDAC        ....  1.000000
   Perturbative correction              ....  0.000000
   Density functional embedding theory  .... OFF
 Long-range corrected/Screened/Range-Separated Hybrid DFT is turned on
   Amount of maximum screened exact exchange              ....  0.842294
   Range separation parameter mu (erf(mu*r12)/r12)        ....  0.300000
 RI-approximation to the Coulomb term is turned on
   Number of AuxJ basis functions       .... 868
   RIJ-COSX (HFX calculated with COS-X)).... on


General Settings:
 Integral files         IntName         .... 5_prot_aq_9
 Hartree-Fock type      HFTyp           .... RHF
 Total Charge           Charge          ....    1
 Multiplicity           Mult            ....    1
 Number of Electrons    NEL             ....  100
 Basis Dimension        Dim             ....  287
 Nuclear Repulsion      ENuc            ....    878.0185934305 Eh

Convergence Acceleration:
 DIIS                   CNVDIIS         .... on
   Start iteration      DIISMaxIt       ....     0
   Startup error        DIISStart       ....  0.200000
   # of expansion vecs  DIISMaxEq       ....     5
   Bias factor          DIISBfac        ....   1.050
   Max. coefficient     DIISMaxC        ....  10.000
 Trust-Rad. Augm. Hess. CNVTRAH         .... auto
   Auto Start mean grad. ratio tolernc. ....  1.125000
   Auto Start start iteration           ....    20
   Auto Start num. interpolation iter.  ....    10
   Max. Number of Micro iterations      ....    16
   Max. Number of Macro iterations      .... Maxiter - #DIIS iter
   Number of Davidson start vectors     ....     2
   Converg. threshold I  (grad. norm)   ....   1.000e-05
   Converg. threshold II (energy diff.) ....   1.000e-08
   Grad. Scal. Fac. for Micro threshold ....   0.100
   Minimum threshold for Micro iter.    ....   0.010
   NR start threshold (gradient norm)   ....   0.001
   Initial trust radius                 ....   0.400
   Minimum AH scaling param. (alpha)    ....   1.000
   Maximum AH scaling param. (alpha)    .... 1000.000
   Orbital update algorithm             .... Taylor
   White noise on init. David. guess    .... on
   Maximum white noise                  ....   0.010
   Quad. conv. algorithm                .... NR
 SOSCF                  CNVSOSCF        .... on
   Start iteration      SOSCFMaxIt      ....   150
   Startup grad/error   SOSCFStart      ....  0.001000
 Level Shifting         CNVShift        .... on
   Level shift para.    LevelShift      ....    0.2500
   Turn off err/grad.   ShiftErr        ....    0.0000
 Zerner damping         CNVZerner       .... off
 Static damping         CNVDamp         .... on
   Fraction old density DampFac         ....    0.8500
   Max. Damping (<1)    DampMax         ....    0.9800
   Min. Damping (>=0)   DampMin         ....    0.0000
   Turn off err/grad.   DampErr         ....    0.0300
 Fernandez-Rico         CNVRico         .... off

SCF Procedure:
 Maximum # iterations   MaxIter         ....   125
 SCF integral mode      SCFMode         .... Direct
   Integral package                     .... SHARK and LIBINT hybrid scheme
 Reset frequency        DirectResetFreq ....    20
 Integral Threshold     Thresh          ....  2.500e-11 Eh
 Primitive CutOff       TCut            ....  2.500e-12 Eh

Convergence Tolerance:
 Convergence Check Mode ConvCheckMode   .... Total+1el-Energy
 Convergence forced     ConvForced      .... 0
 Energy Change          TolE            ....  1.000e-08 Eh
 1-El. energy change                    ....  1.000e-05 Eh
 Orbital Gradient       TolG            ....  1.000e-05
 Orbital Rotation angle TolX            ....  1.000e-05
 DIIS Error             TolErr          ....  5.000e-07


Diagonalization of the overlap matrix:
Smallest eigenvalue                        ... 1.152e-03
Time for diagonalization                   ...    0.014 sec
Threshold for overlap eigenvalues          ... 1.000e-08
Number of eigenvalues below threshold      ... 0
Time for construction of square roots      ...    0.006 sec
Total time needed                          ...    0.021 sec

Time for model grid setup =    0.763 sec

------------------------------
INITIAL GUESS: MODEL POTENTIAL
------------------------------
Loading Hartree-Fock densities                     ... done
Calculating cut-offs                               ... done
Initializing the effective Hamiltonian             ... done
Setting up the integral package (SHARK)            ... done
Starting the Coulomb interaction                   ... done (   0.8 sec)
Reading the grid                                   ... done
Mapping shells                                     ... done
Starting the XC term evaluation                    ... done (   0.8 sec)
  promolecular density results
     # of electrons  =    100.987377746
     EX              =    -75.693129328
     EC              =     -3.362289225
     EX+EC           =    -79.055418552
Transforming the Hamiltonian                       ... done (   0.0 sec)
Diagonalizing the Hamiltonian                      ... done (   0.0 sec)
Back transforming the eigenvectors                 ... done (   0.0 sec)
Now organizing SCF variables                       ... done
                      ------------------
                      INITIAL GUESS DONE (   2.4 sec)
                      ------------------
-------------------
DFT GRID GENERATION
-------------------

General Integration Accuracy     IntAcc      ... 4.388
Radial Grid Type                 RadialGrid  ... OptM3 with GC (2021)
Angular Grid (max. ang.)         AngularGrid ... 4 (Lebedev-302)
Angular grid pruning method      GridPruning ... 4 (adaptive)
Weight generation scheme         WeightScheme... Becke
Basis function cutoff            BFCut       ... 1.0000e-11
Integration weight cutoff        WCut        ... 1.0000e-14
Angular grids for H and He will be reduced by one unit
Partially contracted basis set               ... off
Rotationally invariant grid construction     ... off

Total number of grid points                  ...   144091
Total number of batches                      ...     2266
Average number of points per batch           ...       63
Average number of grid points per atom       ...     4238
Time for grid setup =    2.743 sec

--------------------
COSX GRID GENERATION
--------------------

GRIDX 1
-------
General Integration Accuracy     IntAcc      ... 3.816
Radial Grid Type                 RadialGrid  ... OptM3 with GC (2021)
Angular Grid (max. ang.)         AngularGrid ... 1 (Lebedev-50)
Angular grid pruning method      GridPruning ... 4 (adaptive)
Weight generation scheme         WeightScheme... Becke
Basis function cutoff            BFCut       ... 1.0000e-11
Integration weight cutoff        WCut        ... 1.0000e-14
Angular grids for H and He will be reduced by one unit
Partially contracted basis set               ... on
Rotationally invariant grid construction     ... off

Total number of grid points                  ...    18401
Total number of batches                      ...      308
Average number of points per batch           ...       59
Average number of grid points per atom       ...      541
UseSFitting                                  ... on

GRIDX 2
-------
General Integration Accuracy     IntAcc      ... 4.020
Radial Grid Type                 RadialGrid  ... OptM3 with GC (2021)
Angular Grid (max. ang.)         AngularGrid ... 2 (Lebedev-110)
Angular grid pruning method      GridPruning ... 4 (adaptive)
Weight generation scheme         WeightScheme... Becke
Basis function cutoff            BFCut       ... 1.0000e-11
Integration weight cutoff        WCut        ... 1.0000e-14
Angular grids for H and He will be reduced by one unit
Partially contracted basis set               ... on
Rotationally invariant grid construction     ... off

Total number of grid points                  ...    38158
Total number of batches                      ...      614
Average number of points per batch           ...       62
Average number of grid points per atom       ...     1122
UseSFitting                                  ... on

GRIDX 3
-------
General Integration Accuracy     IntAcc      ... 4.338
Radial Grid Type                 RadialGrid  ... OptM3 with GC (2021)
Angular Grid (max. ang.)         AngularGrid ... 3 (Lebedev-194)
Angular grid pruning method      GridPruning ... 4 (adaptive)
Weight generation scheme         WeightScheme... Becke
Basis function cutoff            BFCut       ... 1.0000e-11
Integration weight cutoff        WCut        ... 1.0000e-14
Angular grids for H and He will be reduced by one unit
Partially contracted basis set               ... on
Rotationally invariant grid construction     ... off

Total number of grid points                  ...    82952
Total number of batches                      ...     1313
Average number of points per batch           ...       63
Average number of grid points per atom       ...     2440
UseSFitting                                  ... on

Time for X-Grid setup             =    3.467 sec


--------------------
CPCM SOLVATION MODEL
--------------------
CPCM parameters:
  Epsilon                                         ...      80.4000
  Refrac                                          ...       1.3300
  Rsolv                                           ...       1.3000
  Surface type                                    ... GAUSSIAN VDW
  Epsilon function type                           ...         CPCM
Radii:
 Radius for N  used is    3.5149 Bohr (=   1.8600 Ang.)
 Radius for C  used is    3.8550 Bohr (=   2.0400 Ang.)
 Radius for H  used is    2.4944 Bohr (=   1.3200 Ang.)
Calculating surface                               ...        done! (  0.0s)
GEPOL surface points                              ...         1761
GEPOL Volume                                      ...    1686.4219
GEPOL Surface-area                                ...     906.3326
Calculating surface distance matrix               ...        done! (  0.0s)
Performing Cholesky decomposition & store         ...        done! (  0.1s)
Overall time for CPCM initialization              ...                 0.2s
--------------
SCF ITERATIONS
--------------
ITER       Energy         Delta-E        Max-DP      RMS-DP      [F,P]     Damp
               ***  Starting incremental Fock matrix formation  ***
  0   -540.3915946058   0.000000000000 0.03398271  0.00063633  0.1506621 0.8500
  1   -540.4525541608  -0.060959554964 0.03053440  0.00059487  0.1213390 0.8500
                               ***Turning on DIIS***
  2   -540.4986701612  -0.046116000451 0.02390950  0.00048403  0.0931096 0.8500
  3   -540.5327327555  -0.034062594295 0.01499375  0.00034376  0.0705280 0.8500
  4   -540.5588571764  -0.026124420853 0.01015026  0.00026429  0.0561209 0.8500
  5   -540.5793341454  -0.020476969020 0.00774329  0.00021745  0.0463636 0.8500
  6   -540.5959160772  -0.016581931775 0.00628226  0.00018374  0.0389580 0.8500
  7   -540.6095973512  -0.013681274042 0.00534487  0.00015817  0.0329652 0.8500
  8   -540.6210125982  -0.011415247014 0.03033128  0.00090722  0.0278656 0.0000
  9   -540.6820627922  -0.061050193996 0.00136803  0.00003245  0.0011983 0.0000
                      *** Initiating the SOSCF procedure ***
                           *** Shutting down DIIS ***
                      *** Re-Reading the Fockian *** 
                      *** Removing any level shift *** 
ITER      Energy       Delta-E        Grad      Rot      Max-DP    RMS-DP
 10   -540.68208522  -0.0000224250  0.000131  0.000131  0.000658  0.000013
               *** Restarting incremental Fock matrix formation ***
 11   -540.68212728  -0.0000420608  0.000046  0.000079  0.000402  0.000009
 12   -540.68212760  -0.0000003191  0.000054  0.000118  0.000201  0.000004
 13   -540.68212765  -0.0000000482  0.000013  0.000019  0.000057  0.000001
 14   -540.68212766  -0.0000000142  0.000003  0.000006  0.000006  0.000000
                  ***Gradient check signals convergence***
              ***Rediagonalizing the Fockian in SOSCF/NRSCF***

               *****************************************************
               *                     SUCCESS                       *
               *           SCF CONVERGED AFTER  15 CYCLES          *
               *****************************************************

Old exchange energy                            =    -25.379205302 Eh
New exchange energy                            =    -25.379257612 Eh
Exchange energy change after final integration =     -0.000052310 Eh
Total energy after final integration           =   -540.682179984 Eh
Final COS-X integration done in                =    95.962 sec

----------------
TOTAL SCF ENERGY
----------------

Total Energy       :         -540.68217998 Eh          -14712.71010 eV

Components:
Nuclear Repulsion  :          878.01859343 Eh           23892.10058 eV
Electronic Energy  :        -1418.70077341 Eh          -38604.81068 eV
One Electron Energy:        -2453.99470629 Eh          -66776.59081 eV
Two Electron Energy:         1035.29393288 Eh           28171.78014 eV
Max COSX asymmetry :            0.00000355 Eh               0.00010 eV
CPCM Dielectric    :           -0.07484377 Eh              -2.03660 eV

Virial components:
Potential Energy   :        -1075.07894922 Eh          -29254.38547 eV
Kinetic Energy     :          534.39676923 Eh           14541.67538 eV
Virial Ratio       :            2.01176169


DFT components:
N(Alpha)           :       49.999990456771 electrons
N(Beta)            :       49.999990456771 electrons
N(Total)           :       99.999980913542 electrons
E(XC)              :      -55.663038161484 Eh       
DFET-embed. en.    :        0.000000000000 Eh       
CPCM Solvation Model Properties:
Surface-charge          :           -1.02406674
Charge-correction       :            0.00318298 Eh               0.08661 eV
Free-energy (cav+disp)  :  This term is not implemented in the current solvation scheme

---------------
SCF CONVERGENCE
---------------

  Last Energy change         ...   -1.4076e-08  Tolerance :   1.0000e-08
  Last MAX-Density change    ...    3.1086e-15  Tolerance :   1.0000e-07
  Last RMS-Density change    ...    3.4652e-17  Tolerance :   5.0000e-09
  Last Orbital Gradient      ...    8.8111e-07  Tolerance :   1.0000e-05
  Last Orbital Rotation      ...    2.0903e-06  Tolerance :   1.0000e-05

             **** THE GBW FILE WAS UPDATED (5_prot_aq_9.gbw) ****
             **** DENSITY 5_prot_aq_9.scfp WAS UPDATED ****
             **** ENERGY FILE WAS UPDATED (5_prot_aq_9.en.tmp) ****
             **** THE GBW FILE WAS UPDATED (5_prot_aq_9.gbw) ****
             **** DENSITY 5_prot_aq_9.scfp WAS UPDATED ****
----------------
ORBITAL ENERGIES
----------------

  NO   OCC          E(Eh)            E(eV) 
   0   2.0000     -14.509574      -394.8256 
   1   2.0000     -14.509380      -394.8203 
   2   2.0000     -10.378812      -282.4218 
   3   2.0000     -10.343560      -281.4626 
   4   2.0000     -10.343502      -281.4610 
   5   2.0000     -10.329232      -281.0727 
   6   2.0000     -10.328609      -281.0557 
   7   2.0000     -10.271136      -279.4918 
   8   2.0000     -10.270989      -279.4878 
   9   2.0000     -10.270904      -279.4855 
  10   2.0000     -10.270791      -279.4824 
  11   2.0000     -10.269187      -279.4388 
  12   2.0000     -10.269136      -279.4374 
  13   2.0000      -1.221048       -33.2264 
  14   2.0000      -1.104834       -30.0641 
  15   2.0000      -0.984256       -26.7830 
  16   2.0000      -0.935026       -25.4434 
  17   2.0000      -0.922715       -25.1083 
  18   2.0000      -0.837519       -22.7901 
  19   2.0000      -0.828088       -22.5334 
  20   2.0000      -0.826256       -22.4836 
  21   2.0000      -0.825542       -22.4641 
  22   2.0000      -0.799740       -21.7620 
  23   2.0000      -0.769507       -20.9394 
  24   2.0000      -0.730797       -19.8860 
  25   2.0000      -0.708237       -19.2721 
  26   2.0000      -0.645249       -17.5581 
  27   2.0000      -0.633376       -17.2350 
  28   2.0000      -0.609270       -16.5791 
  29   2.0000      -0.591560       -16.0972 
  30   2.0000      -0.590474       -16.0676 
  31   2.0000      -0.580012       -15.7829 
  32   2.0000      -0.573277       -15.5997 
  33   2.0000      -0.557994       -15.1838 
  34   2.0000      -0.553784       -15.0692 
  35   2.0000      -0.552318       -15.0293 
  36   2.0000      -0.520639       -14.1673 
  37   2.0000      -0.509113       -13.8537 
  38   2.0000      -0.501418       -13.6443 
  39   2.0000      -0.501177       -13.6377 
  40   2.0000      -0.494018       -13.4429 
  41   2.0000      -0.491971       -13.3872 
  42   2.0000      -0.482098       -13.1186 
  43   2.0000      -0.481443       -13.1007 
  44   2.0000      -0.469746       -12.7824 
  45   2.0000      -0.454426       -12.3656 
  46   2.0000      -0.452637       -12.3169 
  47   2.0000      -0.452248       -12.3063 
  48   2.0000      -0.413139       -11.2421 
  49   2.0000      -0.370782       -10.0895 
  50   0.0000       0.058911         1.6031 
  51   0.0000       0.097306         2.6478 
  52   0.0000       0.132849         3.6150 
  53   0.0000       0.146699         3.9919 
  54   0.0000       0.165014         4.4903 
  55   0.0000       0.171492         4.6665 
  56   0.0000       0.182193         4.9577 
  57   0.0000       0.183665         4.9978 
  58   0.0000       0.194235         5.2854 
  59   0.0000       0.200819         5.4646 
  60   0.0000       0.210717         5.7339 
  61   0.0000       0.211620         5.7585 
  62   0.0000       0.219407         5.9704 
  63   0.0000       0.225612         6.1392 
  64   0.0000       0.233151         6.3444 
  65   0.0000       0.240372         6.5409 
  66   0.0000       0.246030         6.6948 
  67   0.0000       0.257117         6.9965 
  68   0.0000       0.257473         7.0062 
  69   0.0000       0.263477         7.1696 
  70   0.0000       0.263665         7.1747 
  71   0.0000       0.265726         7.2308 
  72   0.0000       0.274291         7.4638 
  73   0.0000       0.278569         7.5802 
  74   0.0000       0.289174         7.8688 
  75   0.0000       0.291505         7.9323 
  76   0.0000       0.294869         8.0238 
  77   0.0000       0.300252         8.1703 
  78   0.0000       0.308073         8.3831 
  79   0.0000       0.313102         8.5200 
  80   0.0000       0.318322         8.6620 
  81   0.0000       0.338186         9.2025 
  82   0.0000       0.348730         9.4894 
  83   0.0000       0.372511        10.1365 
  84   0.0000       0.406258        11.0549 
  85   0.0000       0.438281        11.9262 
  86   0.0000       0.462619        12.5885 
  87   0.0000       0.470049        12.7907 
  88   0.0000       0.480070        13.0634 
  89   0.0000       0.487871        13.2756 
  90   0.0000       0.495987        13.4965 
  91   0.0000       0.496940        13.5224 
  92   0.0000       0.507551        13.8112 
  93   0.0000       0.546959        14.8835 
  94   0.0000       0.550867        14.9899 
  95   0.0000       0.575353        15.6562 
  96   0.0000       0.580980        15.8093 
  97   0.0000       0.594053        16.1650 
  98   0.0000       0.601923        16.3792 
  99   0.0000       0.624742        17.0001 
 100   0.0000       0.636808        17.3284 
 101   0.0000       0.648413        17.6442 
 102   0.0000       0.654518        17.8104 
 103   0.0000       0.662334        18.0230 
 104   0.0000       0.680214        18.5096 
 105   0.0000       0.685268        18.6471 
 106   0.0000       0.713792        19.4233 
 107   0.0000       0.727900        19.8072 
 108   0.0000       0.736579        20.0433 
 109   0.0000       0.738168        20.0866 
 110   0.0000       0.741402        20.1746 
 111   0.0000       0.742935        20.2163 
 112   0.0000       0.744263        20.2524 
 113   0.0000       0.751392        20.4464 
 114   0.0000       0.759996        20.6805 
 115   0.0000       0.762353        20.7447 
 116   0.0000       0.767977        20.8977 
 117   0.0000       0.771505        20.9937 
 118   0.0000       0.775117        21.0920 
 119   0.0000       0.777705        21.1624 
 120   0.0000       0.784682        21.3523 
 121   0.0000       0.785448        21.3731 
 122   0.0000       0.797999        21.7147 
 123   0.0000       0.806770        21.9533 
 124   0.0000       0.808404        21.9978 
 125   0.0000       0.810374        22.0514 
 126   0.0000       0.812168        22.1002 
 127   0.0000       0.813884        22.1469 
 128   0.0000       0.823979        22.4216 
 129   0.0000       0.833332        22.6761 
 130   0.0000       0.838372        22.8133 
 131   0.0000       0.843541        22.9539 
 132   0.0000       0.847231        23.0543 
 133   0.0000       0.856616        23.3097 
 134   0.0000       0.857706        23.3394 
 135   0.0000       0.858745        23.3676 
 136   0.0000       0.866538        23.5797 
 137   0.0000       0.874753        23.8032 
 138   0.0000       0.893002        24.2998 
 139   0.0000       0.893405        24.3108 
 140   0.0000       0.939901        25.5760 
 141   0.0000       1.012731        27.5578 
 142   0.0000       1.021054        27.7843 
 143   0.0000       1.023591        27.8533 
 144   0.0000       1.038425        28.2570 
 145   0.0000       1.057704        28.7816 
 146   0.0000       1.074858        29.2484 
 147   0.0000       1.080900        29.4128 
 148   0.0000       1.116030        30.3687 
 149   0.0000       1.185386        32.2560 
 150   0.0000       1.197268        32.5793 
 151   0.0000       1.218832        33.1661 
 152   0.0000       1.219174        33.1754 
 153   0.0000       1.234318        33.5875 
 154   0.0000       1.247807        33.9546 
 155   0.0000       1.263442        34.3800 
 156   0.0000       1.289747        35.0958 
 157   0.0000       1.299440        35.3596 
 158   0.0000       1.326159        36.0866 
 159   0.0000       1.347235        36.6601 
 160   0.0000       1.365161        37.1479 
 161   0.0000       1.382643        37.6236 
 162   0.0000       1.387486        37.7554 
 163   0.0000       1.403324        38.1864 
 164   0.0000       1.416069        38.5332 
 165   0.0000       1.425518        38.7903 
 166   0.0000       1.481521        40.3142 
 167   0.0000       1.514645        41.2156 
 168   0.0000       1.529782        41.6275 
 169   0.0000       1.607158        43.7330 
 170   0.0000       1.640429        44.6383 
 171   0.0000       1.647746        44.8374 
 172   0.0000       1.648595        44.8605 
 173   0.0000       1.654925        45.0328 
 174   0.0000       1.656502        45.0757 
 175   0.0000       1.660189        45.1760 
 176   0.0000       1.663718        45.2721 
 177   0.0000       1.670620        45.4599 
 178   0.0000       1.673255        45.5316 
 179   0.0000       1.709352        46.5138 
 180   0.0000       1.725459        46.9521 
 181   0.0000       1.777040        48.3557 
 182   0.0000       1.784992        48.5721 
 183   0.0000       1.793441        48.8020 
 184   0.0000       1.803480        49.0752 
 185   0.0000       1.818729        49.4901 
 186   0.0000       1.829483        49.7828 
 187   0.0000       1.836828        49.9826 
 188   0.0000       1.839453        50.0541 
 189   0.0000       1.846447        50.2444 
 190   0.0000       1.852045        50.3967 
 191   0.0000       1.866308        50.7848 
 192   0.0000       1.871675        50.9309 
 193   0.0000       1.886566        51.3361 
 194   0.0000       1.895906        51.5902 
 195   0.0000       1.922034        52.3012 
 196   0.0000       1.923279        52.3351 
 197   0.0000       1.940169        52.7947 
 198   0.0000       1.944454        52.9113 
 199   0.0000       1.949446        53.0471 
 200   0.0000       1.953352        53.1534 
 201   0.0000       1.955748        53.2186 
 202   0.0000       1.964879        53.4671 
 203   0.0000       1.972522        53.6751 
 204   0.0000       1.978602        53.8405 
 205   0.0000       1.990415        54.1619 
 206   0.0000       1.995119        54.2899 
 207   0.0000       2.008591        54.6565 
 208   0.0000       2.016315        54.8667 
 209   0.0000       2.019168        54.9444 
 210   0.0000       2.028613        55.2014 
 211   0.0000       2.035285        55.3829 
 212   0.0000       2.059892        56.0525 
 213   0.0000       2.069016        56.3008 
 214   0.0000       2.069976        56.3269 
 215   0.0000       2.078092        56.5478 
 216   0.0000       2.087740        56.8103 
 217   0.0000       2.088481        56.8305 
 218   0.0000       2.098788        57.1109 
 219   0.0000       2.118379        57.6440 
 220   0.0000       2.126426        57.8630 
 221   0.0000       2.171303        59.0842 
 222   0.0000       2.181486        59.3613 
 223   0.0000       2.249446        61.2105 
 224   0.0000       2.263405        61.5904 
 225   0.0000       2.272023        61.8249 
 226   0.0000       2.282330        62.1053 
 227   0.0000       2.288369        62.2697 
 228   0.0000       2.308154        62.8081 
 229   0.0000       2.312104        62.9156 
 230   0.0000       2.314835        62.9899 
 231   0.0000       2.322881        63.2088 
 232   0.0000       2.332416        63.4683 
 233   0.0000       2.448129        66.6170 
 234   0.0000       2.454558        66.7919 
 235   0.0000       2.473048        67.2951 
 236   0.0000       2.476343        67.3847 
 237   0.0000       2.481616        67.5282 
 238   0.0000       2.512227        68.3612 
 239   0.0000       2.521336        68.6090 
 240   0.0000       2.525878        68.7326 
 241   0.0000       2.532792        68.9208 
 242   0.0000       2.555374        69.5353 
 243   0.0000       2.574442        70.0541 
 244   0.0000       2.577235        70.1301 
 245   0.0000       2.601259        70.7839 
 246   0.0000       2.602137        70.8077 
 247   0.0000       2.613974        71.1299 
 248   0.0000       2.632075        71.6224 
 249   0.0000       2.646715        72.0208 
 250   0.0000       2.649097        72.0856 
 251   0.0000       2.657514        72.3146 
 252   0.0000       2.739680        74.5505 
 253   0.0000       2.742495        74.6271 
 254   0.0000       2.759314        75.0848 
 255   0.0000       2.762825        75.1803 
 256   0.0000       2.812501        76.5320 
 257   0.0000       2.814874        76.5966 
 258   0.0000       2.823135        76.8214 
 259   0.0000       2.835049        77.1456 
 260   0.0000       2.860123        77.8279 
 261   0.0000       2.900461        78.9256 
 262   0.0000       2.935561        79.8807 
 263   0.0000       2.954825        80.4049 
 264   0.0000       2.960951        80.5716 
 265   0.0000       2.985381        81.2363 
 266   0.0000       2.990410        81.3732 
 267   0.0000       2.996405        81.5363 
 268   0.0000       3.003183        81.7208 
 269   0.0000       3.010709        81.9255 
 270   0.0000       3.018622        82.1409 
 271   0.0000       3.020968        82.2047 
 272   0.0000       3.033762        82.5529 
 273   0.0000       3.070337        83.5481 
 274   0.0000       3.071593        83.5823 
 275   0.0000       3.077261        83.7365 
 276   0.0000       3.084195        83.9252 
 277   0.0000       3.098386        84.3114 
 278   0.0000       3.103998        84.4641 
 279   0.0000       3.120941        84.9251 
 280   0.0000       3.150118        85.7191 
 281   0.0000       3.207948        87.2927 
 282   0.0000       3.210917        87.3735 
 283   0.0000       3.319006        90.3147 
 284   0.0000       3.489019        94.9410 
 285   0.0000       3.599872        97.9575 
 286   0.0000       3.630763        98.7981 

                    ********************************
                    * MULLIKEN POPULATION ANALYSIS *
                    ********************************

-----------------------
MULLIKEN ATOMIC CHARGES
-----------------------
   0 N :   -0.156497
   1 C :    0.221614
   2 N :   -0.156309
   3 H :    0.109859
   4 C :    0.069638
   5 C :    0.069584
   6 C :   -0.260210
   7 C :   -0.259219
   8 C :    0.074064
   9 C :    0.030273
  10 C :    0.030511
  11 C :    0.030515
  12 C :    0.074528
  13 C :    0.026907
  14 H :    0.084020
  15 H :    0.084183
  16 H :    0.044901
  17 H :    0.050569
  18 H :    0.043545
  19 H :    0.050979
  20 H :    0.055565
  21 H :    0.053086
  22 H :    0.043736
  23 H :    0.050776
  24 H :    0.044600
  25 H :    0.053662
  26 H :    0.052611
  27 H :    0.057220
  28 H :    0.053747
  29 H :    0.056702
  30 H :    0.052374
  31 H :    0.053516
  32 H :    0.056419
  33 H :    0.052532
Sum of atomic charges:    1.0000000

--------------------------------
MULLIKEN REDUCED ORBITAL CHARGES
--------------------------------
  0 N s       :     3.381624  s :     3.381624
      pz      :     1.433796  p :     3.741668
      px      :     1.157064
      py      :     1.150808
      dz2     :     0.003168  d :     0.033205
      dxz     :     0.005540
      dyz     :     0.006250
      dx2y2   :     0.007862
      dxy     :     0.010385
  1 C s       :     3.094072  s :     3.094072
      pz      :     0.938279  p :     2.617130
      px      :     0.773750
      py      :     0.905101
      dz2     :     0.005535  d :     0.067184
      dxz     :     0.016718
      dyz     :     0.006618
      dx2y2   :     0.016609
      dxy     :     0.021704
  2 N s       :     3.381603  s :     3.381603
      pz      :     1.435544  p :     3.741463
      px      :     1.154260
      py      :     1.151659
      dz2     :     0.003017  d :     0.033244
      dxz     :     0.005635
      dyz     :     0.006351
      dx2y2   :     0.007968
      dxy     :     0.010272
  3 H s       :     0.864530  s :     0.864530
      pz      :     0.005307  p :     0.025611
      px      :     0.001663
      py      :     0.018641
  4 C s       :     3.139582  s :     3.139582
      pz      :     1.021619  p :     2.742342
      px      :     0.909292
      py      :     0.811430
      dz2     :     0.004710  d :     0.048438
      dxz     :     0.007631
      dyz     :     0.008329
      dx2y2   :     0.015006
      dxy     :     0.012763
  5 C s       :     3.140818  s :     3.140818
      pz      :     1.023317  p :     2.741096
      px      :     0.906945
      py      :     0.810834
      dz2     :     0.004448  d :     0.048501
      dxz     :     0.007905
      dyz     :     0.008253
      dx2y2   :     0.015033
      dxy     :     0.012862
  6 C s       :     3.232757  s :     3.232757
      pz      :     1.085521  p :     2.963027
      px      :     0.813888
      py      :     1.063619
      dz2     :     0.014623  d :     0.064425
      dxz     :     0.009274
      dyz     :     0.012870
      dx2y2   :     0.014264
      dxy     :     0.013395
  7 C s       :     3.232104  s :     3.232104
      pz      :     1.087118  p :     2.962697
      px      :     0.811790
      py      :     1.063789
      dz2     :     0.014150  d :     0.064418
      dxz     :     0.010014
      dyz     :     0.012778
      dx2y2   :     0.014439
      dxy     :     0.013036
  8 C s       :     2.972298  s :     2.972298
      pz      :     0.919470  p :     2.927495
      px      :     1.015750
      py      :     0.992274
      dz2     :     0.006941  d :     0.026143
      dxz     :     0.001642
      dyz     :     0.007751
      dx2y2   :     0.003902
      dxy     :     0.005908
  9 C s       :     2.984157  s :     2.984157
      pz      :     1.014885  p :     2.959651
      px      :     0.985510
      py      :     0.959256
      dz2     :     0.005241  d :     0.025919
      dxz     :     0.001643
      dyz     :     0.008664
      dx2y2   :     0.004034
      dxy     :     0.006337
 10 C s       :     2.987707  s :     2.987707
      pz      :     0.950288  p :     2.955903
      px      :     1.035083
      py      :     0.970532
      dz2     :     0.006904  d :     0.025880
      dxz     :     0.002115
      dyz     :     0.006669
      dx2y2   :     0.005282
      dxy     :     0.004910
 11 C s       :     2.984753  s :     2.984753
      pz      :     1.009887  p :     2.958826
      px      :     0.989045
      py      :     0.959894
      dz2     :     0.004475  d :     0.025905
      dxz     :     0.002801
      dyz     :     0.008504
      dx2y2   :     0.003985
      dxy     :     0.006140
 12 C s       :     2.971986  s :     2.971986
      pz      :     0.920235  p :     2.927341
      px      :     1.008439
      py      :     0.998667
      dz2     :     0.006224  d :     0.026144
      dxz     :     0.002341
      dyz     :     0.008021
      dx2y2   :     0.004202
      dxy     :     0.005357
 13 C s       :     2.988664  s :     2.988664
      pz      :     0.956526  p :     2.958572
      px      :     1.038092
      py      :     0.963955
      dz2     :     0.005923  d :     0.025857
      dxz     :     0.003197
      dyz     :     0.006771
      dx2y2   :     0.005589
      dxy     :     0.004378
 14 H s       :     0.890401  s :     0.890401
      pz      :     0.005161  p :     0.025578
      px      :     0.008831
      py      :     0.011587
 15 H s       :     0.890250  s :     0.890250
      pz      :     0.005486  p :     0.025567
      px      :     0.008527
      py      :     0.011555
 16 H s       :     0.930829  s :     0.930829
      pz      :     0.010039  p :     0.024271
      px      :     0.005123
      py      :     0.009109
 17 H s       :     0.924702  s :     0.924702
      pz      :     0.004070  p :     0.024729
      px      :     0.014568
      py      :     0.006091
 18 H s       :     0.932111  s :     0.932111
      pz      :     0.004084  p :     0.024344
      px      :     0.008878
      py      :     0.011382
 19 H s       :     0.924324  s :     0.924324
      pz      :     0.004390  p :     0.024697
      px      :     0.007650
      py      :     0.012657
 20 H s       :     0.919668  s :     0.919668
      pz      :     0.004473  p :     0.024766
      px      :     0.015148
      py      :     0.005145
 21 H s       :     0.922617  s :     0.922617
      pz      :     0.012570  p :     0.024297
      px      :     0.005916
      py      :     0.005811
 22 H s       :     0.931952  s :     0.931952
      pz      :     0.004634  p :     0.024313
      px      :     0.008440
      py      :     0.011239
 23 H s       :     0.924497  s :     0.924497
      pz      :     0.004018  p :     0.024727
      px      :     0.014607
      py      :     0.006101
 24 H s       :     0.931106  s :     0.931106
      pz      :     0.009499  p :     0.024294
      px      :     0.004915
      py      :     0.009880
 25 H s       :     0.921733  s :     0.921733
      pz      :     0.011517  p :     0.024605
      px      :     0.004638
      py      :     0.008451
 26 H s       :     0.923014  s :     0.923014
      pz      :     0.012301  p :     0.024375
      px      :     0.004883
      py      :     0.007192
 27 H s       :     0.918038  s :     0.918038
      pz      :     0.005275  p :     0.024742
      px      :     0.014097
      py      :     0.005370
 28 H s       :     0.921620  s :     0.921620
      pz      :     0.010667  p :     0.024632
      px      :     0.004844
      py      :     0.009121
 29 H s       :     0.918545  s :     0.918545
      pz      :     0.005550  p :     0.024753
      px      :     0.013819
      py      :     0.005384
 30 H s       :     0.923268  s :     0.923268
      pz      :     0.012159  p :     0.024359
      px      :     0.005548
      py      :     0.006651
 31 H s       :     0.922169  s :     0.922169
      pz      :     0.012348  p :     0.024316
      px      :     0.006743
      py      :     0.005225
 32 H s       :     0.918819  s :     0.918819
      pz      :     0.004866  p :     0.024762
      px      :     0.014881
      py      :     0.005016
 33 H s       :     0.922795  s :     0.922795
      pz      :     0.004969  p :     0.024673
      px      :     0.007260
      py      :     0.012444


                     *******************************
                     * LOEWDIN POPULATION ANALYSIS *
                     *******************************

----------------------
LOEWDIN ATOMIC CHARGES
----------------------
   0 N :    0.113470
   1 C :    0.122121
   2 N :    0.114016
   3 H :    0.055265
   4 C :    0.017449
   5 C :    0.017843
   6 C :    0.013389
   7 C :    0.013491
   8 C :   -0.038312
   9 C :   -0.041365
  10 C :   -0.041880
  11 C :   -0.041167
  12 C :   -0.038311
  13 C :   -0.042290
  14 H :    0.053466
  15 H :    0.053501
  16 H :    0.033566
  17 H :    0.040101
  18 H :    0.032108
  19 H :    0.033538
  20 H :    0.043583
  21 H :    0.036171
  22 H :    0.032344
  23 H :    0.040134
  24 H :    0.033281
  25 H :    0.034435
  26 H :    0.036238
  27 H :    0.044692
  28 H :    0.034359
  29 H :    0.044280
  30 H :    0.036234
  31 H :    0.036231
  32 H :    0.044099
  33 H :    0.033919

-------------------------------
LOEWDIN REDUCED ORBITAL CHARGES
-------------------------------
  0 N s       :     3.046059  s :     3.046059
      pz      :     1.362905  p :     3.763412
      px      :     1.192926
      py      :     1.207581
      dz2     :     0.006090  d :     0.077059
      dxz     :     0.010025
      dyz     :     0.012245
      dx2y2   :     0.021555
      dxy     :     0.027145
  1 C s       :     2.826879  s :     2.826879
      pz      :     0.965339  p :     2.892976
      px      :     0.901473
      py      :     1.026164
[...]
     76       0.176378  -0.080512  -0.095681  -0.012667  -0.012393  -0.001467
     77      -0.188765   0.086124   0.102349   0.014073   0.014001   0.001769
     78      -0.107528   0.059395   0.070212  -0.001689  -0.001589  -0.000034
     79       0.111460  -0.061926  -0.073207   0.001870   0.001772   0.000160
     80       0.249990  -0.137610  -0.162716   0.003400   0.003109   0.000136
     81      -0.599553   0.310287   0.368567   0.002436   0.002623  -0.000041
     82       0.157274  -0.080525  -0.095530  -0.000933  -0.000924  -0.000252
     83      -0.104456   0.054344   0.064565   0.000386   0.000415  -0.000072
     84      -0.000532  -0.002758   0.002303  -0.000084   0.000030  -0.000047
     85       0.019507   0.094245  -0.078466   0.012270  -0.009005  -0.000949
     86      -0.014311  -0.069608   0.057950  -0.009155   0.006822   0.000836
     87       0.041115   0.286719  -0.238648   0.002146  -0.001891   0.000018
     88       0.009793   0.067747  -0.056300   0.000849  -0.000638  -0.000184
     89      -0.009928  -0.070089   0.058369  -0.000546   0.000481  -0.000105
     90       0.006911   0.070722  -0.058572  -0.001878   0.001283  -0.000055
     91       0.002777   0.029721  -0.024612  -0.000895   0.000610   0.000002
     92       0.012431   0.125435  -0.103912  -0.003178   0.002116  -0.000038
     93      -0.009510   0.086741  -0.072593   0.000023   0.000292  -0.003226
     94      -0.003985   0.035582  -0.029815   0.000087   0.000020  -0.001072
     95      -0.018931   0.170557  -0.142847  -0.000076   0.000235  -0.003593
     96      -0.052622   0.483555  -0.404334  -0.001233   0.000258  -0.003458
     97      -0.012460   0.116090  -0.097094  -0.000576   0.000167  -0.000028
     98       0.011000  -0.102191   0.085464   0.000476  -0.000124   0.000076
     99      -0.008554   0.078135  -0.065257   0.000012   0.000374  -0.003684
    100       0.017140  -0.154922   0.129500   0.000125  -0.000505   0.005129
    101       0.009754  -0.087653   0.073286  -0.000041  -0.000195   0.002866


-----------
IR SPECTRUM
-----------

 Mode   freq       eps      Int      T**2         TX        TY        TZ
       cm**-1   L/(mol*cm) km/mol    a.u.
----------------------------------------------------------------------------
  6:     36.15   0.000001    0.00  0.000005  (-0.000219 -0.002107 -0.000674)
  7:     45.72   0.000000    0.00  0.000002  ( 0.000934 -0.000555  0.001056)
  8:    118.35   0.000045    0.23  0.000118  ( 0.000753  0.007604  0.007705)
  9:    144.03   0.000018    0.09  0.000039  ( 0.000532 -0.005187  0.003463)
 10:    158.00   0.000001    0.00  0.000002  (-0.001045  0.000805  0.000127)
 11:    238.39   0.000008    0.04  0.000010  (-0.001758  0.000620 -0.002596)
 12:    258.36   0.000003    0.02  0.000004  (-0.000340 -0.000788  0.001711)
 13:    270.66   0.000003    0.01  0.000003  ( 0.000301  0.001132 -0.001277)
 14:    276.70   0.000002    0.01  0.000003  ( 0.000048  0.000318 -0.001609)
 15:    291.57   0.000018    0.09  0.000019  ( 0.001884 -0.003341  0.002036)
 16:    299.31   0.000023    0.12  0.000024  (-0.001967 -0.003648  0.002648)
 17:    332.77   0.000025    0.13  0.000023  (-0.002221 -0.003476 -0.002545)
 18:    342.97   0.000077    0.39  0.000070  ( 0.001406  0.003943  0.007271)
 19:    347.49   0.000007    0.03  0.000006  ( 0.000065  0.000722  0.002361)
 20:    356.99   0.000017    0.09  0.000015  ( 0.000822 -0.002378  0.002984)
 21:    363.39   0.000001    0.00  0.000001  ( 0.000516 -0.000756 -0.000094)
 22:    370.58   0.000004    0.02  0.000003  ( 0.001351 -0.001233 -0.000247)
 23:    406.76   0.000009    0.05  0.000007  (-0.002520  0.000071  0.000958)
 24:    449.04   0.000016    0.08  0.000011  ( 0.001767  0.001514  0.002432)
 25:    470.62   0.000006    0.03  0.000004  ( 0.001950 -0.000397 -0.000189)
 26:    473.57   0.000012    0.06  0.000008  (-0.000177 -0.002562  0.000995)
 27:    521.91   0.000079    0.40  0.000047  ( 0.006784 -0.000209 -0.000930)
 28:    576.20   0.000162    0.82  0.000088  ( 0.000844 -0.007352  0.005761)
 29:    639.35   0.001403    7.09  0.000685  ( 0.026111  0.001229  0.001310)
 30:    682.06   0.015177   76.70  0.006944  ( 0.004947  0.049267  0.067023)
 31:    689.69   0.000020    0.10  0.000009  (-0.001991  0.001756  0.001353)
 32:    762.66   0.007704   38.93  0.003152  (-0.000711 -0.032257 -0.045950)
 33:    847.26   0.000020    0.10  0.000007  ( 0.000899  0.001846 -0.001733)
 34:    851.39   0.000193    0.98  0.000071  (-0.008402 -0.000249 -0.000504)
 35:    897.85   0.005528   27.94  0.001921  ( 0.001073 -0.026264 -0.035077)
 36:    913.91   0.000007    0.03  0.000002  (-0.000546 -0.001408 -0.000228)
 37:    949.70   0.000698    3.53  0.000229  ( 0.003585  0.007805  0.012468)
 38:    951.11   0.000539    2.72  0.000177  ( 0.000106  0.007759  0.010796)
 39:    956.98   0.000901    4.55  0.000294  (-0.000581  0.014700 -0.008789)
 40:    959.50   0.000630    3.18  0.000205  (-0.000887 -0.011495  0.008479)
 41:    973.88   0.000007    0.04  0.000002  ( 0.000009 -0.001158 -0.000996)
 42:    974.95   0.000042    0.21  0.000014  ( 0.001332  0.002851  0.001901)
 43:   1022.20   0.001472    7.44  0.000449  (-0.021184  0.000706  0.000490)
 44:   1039.86   0.000227    1.15  0.000068  ( 0.000388  0.006249 -0.005377)
 45:   1052.84   0.000048    0.24  0.000014  (-0.001524  0.002808 -0.002033)
 46:   1054.54   0.000096    0.48  0.000028  (-0.005319  0.000012 -0.000308)
 47:   1055.31   0.000022    0.11  0.000006  (-0.000863 -0.001601 -0.001750)
 48:   1056.41   0.000120    0.61  0.000035  (-0.000500  0.004520  0.003847)
 49:   1116.41   0.004301   21.74  0.001202  (-0.005854  0.027555 -0.020219)
 50:   1149.49   0.016807   84.93  0.004563  ( 0.067405  0.002060 -0.003863)
 51:   1222.83   0.001452    7.34  0.000370  ( 0.004536 -0.016277  0.009215)
 52:   1238.66   0.080924  408.96  0.020388  (-0.142610  0.000875  0.007033)
 53:   1266.69   0.000366    1.85  0.000090  ( 0.009366  0.000555 -0.001504)
 54:   1270.49   0.000751    3.79  0.000184  ( 0.000600  0.011010 -0.007925)
 55:   1279.59   0.000168    0.85  0.000041  ( 0.006148 -0.001147  0.001350)
 56:   1281.56   0.006851   34.62  0.001668  (-0.006983 -0.023769 -0.032474)
 57:   1304.06   0.000061    0.31  0.000015  ( 0.003719 -0.000732 -0.000543)
 58:   1358.22   0.004273   21.59  0.000982  (-0.000730  0.025528 -0.018153)
 59:   1395.97   0.004846   24.49  0.001083  ( 0.005099  0.022575  0.023404)
 60:   1397.92   0.005709   28.85  0.001274  ( 0.000607  0.023059  0.027246)
 61:   1400.48   0.001432    7.24  0.000319  (-0.008683  0.010124 -0.011886)
 62:   1401.66   0.012107   61.18  0.002695  (-0.003724 -0.038372  0.034772)
 63:   1413.71   0.002651   13.40  0.000585  (-0.024109  0.001507 -0.001266)
 64:   1413.91   0.000453    2.29  0.000100  ( 0.004692 -0.007502  0.004661)
 65:   1443.21   0.000132    0.67  0.000029  (-0.005005 -0.001786  0.000568)
 66:   1445.41   0.000169    0.85  0.000036  (-0.003037  0.003324  0.004024)
 67:   1446.48   0.000234    1.18  0.000050  (-0.007007  0.000932  0.000668)
 68:   1449.12   0.000003    0.01  0.000001  (-0.000718 -0.000194 -0.000254)
 69:   1451.12   0.000030    0.15  0.000006  (-0.000002  0.001969  0.001576)
 70:   1454.14   0.000033    0.16  0.000007  (-0.001601 -0.000535  0.002038)
 71:   1456.95   0.000696    3.52  0.000149  (-0.012093  0.000060  0.001693)
 72:   1463.09   0.004168   21.07  0.000889  (-0.000892 -0.024959  0.016290)
 73:   1471.60   0.002627   13.28  0.000557  ( 0.003821  0.014432  0.018283)
 74:   1472.68   0.000841    4.25  0.000178  (-0.007664 -0.000655 -0.010914)
 75:   1476.86   0.000267    1.35  0.000056  ( 0.000746 -0.003550 -0.006576)
 76:   1481.21   0.000643    3.25  0.000135  (-0.002704 -0.010606  0.003955)
 77:   1482.37   0.002110   10.66  0.000444  ( 0.020314 -0.004773 -0.002939)
 78:   1490.86   0.000076    0.38  0.000016  (-0.002332 -0.002598  0.001909)
 79:   1637.27   0.036619  185.06  0.006980  (-0.083456  0.000153  0.003829)
 80:   1651.70   0.002762   13.96  0.000522  (-0.003832  0.017768 -0.013834)
 81:   3069.50   0.003108   15.71  0.000316  (-0.003974  0.004631  0.016696)
 82:   3071.49   0.003102   15.67  0.000315  ( 0.007296 -0.016022  0.002275)
 83:   3071.89   0.003322   16.79  0.000337  (-0.004022 -0.004325 -0.017394)
 84:   3072.60   0.003031   15.32  0.000308  (-0.006189 -0.015924  0.003988)
 85:   3075.69   0.000169    0.85  0.000017  ( 0.004012  0.000419  0.000937)
 86:   3076.29   0.000567    2.87  0.000058  ( 0.004051  0.005103  0.003884)
 87:   3174.79   0.001808    9.14  0.000178  (-0.003295 -0.011408  0.006058)
 88:   3175.25   0.001697    8.57  0.000167  (-0.000044 -0.009385 -0.008870)
 89:   3176.72   0.002930   14.81  0.000288  (-0.002636 -0.014861 -0.007751)
 90:   3177.56   0.002489   12.58  0.000244  (-0.002750 -0.000671 -0.015375)
 91:   3179.18   0.003719   18.79  0.000365  ( 0.003650 -0.017521  0.006691)
 92:   3180.20   0.003059   15.46  0.000300  ( 0.003108  0.005310 -0.016195)
 93:   3183.97   0.001493    7.54  0.000146  (-0.006103 -0.000820 -0.010411)
 94:   3184.63   0.001029    5.20  0.000101  (-0.000095 -0.007625 -0.006534)
 95:   3185.33   0.000926    4.68  0.000091  ( 0.004356  0.005724 -0.006243)
 96:   3185.49   0.000994    5.03  0.000097  ( 0.000243 -0.009515  0.002611)
 97:   3189.87   0.009655   48.79  0.000945  (-0.030645  0.000940  0.002129)
 98:   3189.99   0.000559    2.82  0.000055  (-0.002743  0.006152 -0.003046)
 99:   3306.17   0.004670   23.60  0.000441  (-0.020961  0.001158 -0.000387)
100:   3323.44   0.005971   30.17  0.000561  (-0.001651 -0.018793  0.014308)
101:   3338.63   0.008373   42.32  0.000783  (-0.000404  0.022245 -0.016961)

* The epsilon (eps) is given for a Dirac delta lineshape.
** The dipole moment derivative (T) already includes vibrational overlap.

The first frequency considered to be a vibration is 6
The total number of vibrations considered is 96


--------------------------
THERMOCHEMISTRY AT 298.15K
--------------------------

Temperature         ... 298.15 K
Pressure            ... 1.00 atm
Total Mass          ... 181.30 AMU

Throughout the following assumptions are being made:
  (1) The electronic state is orbitally nondegenerate
  (2) There are no thermally accessible electronically excited states
  (3) Hindered rotations indicated by low frequency modes are not
      treated as such but are treated as vibrations and this may
      cause some error
  (4) All equations used are the standard statistical mechanics
      equations for an ideal gas
  (5) All vibrations are strictly harmonic

freq.      36.15  E(vib)   ...       0.54 
freq.      45.72  E(vib)   ...       0.53 
freq.     118.35  E(vib)   ...       0.44 
freq.     144.03  E(vib)   ...       0.41 
freq.     158.00  E(vib)   ...       0.40 
freq.     238.39  E(vib)   ...       0.32 
freq.     258.36  E(vib)   ...       0.30 
freq.     270.66  E(vib)   ...       0.29 
freq.     276.70  E(vib)   ...       0.28 
freq.     291.57  E(vib)   ...       0.27 
freq.     299.31  E(vib)   ...       0.26 
freq.     332.77  E(vib)   ...       0.24 
freq.     342.97  E(vib)   ...       0.23 
freq.     347.49  E(vib)   ...       0.23 
freq.     356.99  E(vib)   ...       0.22 
freq.     363.39  E(vib)   ...       0.22 
freq.     370.58  E(vib)   ...       0.21 
freq.     406.76  E(vib)   ...       0.19 
freq.     449.04  E(vib)   ...       0.17 
freq.     470.62  E(vib)   ...       0.15 
freq.     473.57  E(vib)   ...       0.15 
freq.     521.91  E(vib)   ...       0.13 
freq.     576.20  E(vib)   ...       0.11 
freq.     639.35  E(vib)   ...       0.09 
freq.     682.06  E(vib)   ...       0.08 
freq.     689.69  E(vib)   ...       0.07 
freq.     762.66  E(vib)   ...       0.06 
freq.     847.26  E(vib)   ...       0.04 
freq.     851.39  E(vib)   ...       0.04 
freq.     897.85  E(vib)   ...       0.03 
freq.     913.91  E(vib)   ...       0.03 
freq.     949.70  E(vib)   ...       0.03 
freq.     951.11  E(vib)   ...       0.03 
freq.     956.98  E(vib)   ...       0.03 
freq.     959.50  E(vib)   ...       0.03 
freq.     973.88  E(vib)   ...       0.03 
freq.     974.95  E(vib)   ...       0.03 
freq.    1022.20  E(vib)   ...       0.02 
freq.    1039.86  E(vib)   ...       0.02 
freq.    1052.84  E(vib)   ...       0.02 
freq.    1054.54  E(vib)   ...       0.02 
freq.    1055.31  E(vib)   ...       0.02 
freq.    1056.41  E(vib)   ...       0.02 
freq.    1116.41  E(vib)   ...       0.01 
freq.    1149.49  E(vib)   ...       0.01 
freq.    1222.83  E(vib)   ...       0.01 
freq.    1238.66  E(vib)   ...       0.01 
freq.    1266.69  E(vib)   ...       0.01 
freq.    1270.49  E(vib)   ...       0.01 
freq.    1279.59  E(vib)   ...       0.01 
freq.    1281.56  E(vib)   ...       0.01 
freq.    1304.06  E(vib)   ...       0.01 
freq.    1358.22  E(vib)   ...       0.01 
freq.    1395.97  E(vib)   ...       0.00 
freq.    1397.92  E(vib)   ...       0.00 
freq.    1400.48  E(vib)   ...       0.00 
freq.    1401.66  E(vib)   ...       0.00 
freq.    1413.71  E(vib)   ...       0.00 
freq.    1413.91  E(vib)   ...       0.00 
freq.    1443.21  E(vib)   ...       0.00 
freq.    1445.41  E(vib)   ...       0.00 
freq.    1446.48  E(vib)   ...       0.00 
freq.    1449.12  E(vib)   ...       0.00 
freq.    1451.12  E(vib)   ...       0.00 
freq.    1454.14  E(vib)   ...       0.00 
freq.    1456.95  E(vib)   ...       0.00 
freq.    1463.09  E(vib)   ...       0.00 
freq.    1471.60  E(vib)   ...       0.00 
freq.    1472.68  E(vib)   ...       0.00 
freq.    1476.86  E(vib)   ...       0.00 
freq.    1481.21  E(vib)   ...       0.00 
freq.    1482.37  E(vib)   ...       0.00 
freq.    1490.86  E(vib)   ...       0.00 
freq.    1637.27  E(vib)   ...       0.00 
freq.    1651.70  E(vib)   ...       0.00 
freq.    3069.50  E(vib)   ...       0.00 
freq.    3071.49  E(vib)   ...       0.00 
freq.    3071.89  E(vib)   ...       0.00 
freq.    3072.60  E(vib)   ...       0.00 
freq.    3075.69  E(vib)   ...       0.00 
freq.    3076.29  E(vib)   ...       0.00 
freq.    3174.79  E(vib)   ...       0.00 
freq.    3175.25  E(vib)   ...       0.00 
freq.    3176.72  E(vib)   ...       0.00 
freq.    3177.56  E(vib)   ...       0.00 
freq.    3179.18  E(vib)   ...       0.00 
freq.    3180.20  E(vib)   ...       0.00 
freq.    3183.97  E(vib)   ...       0.00 
freq.    3184.63  E(vib)   ...       0.00 
freq.    3185.33  E(vib)   ...       0.00 
freq.    3185.49  E(vib)   ...       0.00 
freq.    3189.87  E(vib)   ...       0.00 
freq.    3189.99  E(vib)   ...       0.00 
freq.    3306.17  E(vib)   ...       0.00 
freq.    3323.44  E(vib)   ...       0.00 
freq.    3338.63  E(vib)   ...       0.00 

------------
INNER ENERGY
------------

The inner energy is: U= E(el) + E(ZPE) + E(vib) + E(rot) + E(trans)
    E(el)   - is the total energy from the electronic structure calculation
              = E(kin-el) + E(nuc-el) + E(el-el) + E(nuc-nuc)
    E(ZPE)  - the the zero temperature vibrational energy from the frequency calculation
    E(vib)  - the the finite temperature correction to E(ZPE) due to population
              of excited vibrational states
    E(rot)  - is the rotational thermal energy
    E(trans)- is the translational thermal energy

Summary of contributions to the inner energy U:
Electronic energy                ...   -540.69434246 Eh
Zero point energy                ...      0.31155170 Eh     195.50 kcal/mol
Thermal vibrational correction   ...      0.01144078 Eh       7.18 kcal/mol
Thermal rotational correction    ...      0.00141627 Eh       0.89 kcal/mol
Thermal translational correction ...      0.00141627 Eh       0.89 kcal/mol
-----------------------------------------------------------------------
Total thermal energy                   -540.36851745 Eh


Summary of corrections to the electronic energy:
(perhaps to be used in another calculation)
Total thermal correction                  0.01427332 Eh       8.96 kcal/mol
Non-thermal (ZPE) correction              0.31155170 Eh     195.50 kcal/mol
-----------------------------------------------------------------------
Total correction                          0.32582501 Eh     204.46 kcal/mol


--------
ENTHALPY
--------

The enthalpy is H = U + kB*T
                kB is Boltzmann's constant
Total free energy                 ...   -540.36851745 Eh 
Thermal Enthalpy correction       ...      0.00094421 Eh       0.59 kcal/mol
-----------------------------------------------------------------------
Total Enthalpy                    ...   -540.36757324 Eh


Note: Only C1 symmetry has been detected, increase convergence thresholds 
      if your molecule has a higher symmetry. Symmetry factor of 1.0 is   
      used for the rotational entropy correction. 
 

Note: Rotational entropy computed according to Herzberg 
Infrared and Raman Spectra, Chapter V,1, Van Nostrand Reinhold, 1945 
Point Group:  C1, Symmetry Number:   1  
Rotational constants in cm-1:     0.055426     0.014800     0.013831 

Vibrational entropy computed according to the QRRHO of S. Grimme
Chem.Eur.J. 2012 18 9955


-------
ENTROPY
-------

The entropy contributions are T*S = T*(S(el)+S(vib)+S(rot)+S(trans))
     S(el)   - electronic entropy
     S(vib)  - vibrational entropy
     S(rot)  - rotational entropy
     S(trans)- translational entropy
The entropies will be listed as multiplied by the temperature to get
units of energy

Electronic entropy                ...      0.00000000 Eh      0.00 kcal/mol
Vibrational entropy               ...      0.01914916 Eh     12.02 kcal/mol
Rotational entropy                ...      0.01488635 Eh      9.34 kcal/mol
Translational entropy             ...      0.01971392 Eh     12.37 kcal/mol
-----------------------------------------------------------------------
Final entropy term                ...      0.05374943 Eh     33.73 kcal/mol

In case the symmetry of your molecule has not been determined correctly
or in case you have a reason to use a different symmetry number we print 
out the resulting rotational entropy values for sn=1,12 :
 --------------------------------------------------------
|  sn= 1 | S(rot)=       0.01488635 Eh      9.34 kcal/mol|
|  sn= 2 | S(rot)=       0.01423189 Eh      8.93 kcal/mol|
|  sn= 3 | S(rot)=       0.01384906 Eh      8.69 kcal/mol|
|  sn= 4 | S(rot)=       0.01357743 Eh      8.52 kcal/mol|
|  sn= 5 | S(rot)=       0.01336675 Eh      8.39 kcal/mol|
|  sn= 6 | S(rot)=       0.01319460 Eh      8.28 kcal/mol|
|  sn= 7 | S(rot)=       0.01304905 Eh      8.19 kcal/mol|
|  sn= 8 | S(rot)=       0.01292298 Eh      8.11 kcal/mol|
|  sn= 9 | S(rot)=       0.01281177 Eh      8.04 kcal/mol|
|  sn=10 | S(rot)=       0.01271229 Eh      7.98 kcal/mol|
|  sn=11 | S(rot)=       0.01262230 Eh      7.92 kcal/mol|
|  sn=12 | S(rot)=       0.01254014 Eh      7.87 kcal/mol|
 --------------------------------------------------------


-------------------
GIBBS FREE ENERGY
-------------------

The Gibbs free energy is G = H - T*S

Total enthalpy                    ...   -540.36757324 Eh 
Total entropy correction          ...     -0.05374943 Eh    -33.73 kcal/mol
-----------------------------------------------------------------------
Final Gibbs free energy         ...   -540.42132267 Eh

For completeness - the Gibbs free energy minus the electronic energy
G-E(el)                           ...      0.27301979 Eh    171.32 kcal/mol


Timings for individual modules:

Sum of individual times         ...    14381.813 sec (= 239.697 min)
GTO integral calculation        ...        8.184 sec (=   0.136 min)   0.1 %
SCF iterations                  ...     9066.475 sec (= 151.108 min)  63.0 %
SCF Gradient evaluation         ...     2437.933 sec (=  40.632 min)  17.0 %
Geometry relaxation             ...        1.688 sec (=   0.028 min)   0.0 %
Analytical frequency calculation...     2867.534 sec (=  47.792 min)  19.9 %
                             ****ORCA TERMINATED NORMALLY****
TOTAL RUN TIME: 0 days 3 hours 59 minutes 44 seconds 919 msec
