
                                 *****************
                                 * O   R   C   A *
                                 *****************

                                            #,                                       
                                            ###                                      
                                            ####                                     
                                            #####                                    
                                            ######                                   
                                           ########,                                 
                                     ,,################,,,,,                         
                               ,,#################################,,                 
                          ,,##########################################,,             
                       ,#########################################, ''#####,          
                    ,#############################################,,   '####,        
                  ,##################################################,,,,####,       
                ,###########''''           ''''###############################       
              ,#####''   ,,,,##########,,,,          '''####'''          '####       
            ,##' ,,,,###########################,,,                        '##       
           ' ,,###''''                  '''############,,,                           
         ,,##''                                '''############,,,,        ,,,,,,###''
      ,#''                                            '''#######################'''  
     '                                                          ''''####''''         
             ,#######,   #######,   ,#######,      ##                                
            ,#'     '#,  ##    ##  ,#'     '#,    #''#        ######   ,####,        
            ##       ##  ##   ,#'  ##            #'  '#       #        #'  '#        
            ##       ##  #######   ##           ,######,      #####,   #    #        
            '#,     ,#'  ##    ##  '#,     ,#' ,#      #,         ##   #,  ,#        
             '#######'   ##     ##  '#######'  #'      '#     #####' # '####'        



                  #######################################################
                  #                        -***-                        #
                  #          Department of theory and spectroscopy      #
                  #    Directorship and core code : Frank Neese         #
                  #        Max Planck Institute fuer Kohlenforschung    #
                  #                Kaiser Wilhelm Platz 1               #
                  #                 D-45470 Muelheim/Ruhr               #
                  #                      Germany                        #
                  #                                                     #
                  #                  All rights reserved                #
                  #                        -***-                        #
                  #######################################################


                         Program Version 5.0.4 -  RELEASE  -


 With contributions from (in alphabetic order):
   Daniel Aravena         : Magnetic Suceptibility
   Michael Atanasov       : Ab Initio Ligand Field Theory (pilot matlab implementation)
   Alexander A. Auer      : GIAO ZORA, VPT2 properties, NMR spectrum
   Ute Becker             : Parallelization
   Giovanni Bistoni       : ED, misc. LED, open-shell LED, HFLD
   Martin Brehm           : Molecular dynamics
   Dmytro Bykov           : SCF Hessian
   Vijay G. Chilkuri      : MRCI spin determinant printing, contributions to CSF-ICE
   Dipayan Datta          : RHF DLPNO-CCSD density
   Achintya Kumar Dutta   : EOM-CC, STEOM-CC
   Dmitry Ganyushin       : Spin-Orbit,Spin-Spin,Magnetic field MRCI
   Miquel Garcia          : C-PCM and meta-GGA Hessian, CC/C-PCM, Gaussian charge scheme
   Yang Guo               : DLPNO-NEVPT2, F12-NEVPT2, CIM, IAO-localization
   Andreas Hansen         : Spin unrestricted coupled pair/coupled cluster methods
   Benjamin Helmich-Paris : MC-RPA, TRAH-SCF, COSX integrals
   Lee Huntington         : MR-EOM, pCC
   Robert Izsak           : Overlap fitted RIJCOSX, COSX-SCS-MP3, EOM
   Marcus Kettner         : VPT2
   Christian Kollmar      : KDIIS, OOCD, Brueckner-CCSD(T), CCSD density, CASPT2, CASPT2-K
   Simone Kossmann        : Meta GGA functionals, TD-DFT gradient, OOMP2, MP2 Hessian
   Martin Krupicka        : Initial AUTO-CI
   Lucas Lang             : DCDCAS
   Marvin Lechner         : AUTO-CI (C++ implementation), FIC-MRCC
   Dagmar Lenk            : GEPOL surface, SMD
   Dimitrios Liakos       : Extrapolation schemes; Compound Job, initial MDCI parallelization
   Dimitrios Manganas     : Further ROCIS development; embedding schemes
   Dimitrios Pantazis     : SARC Basis sets
   Anastasios Papadopoulos: AUTO-CI, single reference methods and gradients
   Taras Petrenko         : DFT Hessian,TD-DFT gradient, ASA, ECA, R-Raman, ABS, FL, XAS/XES, NRVS
   Peter Pinski           : DLPNO-MP2, DLPNO-MP2 Gradient
   Christoph Reimann      : Effective Core Potentials
   Marius Retegan         : Local ZFS, SOC
   Christoph Riplinger    : Optimizer, TS searches, QM/MM, DLPNO-CCSD(T), (RO)-DLPNO pert. Triples
   Tobias Risthaus        : Range-separated hybrids, TD-DFT gradient, RPA, STAB
   Michael Roemelt        : Original ROCIS implementation
   Masaaki Saitow         : Open-shell DLPNO-CCSD energy and density
   Barbara Sandhoefer     : DKH picture change effects
   Avijit Sen             : IP-ROCIS
   Kantharuban Sivalingam : CASSCF convergence, NEVPT2, FIC-MRCI
   Bernardo de Souza      : ESD, SOC TD-DFT
   Georgi Stoychev        : AutoAux, RI-MP2 NMR, DLPNO-MP2 response
   Willem Van den Heuvel  : Paramagnetic NMR
   Boris Wezisla          : Elementary symmetry handling
   Frank Wennmohs         : Technical directorship


 We gratefully acknowledge several colleagues who have allowed us to
 interface, adapt or use parts of their codes:
   Stefan Grimme, W. Hujo, H. Kruse, P. Pracht,  : VdW corrections, initial TS optimization,
                  C. Bannwarth, S. Ehlert          DFT functionals, gCP, sTDA/sTD-DF
   Ed Valeev, F. Pavosevic, A. Kumar             : LibInt (2-el integral package), F12 methods
   Garnet Chan, S. Sharma, J. Yang, R. Olivares  : DMRG
   Ulf Ekstrom                                   : XCFun DFT Library
   Mihaly Kallay                                 : mrcc  (arbitrary order and MRCC methods)
   Jiri Pittner, Ondrej Demel                    : Mk-CCSD
   Frank Weinhold                                : gennbo (NPA and NBO analysis)
   Christopher J. Cramer and Donald G. Truhlar   : smd solvation model
   Lars Goerigk                                  : TD-DFT with DH, B97 family of functionals
   V. Asgeirsson, H. Jonsson                     : NEB implementation
   FAccTs GmbH                                   : IRC, NEB, NEB-TS, DLPNO-Multilevel, CI-OPT
                                                   MM, QMMM, 2- and 3-layer-ONIOM, Crystal-QMMM,
                                                   LR-CPCM, SF, NACMEs, symmetry and pop. for TD-DFT,
                                                   nearIR, NL-DFT gradient (VV10), updates on ESD,
                                                   ML-optimized integration grids
   S Lehtola, MJT Oliveira, MAL Marques          : LibXC Library
   Liviu Ungur et al                             : ANISO software


 Your calculation uses the libint2 library for the computation of 2-el integrals
 For citations please refer to: http://libint.valeyev.net

 Your ORCA version has been built with support for libXC version: 5.1.0
 For citations please refer to: https://tddft.org/programs/libxc/

 This ORCA versions uses:
   CBLAS   interface :  Fast vector & matrix operations
   LAPACKE interface :  Fast linear algebra routines
   SCALAPACK package :  Parallel linear algebra routines
   Shared memory     :  Shared parallel matrices
   BLAS/LAPACK       :  OpenBLAS 0.3.15  USE64BITINT DYNAMIC_ARCH NO_AFFINITY SkylakeX SINGLE_THREADED
        Core in use  :  SkylakeX
   Copyright (c) 2011-2014, The OpenBLAS Project




***************************************
The coordinates will be read from file: 5_prot_aq_2.xyz
***************************************


Your calculation utilizes the atom-pairwise dispersion correction
based on tight binding partial charges (D4)
Cite in your paper:
E.Caldeweyher, C.Bannwarth, S.Grimme, J.Chem.Phys., (2017), 147, 034112.
E.Caldeweyher, S.Ehlert, A.Hansen, H.Neugebauer, S.Grimme, J.Chem.Phys., (2018), in progress.
   

XCFun DFT library Copyright 2009-2010 Ulf Ekstrom and contributors.
See http://admol.org/xcfun for more information.
This is free software; see the source code for copying conditions.
There is ABSOLUTELY NO WARRANTY; not even for MERCHANTABILITY or FITNESS FOR A PARTICULAR PURPOSE.
For details see the documentation.
Scientific users of this library should cite U. Ekstrom, L. Visscher, R. Bast, A. J. Thorvaldsen and K. Ruud;
J.Chem.Theor.Comp. 2010, DOI: 10.1021/ct100117s
XCFun Version 0.99 

================================================================================

----- Orbital basis set information -----
Your calculation utilizes the basis: def2-SVP
   F. Weigend and R. Ahlrichs, Phys. Chem. Chem. Phys. 7, 3297 (2005).

----- AuxJ basis set information -----
Your calculation utilizes the auxiliary basis: def2/J
   F. Weigend, Phys. Chem. Chem. Phys. 8, 1057 (2006).

================================================================================
                                        WARNINGS
                       Please study these warnings very carefully!
================================================================================


WARNING: Geometry Optimization
  ===> : Switching off AutoStart
         For restart on a previous wavefunction, please use MOREAD

INFO   : the flag for use of the SHARK integral package has been found!

================================================================================
                                       INPUT FILE
================================================================================
NAME = 5_prot_aq_2.inp
|  1> # ORCA 5.0.4 - /users/bwb16179/postgrad/2024_03/DFT_Crest_Conformers/Opt/prot/5_prot_aq_2.inp # write input file
|  2> # Basic Mode
|  3> #
|  4> ! Opt Freq wB97X Def2-SVP D4 SlowConv TightSCF Defgrid2 Def2/J RIJCOSX CPCM(Water)
|  5> 
|  6> 
|  7> 
|  8> %maxcore 4500
|  9> 
| 10> %geom
| 11> Maxiter 150
| 12> END
| 13> 
| 14> * xyzfile 1 1 5_prot_aq_2.xyz
| 15> 
| 16>                          ****END OF INPUT****
================================================================================

                       *****************************
                       * Geometry Optimization Run *
                       *****************************

Geometry optimization settings:
Update method            Update   .... BFGS
Choice of coordinates    CoordSys .... Z-matrix Internals
Initial Hessian          InHess   .... Almoef's Model

Convergence Tolerances:
Energy Change            TolE     ....  5.0000e-06 Eh
Max. Gradient            TolMAXG  ....  3.0000e-04 Eh/bohr
RMS Gradient             TolRMSG  ....  1.0000e-04 Eh/bohr
Max. Displacement        TolMAXD  ....  4.0000e-03 bohr
RMS Displacement         TolRMSD  ....  2.0000e-03 bohr
Strict Convergence                ....  False
------------------------------------------------------------------------------
                        ORCA OPTIMIZATION COORDINATE SETUP
------------------------------------------------------------------------------

The optimization will be done in new redundant internal coordinates
Making redundant internal coordinates   ...  (new redundants) done
Evaluating the initial hessian          ...  (Almloef) done
Evaluating the coordinates              ...  done
Calculating the B-matrix                .... done
Calculating the G-matrix                .... done
Diagonalizing the G-matrix              .... done
Small eigenvalue found = 9.605e-03
Small eigenvalue found = 2.473e-02
The first mode is                       ....   87
The number of degrees of freedom        ....   96

    -----------------------------------------------------------------
                    Redundant Internal Coordinates


    -----------------------------------------------------------------
         Definition                    Initial Value    Approx d2E/dq
    -----------------------------------------------------------------
      1. B(C   1,N   0)                  1.3319         0.692747   
      2. B(N   2,C   1)                  1.3282         0.702092   
      3. B(H   3,C   1)                  1.0698         0.387886   
      4. B(C   4,N   2)                  1.3622         0.619721   
      5. B(C   5,C   4)                  1.3605         0.696224   
      6. B(C   5,N   0)                  1.3607         0.623184   
      7. B(C   6,N   0)                  1.4757         0.408412   
      8. B(C   7,N   2)                  1.4736         0.411622   
      9. B(C   8,C   6)                  1.5300         0.373539   
     10. B(C   9,C   6)                  1.5251         0.380359   
     11. B(C  10,C   6)                  1.5300         0.373599   
     12. B(C  11,C   7)                  1.5297         0.373985   
     13. B(C  12,C   7)                  1.5297         0.373933   
     14. B(C  13,C   7)                  1.5256         0.379732   
     15. B(H  14,C   4)                  1.0694         0.388357   
     16. B(H  15,C   5)                  1.0688         0.389196   
     17. B(H  16,C   8)                  1.0866         0.364571   
     18. B(H  17,C   8)                  1.0877         0.363216   
     19. B(H  18,C   8)                  1.0858         0.365764   
     20. B(H  19,C  10)                  1.0866         0.364599   
     21. B(H  20,C  10)                  1.0857         0.365846   
     22. B(H  21,C  10)                  1.0876         0.363273   
     23. B(H  22,C  12)                  1.0863         0.365051   
     24. B(H  23,C  12)                  1.0877         0.363175   
     25. B(H  24,C  12)                  1.0857         0.365800   
     26. B(H  25,C   9)                  1.0872         0.363846   
     27. B(H  26,C   9)                  1.0872         0.363842   
     28. B(H  27,C   9)                  1.0861         0.365304   
     29. B(H  28,C  11)                  1.0877         0.363175   
     30. B(H  29,C  11)                  1.0862         0.365097   
     31. B(H  30,C  11)                  1.0857         0.365782   
     32. B(H  31,C  13)                  1.0875         0.363420   
     33. B(H  32,C  13)                  1.0875         0.363425   
     34. B(H  33,C  13)                  1.0861         0.365273   
     35. A(C   1,N   0,C   5)          107.4824         0.437445   
     36. A(C   1,N   0,C   6)          124.5325         0.405663   
     37. A(C   5,N   0,C   6)          127.9851         0.398169   
     38. A(N   0,C   1,H   3)          124.6599         0.361947   
     39. A(N   0,C   1,N   2)          110.0798         0.446976   
     40. A(N   2,C   1,H   3)          125.2603         0.362776   
     41. A(C   1,N   2,C   4)          107.4028         0.438063   
     42. A(C   1,N   2,C   7)          127.9506         0.407188   
     43. A(C   4,N   2,C   7)          124.6465         0.398327   
     44. A(C   5,C   4,H  14)          129.0835         0.364599   
     45. A(N   2,C   4,H  14)          123.3081         0.355224   
     46. A(N   2,C   4,C   5)          107.6084         0.440291   
     47. A(N   0,C   5,H  15)          123.6550         0.355690   
     48. A(C   4,C   5,H  15)          128.9184         0.364734   
     49. A(N   0,C   5,C   4)          107.4266         0.440734   
     50. A(N   0,C   6,C  10)          107.9850         0.366645   
     51. A(N   0,C   6,C   9)          109.7233         0.367774   
     52. A(C   8,C   6,C   9)          109.9776         0.364465   
     53. A(N   0,C   6,C   8)          107.9597         0.366635   
     54. A(C   9,C   6,C  10)          109.9740         0.364475   
     55. A(C   8,C   6,C  10)          111.1686         0.363350   
     56. A(C  12,C   7,C  13)          110.0526         0.364428   
     57. A(C  11,C   7,C  13)          110.0401         0.364437   
     58. A(N   2,C   7,C  13)          109.9135         0.368164   
     59. A(C  11,C   7,C  12)          111.1401         0.363479   
     60. A(N   2,C   7,C  12)          107.7988         0.367193   
     61. A(N   2,C   7,C  11)          107.8383         0.367202   
     62. A(C   6,C   8,H  18)          109.4386         0.325146   
     63. A(H  16,C   8,H  17)          108.7989         0.291799   
     64. A(C   6,C   8,H  17)          110.7107         0.324773   
     65. A(C   6,C   8,H  16)          111.7619         0.324972   
     66. A(H  17,C   8,H  18)          108.1202         0.291949   
     67. A(H  16,C   8,H  18)          107.9009         0.292120   
     68. A(H  26,C   9,H  27)          107.6550         0.291970   
     69. A(H  25,C   9,H  27)          107.6570         0.291971   
     70. A(C   6,C   9,H  27)          108.8823         0.326048   
     71. A(H  25,C   9,H  26)          109.6801         0.291787   
     72. A(C   6,C   9,H  26)          111.4089         0.325833   
     73. A(C   6,C   9,H  25)          111.4082         0.325833   
     74. A(H  20,C  10,H  21)          108.1244         0.291967   
     75. A(H  19,C  10,H  21)          108.7957         0.291810   
     76. A(C   6,C  10,H  21)          110.7135         0.324790   
     77. A(H  19,C  10,H  20)          107.8981         0.292134   
     78. A(C   6,C  10,H  20)          109.4313         0.325167   
     79. A(C   6,C  10,H  19)          111.7680         0.324985   
     80. A(H  29,C  11,H  30)          107.9424         0.292189   
     81. A(H  28,C  11,H  30)          108.2026         0.291946   
     82. A(C   7,C  11,H  30)          109.4271         0.325213   
     83. A(H  28,C  11,H  29)          108.7156         0.291860   
     84. A(C   7,C  11,H  29)          111.6788         0.325113   
     85. A(C   7,C  11,H  28)          110.7695         0.324831   
     86. A(H  23,C  12,H  24)          108.2032         0.291948   
     87. A(H  22,C  12,H  24)          107.9570         0.292185   
     88. A(C   7,C  12,H  24)          109.4372         0.325208   
     89. A(H  22,C  12,H  23)          108.7110         0.291854   
     90. A(C   7,C  12,H  23)          110.7670         0.324823   
     91. A(C   7,C  12,H  22)          111.6613         0.325098   
     92. A(H  31,C  13,H  33)          107.5743         0.291913   
     93. A(C   7,C  13,H  33)          108.8297         0.325955   
     94. A(H  31,C  13,H  32)          109.7624         0.291680   
     95. A(C   7,C  13,H  32)          111.4614         0.325683   
     96. A(H  32,C  13,H  33)          107.5804         0.291914   
     97. A(C   7,C  13,H  31)          111.4717         0.325682   
     98. D(H   3,C   1,N   0,C   6)     -0.0628         0.039631   
     99. D(N   2,C   1,N   0,C   6)    179.9374         0.039631   
    100. D(N   2,C   1,N   0,C   5)      0.0005         0.039631   
    101. D(H   3,C   1,N   0,C   5)   -179.9997         0.039631   
    102. D(C   7,N   2,C   1,N   0)   -179.9043         0.040816   
    103. D(C   4,N   2,C   1,N   0)     -0.0033         0.040816   
    104. D(C   4,N   2,C   1,H   3)    179.9969         0.040816   
    105. D(C   7,N   2,C   1,H   3)      0.0959         0.040816   
    106. D(H  14,C   4,N   2,C   1)   -179.9916         0.031097   
    107. D(C   5,C   4,N   2,C   1)      0.0048         0.031097   
    108. D(H  14,C   4,N   2,C   7)     -0.0864         0.031097   
    109. D(C   5,C   4,N   2,C   7)    179.9099         0.031097   
    110. D(H  15,C   5,N   0,C   1)   -179.9965         0.031473   
    111. D(C   4,C   5,N   0,C   6)   -179.9316         0.031473   
    112. D(C   4,C   5,N   0,C   1)      0.0025         0.031473   
    113. D(H  15,C   5,C   4,H  14)     -0.0095         0.034108   
    114. D(N   0,C   5,C   4,H  14)    179.9916         0.034108   
    115. D(N   0,C   5,C   4,N   2)     -0.0045         0.034108   
    116. D(H  15,C   5,C   4,N   2)    179.9945         0.034108   
    117. D(H  15,C   5,N   0,C   6)      0.0694         0.031473   
    118. D(C  10,C   6,N   0,C   5)   -119.9294         0.014231   
    119. D(C  10,C   6,N   0,C   1)     60.1469         0.014231   
    120. D(C   9,C   6,N   0,C   5)     -0.0677         0.014231   
    121. D(C   9,C   6,N   0,C   1)   -179.9914         0.014231   
    122. D(C   8,C   6,N   0,C   5)    119.7832         0.014231   
    123. D(C   8,C   6,N   0,C   1)    -60.1405         0.014231   
    124. D(C  12,C   7,N   2,C   4)    -60.2490         0.014453   
    125. D(C  11,C   7,N   2,C   4)     59.8318         0.014453   
    126. D(C  11,C   7,N   2,C   1)   -120.2830         0.014453   
    127. D(C  13,C   7,N   2,C   1)     -0.3190         0.014453   
    128. D(C  12,C   7,N   2,C   1)    119.6362         0.014453   
    129. D(C  13,C   7,N   2,C   4)    179.7958         0.014453   
    130. D(H  18,C   8,C   6,C  10)     64.8857         0.011142   
    131. D(H  18,C   8,C   6,C   9)    -57.1561         0.011142   
    132. D(H  18,C   8,C   6,N   0)   -176.8466         0.011142   
    133. D(H  17,C   8,C   6,C   9)     61.9236         0.011142   
    134. D(H  17,C   8,C   6,C  10)   -176.0346         0.011142   
    135. D(H  17,C   8,C   6,N   0)    -57.7668         0.011142   
    136. D(H  16,C   8,C   6,C  10)    -54.5763         0.011142   
    137. D(H  16,C   8,C   6,C   9)   -176.6181         0.011142   
    138. D(H  16,C   8,C   6,N   0)     63.6915         0.011142   
    139. D(H  27,C   9,C   6,C  10)    -61.3188         0.011529   
    140. D(H  27,C   9,C   6,C   8)     61.4296         0.011529   
    141. D(H  27,C   9,C   6,N   0)   -179.9590         0.011529   
    142. D(H  26,C   9,C   6,C  10)     57.2617         0.011529   
    143. D(H  26,C   9,C   6,C   8)   -179.9899         0.011529   
    144. D(H  26,C   9,C   6,N   0)    -61.3785         0.011529   
    145. D(H  25,C   9,C   6,C  10)   -179.9012         0.011529   
    146. D(H  25,C   9,C   6,N   0)     61.4586         0.011529   
    147. D(H  25,C   9,C   6,C   8)    -57.1528         0.011529   
    148. D(H  21,C  10,C   6,C   8)    176.2049         0.011145   
    149. D(H  21,C  10,C   6,N   0)     57.9524         0.011145   
    150. D(H  20,C  10,C   6,C   9)     57.3308         0.011145   
    151. D(H  20,C  10,C   6,C   8)    -64.7130         0.011145   
    152. D(H  20,C  10,C   6,N   0)    177.0345         0.011145   
    153. D(H  19,C  10,C   6,C   9)    176.7884         0.011145   
    154. D(H  19,C  10,C   6,C   8)     54.7445         0.011145   
    155. D(H  21,C  10,C   6,C   9)    -61.7513         0.011145   
    156. D(H  19,C  10,C   6,N   0)    -63.5080         0.011145   
    157. D(H  29,C  11,C   7,N   2)    -62.4028         0.011167   
    158. D(H  28,C  11,C   7,C  13)    -60.9510         0.011167   
    159. D(H  28,C  11,C   7,C  12)    176.8839         0.011167   
    160. D(H  28,C  11,C   7,N   2)     58.9330         0.011167   
    161. D(H  30,C  11,C   7,C  13)     58.2593         0.011167   
    162. D(H  30,C  11,C   7,C  12)    -63.9058         0.011167   
    163. D(H  30,C  11,C   7,N   2)    178.1433         0.011167   
    164. D(H  29,C  11,C   7,C  13)    177.7132         0.011167   
    165. D(H  29,C  11,C   7,C  12)     55.5481         0.011167   
    166. D(H  24,C  12,C   7,C  13)    -58.2721         0.011164   
    167. D(H  24,C  12,C   7,C  11)     63.8857         0.011164   
    168. D(H  24,C  12,C   7,N   2)   -178.1394         0.011164   
    169. D(H  23,C  12,C   7,C  13)     60.9438         0.011164   
    170. D(H  23,C  12,C   7,C  11)   -176.8983         0.011164   
    171. D(H  23,C  12,C   7,N   2)    -58.9234         0.011164   
    172. D(H  22,C  12,C   7,C  13)   -177.7399         0.011164   
    173. D(H  22,C  12,C   7,C  11)    -55.5820         0.011164   
    174. D(H  22,C  12,C   7,N   2)     62.3929         0.011164   
    175. D(H  33,C  13,C   7,C  12)     61.5365         0.011493   
    176. D(H  33,C  13,C   7,C  11)    -61.2705         0.011493   
    177. D(H  33,C  13,C   7,N   2)   -179.8875         0.011493   
    178. D(H  32,C  13,C   7,C  12)   -179.9767         0.011493   
    179. D(H  32,C  13,C   7,C  11)     57.2164         0.011493   
    180. D(H  32,C  13,C   7,N   2)    -61.4006         0.011493   
    181. D(H  31,C  13,C   7,C  12)    -56.9492         0.011493   
    182. D(H  31,C  13,C   7,C  11)   -179.7562         0.011493   
    183. D(H  31,C  13,C   7,N   2)     61.6268         0.011493   
    -----------------------------------------------------------------

Number of atoms                         .... 34
Number of degrees of freedom            .... 183

         *************************************************************
         *                GEOMETRY OPTIMIZATION CYCLE   1            *
         *************************************************************
---------------------------------
CARTESIAN COORDINATES (ANGSTROEM)
---------------------------------
  N     -1.095028   -0.249656    0.112232
  C     -0.021922    0.487708   -0.168278
  N      1.083815   -0.216605    0.045111
  H     -0.052521    1.499379   -0.514670
  C      0.703472   -1.450783    0.478456
  C     -0.656265   -1.471344    0.520254
  C     -2.488502    0.220033   -0.011872
  C      2.481482    0.213656   -0.136268
  C     -2.664743    1.424408    0.915166
  C     -3.445756   -0.895283    0.395152
  C     -2.728164    0.607348   -1.472486
  C      3.128699   -0.716905   -1.163474
  C      3.182064    0.110996    1.219736
  C      2.520874    1.653909   -0.637688
  H      1.397445   -2.225664    0.726759
  H     -1.307163   -2.268006    0.810250
  H     -2.037517    2.259313    0.614650
  H     -2.425023    1.157749    1.942015
  H     -3.698306    1.755587    0.884779
  H     -2.098976    1.439205   -1.777249
  H     -3.763570    0.907435   -1.601355
  H     -2.536126   -0.236831   -2.130803
  H      3.203868   -0.912395    1.583334
  H      2.683703    0.733545    1.959418
  H      4.207696    0.453922    1.123395
  H     -3.296401   -1.187897    1.431509
  H     -3.339714   -1.764233   -0.249562
  H     -4.465986   -0.535676    0.298128
  H      2.592491   -0.680062   -2.109087
  H      3.150842   -1.745568   -0.815197
  H      4.152381   -0.401967   -1.341564
  H      2.069662    2.337091    0.078085
  H      2.027824    1.753159   -1.601899
  H      3.557290    1.951858   -0.766990

----------------------------
CARTESIAN COORDINATES (A.U.)
----------------------------
  NO LB      ZA    FRAG     MASS         X           Y           Z
   0 N     7.0000    0    14.007   -2.069304   -0.471782    0.212088
   1 C     6.0000    0    12.011   -0.041427    0.921635   -0.318000
   2 N     7.0000    0    14.007    2.048114   -0.409325    0.085248
   3 H     1.0000    0     1.008   -0.099250    2.833415   -0.972584
   4 C     6.0000    0    12.011    1.329369   -2.741583    0.904150
   5 C     6.0000    0    12.011   -1.240161   -2.780436    0.983137
   6 C     6.0000    0    12.011   -4.702587    0.415802   -0.022434
   7 C     6.0000    0    12.011    4.689321    0.403751   -0.257510
   8 C     6.0000    0    12.011   -5.035634    2.691741    1.729413
   9 C     6.0000    0    12.011   -6.511534   -1.691840    0.746728
  10 C     6.0000    0    12.011   -5.155484    1.147722   -2.782595
  11 C     6.0000    0    12.011    5.912384   -1.354754   -2.198648
  12 C     6.0000    0    12.011    6.013230    0.209753    2.304966
  13 C     6.0000    0    12.011    4.763761    3.125435   -1.205055
  14 H     1.0000    0     1.008    2.640789   -4.205896    1.373376
  15 H     1.0000    0     1.008   -2.470180   -4.285911    1.531152
  16 H     1.0000    0     1.008   -3.850350    4.269482    1.161519
  17 H     1.0000    0     1.008   -4.582629    2.187829    3.669877
  18 H     1.0000    0     1.008   -6.988786    3.317579    1.671991
  19 H     1.0000    0     1.008   -3.966490    2.719703   -3.358514
  20 H     1.0000    0     1.008   -7.112117    1.714804   -3.026122
  21 H     1.0000    0     1.008   -4.792584   -0.447546   -4.026634
  22 H     1.0000    0     1.008    6.054433   -1.724177    2.992068
  23 H     1.0000    0     1.008    5.071465    1.386199    3.702763
  24 H     1.0000    0     1.008    7.951392    0.857789    2.122909
  25 H     1.0000    0     1.008   -6.229296   -2.244799    2.705160
  26 H     1.0000    0     1.008   -6.311145   -3.333916   -0.471604
  27 H     1.0000    0     1.008   -8.439491   -1.012281    0.563381
  28 H     1.0000    0     1.008    4.899098   -1.285132   -3.985596
  29 H     1.0000    0     1.008    5.954229   -3.298646   -1.540499
  30 H     1.0000    0     1.008    7.846864   -0.759608   -2.535189
  31 H     1.0000    0     1.008    3.911094    4.416461    0.147559
  32 H     1.0000    0     1.008    3.832032    3.312991   -3.027151
  33 H     1.0000    0     1.008    6.722303    3.688478   -1.449401

--------------------------------
INTERNAL COORDINATES (ANGSTROEM)
--------------------------------
 N      0   0   0     0.000000000000     0.00000000     0.00000000
 C      1   0   0     1.331897133815     0.00000000     0.00000000
 N      2   1   0     1.328249761136   110.07979768     0.00000000
 H      2   1   3     1.069766490170   124.65990918   179.99978704
 C      3   2   1     1.362220108004   107.40279954     0.00000000
 C      5   3   2     1.360534541308   107.60839093     0.00000000
 C      1   2   3     1.475729894930   124.53246107   179.93741061
 C      3   2   1     1.473599320028   127.95060042   180.09568147
 C      7   1   2     1.530025848584   107.95970263   299.85951502
 C      7   1   2     1.525100779289   109.72334292   180.00862787
 C      7   1   2     1.529982092714   107.98500971    60.14692729
 C      8   3   2     1.529700887560   107.83834153   239.71703232
 C      8   3   2     1.529738976714   107.79877532   119.63619113
 C      8   3   2     1.525550245752   109.91352394   359.68097352
 H      5   3   2     1.069436683161   123.30814264   180.00841899
 H      6   5   3     1.068848902321   128.91839596   179.99445837
 H      9   7   1     1.086640735030   111.76189763    63.69149302
 H      9   7   1     1.087654429884   110.71070370   302.23319795
 H      9   7   1     1.085751383553   109.43857131   183.15344713
 H     11   7   1     1.086620319800   111.76795994   296.49199578
 H     11   7   1     1.085690817618   109.43127864   177.03446627
 H     11   7   1     1.087611663522   110.71354640    57.95235800
 H     13   8   3     1.086282733155   111.66133963    62.39285074
 H     13   8   3     1.087685730783   110.76703495   301.07656410
 H     13   8   3     1.085725155911   109.43723641   181.86057403
 H     10   7   1     1.087182881898   111.40815209    61.45857681
 H     10   7   1     1.087186072064   111.40893945   298.62150772
 H     10   7   1     1.086094575950   108.88229804   180.04100396
 H     12   8   3     1.087685161021   110.76954133    58.93300909
 H     12   8   3     1.086248772699   111.67877502   297.59719355
 H     12   8   3     1.085738204230   109.42708025   178.14332066
 H     14   8   3     1.087501468356   111.47173621    61.62681513
 H     14   8   3     1.087498304623   111.46139127   298.59938913
 H     14   8   3     1.086117144490   108.82971014   180.11250497

---------------------------
INTERNAL COORDINATES (A.U.)
---------------------------
 N      0   0   0     0.000000000000     0.00000000     0.00000000
 C      1   0   0     2.516920821465     0.00000000     0.00000000
 N      2   1   0     2.510028285994   110.07979768     0.00000000
 H      2   1   3     2.021565693667   124.65990918   179.99978704
 C      3   2   1     2.574222938247   107.40279954     0.00000000
 C      5   3   2     2.571037678813   107.60839093     0.00000000
 C      1   2   3     2.788725349058   124.53246107   179.93741061
 C      3   2   1     2.784699145985   127.95060042   180.09568147
 C      7   1   2     2.891329831644   107.95970263   299.85951502
 C      7   1   2     2.882022799487   109.72334292   180.00862787
 C      7   1   2     2.891247145033   107.98500971    60.14692729
 C      8   3   2     2.890715744304   107.83834153   239.71703232
 C      8   3   2     2.890787722374   107.79877532   119.63619113
 C      8   3   2     2.882872168008   109.91352394   359.68097352
 H      5   3   2     2.020942448743   123.30814264   180.00841899
 H      6   5   3     2.019831703929   128.91839596   179.99445837
 H      9   7   1     2.053453395170   111.76189763    63.69149302
 H      9   7   1     2.055369000827   110.71070370   302.23319795
 H      9   7   1     2.051772764442   109.43857131   183.15344713
 H     11   7   1     2.053414815976   111.76795994   296.49199578
 H     11   7   1     2.051658311411   109.43127864   177.03446627
 H     11   7   1     2.055288184115   110.71354640    57.95235800
 H     13   8   3     2.052776869670   111.66133963    62.39285074
 H     13   8   3     2.055428150953   110.76703495   301.07656410
 H     13   8   3     2.051723201381   109.43723641   181.86057403
 H     10   7   1     2.054477904274   111.40815209    61.45857681
 H     10   7   1     2.054483932814   111.40893945   298.62150772
 H     10   7   1     2.052421304083   108.88229804   180.04100396
 H     12   8   3     2.055427074259   110.76954133    58.93300909
 H     12   8   3     2.052712693710   111.67877502   297.59719355
 H     12   8   3     2.051747859130   109.42708025   178.14332066
 H     14   8   3     2.055079945429   111.47173621    61.62681513
 H     14   8   3     2.055073966842   111.46139127   298.59938913
 H     14   8   3     2.052463952442   108.82971014   180.11250497

---------------------
BASIS SET INFORMATION
---------------------
There are 3 groups of distinct atoms

 Group   1 Type N   : 7s4p1d contracted to 3s2p1d pattern {511/31/1}
 Group   2 Type C   : 7s4p1d contracted to 3s2p1d pattern {511/31/1}
 Group   3 Type H   : 4s1p contracted to 2s1p pattern {31/1}

Atom   0N    basis set group =>   1
Atom   1C    basis set group =>   2
Atom   2N    basis set group =>   1
Atom   3H    basis set group =>   3
Atom   4C    basis set group =>   2
Atom   5C    basis set group =>   2
Atom   6C    basis set group =>   2
Atom   7C    basis set group =>   2
Atom   8C    basis set group =>   2
Atom   9C    basis set group =>   2
Atom  10C    basis set group =>   2
Atom  11C    basis set group =>   2
Atom  12C    basis set group =>   2
Atom  13C    basis set group =>   2
Atom  14H    basis set group =>   3
Atom  15H    basis set group =>   3
Atom  16H    basis set group =>   3
Atom  17H    basis set group =>   3
Atom  18H    basis set group =>   3
Atom  19H    basis set group =>   3
Atom  20H    basis set group =>   3
Atom  21H    basis set group =>   3
Atom  22H    basis set group =>   3
Atom  23H    basis set group =>   3
Atom  24H    basis set group =>   3
Atom  25H    basis set group =>   3
Atom  26H    basis set group =>   3
Atom  27H    basis set group =>   3
Atom  28H    basis set group =>   3
Atom  29H    basis set group =>   3
Atom  30H    basis set group =>   3
Atom  31H    basis set group =>   3
Atom  32H    basis set group =>   3
Atom  33H    basis set group =>   3
---------------------------------
AUXILIARY/J BASIS SET INFORMATION
---------------------------------
There are 3 groups of distinct atoms

 Group   1 Type N   : 12s5p4d2f1g contracted to 6s4p3d1f1g pattern {711111/2111/211/2/1}
 Group   2 Type C   : 12s5p4d2f1g contracted to 6s4p3d1f1g pattern {711111/2111/211/2/1}
 Group   3 Type H   : 5s2p1d contracted to 3s1p1d pattern {311/2/1}

Atom   0N    basis set group =>   1
Atom   1C    basis set group =>   2
Atom   2N    basis set group =>   1
Atom   3H    basis set group =>   3
Atom   4C    basis set group =>   2
Atom   5C    basis set group =>   2
Atom   6C    basis set group =>   2
Atom   7C    basis set group =>   2
Atom   8C    basis set group =>   2
Atom   9C    basis set group =>   2
Atom  10C    basis set group =>   2
Atom  11C    basis set group =>   2
Atom  12C    basis set group =>   2
Atom  13C    basis set group =>   2
Atom  14H    basis set group =>   3
Atom  15H    basis set group =>   3
Atom  16H    basis set group =>   3
Atom  17H    basis set group =>   3
Atom  18H    basis set group =>   3
Atom  19H    basis set group =>   3
Atom  20H    basis set group =>   3
Atom  21H    basis set group =>   3
Atom  22H    basis set group =>   3
Atom  23H    basis set group =>   3
Atom  24H    basis set group =>   3
Atom  25H    basis set group =>   3
Atom  26H    basis set group =>   3
Atom  27H    basis set group =>   3
Atom  28H    basis set group =>   3
Atom  29H    basis set group =>   3
Atom  30H    basis set group =>   3
Atom  31H    basis set group =>   3
Atom  32H    basis set group =>   3
Atom  33H    basis set group =>   3
------------------------------------------------------------------------------
                           ORCA GTO INTEGRAL CALCULATION
                           -- RI-GTO INTEGRALS CHOSEN --
------------------------------------------------------------------------------
------------------------------------------------------------------------------
                   ___                                                        
                  /   \      - P O W E R E D   B Y -                         
                 /     \                                                     
                 |  |  |   _    _      __       _____    __    __             
                 |  |  |  | |  | |    /  \     |  _  \  |  |  /  |          
                  \  \/   | |  | |   /    \    | | | |  |  | /  /          
                 / \  \   | |__| |  /  /\  \   | |_| |  |  |/  /          
                |  |  |   |  __  | /  /__\  \  |    /   |      \           
                |  |  |   | |  | | |   __   |  |    \   |  |\   \          
                \     /   | |  | | |  |  |  |  | |\  \  |  | \   \       
                 \___/    |_|  |_| |__|  |__|  |_| \__\ |__|  \__/        
                                                                              
                      - O R C A' S   B I G   F R I E N D -                    
                                      &                                       
                       - I N T E G R A L  F E E D E R -                       
                                                                              
 v1 FN, 2020, v2 2021                                                         
------------------------------------------------------------------------------


Reading SHARK input file 5_prot_aq_2.SHARKINP.tmp ... ok
----------------------
SHARK INTEGRAL PACKAGE
----------------------

Number of atoms                             ...     34
Number of basis functions                   ...    287
Number of shells                            ...    141
Maximum angular momentum                    ...      2
Integral batch strategy                     ... SHARK/LIBINT Hybrid
RI-J (if used) integral strategy            ... SPLIT-RIJ (Revised 2003 algorithm where possible)
Printlevel                                  ...      1
Contraction scheme used                     ... SEGMENTED contraction
Coulomb Range Separation                    ... NOT USED
Exchange Range Separation                   ... Long Range
   Mu parameter                             ...  0.300000
   Scaling (regular/separated)              ...  0.157706  0.842294
Finite Nucleus Model                        ... NOT USED
Auxiliary Coulomb fitting basis             ... AVAILABLE
   # of basis functions in Aux-J            ...    868
   # of shells in Aux-J                     ...    300
   Maximum angular momentum in Aux-J        ...      4
Auxiliary J/K fitting basis                 ... NOT available
Auxiliary Correlation fitting basis         ... NOT available
Auxiliary 'external' fitting basis          ... NOT available
Integral threshold                          ...     2.500000e-11
Primitive cut-off                           ...     2.500000e-12
Primitive pair pre-selection threshold      ...     2.500000e-12

Calculating pre-screening integrals         ... done (  0.1 sec) Dimension = 141
Organizing shell pair data                  ... done (  0.1 sec)
Shell pair information
Total number of shell pairs                 ...     10011
Shell pairs after pre-screening             ...      8599
Total number of primitive shell pairs       ...     34423
Primitive shell pairs kept                  ...     20641
          la=0 lb=0:   2950 shell pairs
          la=1 lb=0:   3268 shell pairs
          la=1 lb=1:    930 shell pairs
          la=2 lb=0:    889 shell pairs
          la=2 lb=1:    487 shell pairs
          la=2 lb=2:     75 shell pairs

Calculating one electron integrals          ... done (  0.1 sec)
Calculating RI/J V-Matrix + Cholesky decomp.... done (  0.1 sec)
Calculating Nuclear repulsion               ... done (  0.0 sec) ENN=    877.870388412986 Eh

SHARK setup successfully completed in   0.4 seconds

Maximum memory used throughout the entire GTOINT-calculation: 48.6 MB
-------------------------------------------------------------------------------
                                 ORCA SCF
-------------------------------------------------------------------------------

------------
SCF SETTINGS
------------
Hamiltonian:
 Density Functional     Method          .... DFT(GTOs)
 Exchange Functional    Exchange        .... WB97X
 Correlation Functional Correlation     .... WB97X
 Gradients option       PostSCFGGA      .... off
 Hybrid DFT is turned on
   Fraction HF Exchange ScalHFX         ....  0.157706
   Scaling of DF-GGA-X  ScalDFX         ....  0.000000
   Scaling of DF-GGA-C  ScalDFC         ....  1.000000
   Scaling of DF-LDA-C  ScalLDAC        ....  1.000000
   Perturbative correction              ....  0.000000
   Density functional embedding theory  .... OFF
 Long-range corrected/Screened/Range-Separated Hybrid DFT is turned on
   Amount of maximum screened exact exchange              ....  0.842294
   Range separation parameter mu (erf(mu*r12)/r12)        ....  0.300000
 RI-approximation to the Coulomb term is turned on
   Number of AuxJ basis functions       .... 868
   RIJ-COSX (HFX calculated with COS-X)).... on


General Settings:
 Integral files         IntName         .... 5_prot_aq_2
 Hartree-Fock type      HFTyp           .... RHF
 Total Charge           Charge          ....    1
 Multiplicity           Mult            ....    1
 Number of Electrons    NEL             ....  100
 Basis Dimension        Dim             ....  287
 Nuclear Repulsion      ENuc            ....    877.8703884130 Eh

Convergence Acceleration:
 DIIS                   CNVDIIS         .... on
   Start iteration      DIISMaxIt       ....     0
   Startup error        DIISStart       ....  0.200000
   # of expansion vecs  DIISMaxEq       ....     5
   Bias factor          DIISBfac        ....   1.050
   Max. coefficient     DIISMaxC        ....  10.000
 Trust-Rad. Augm. Hess. CNVTRAH         .... auto
   Auto Start mean grad. ratio tolernc. ....  1.125000
   Auto Start start iteration           ....    20
   Auto Start num. interpolation iter.  ....    10
   Max. Number of Micro iterations      ....    16
   Max. Number of Macro iterations      .... Maxiter - #DIIS iter
   Number of Davidson start vectors     ....     2
   Converg. threshold I  (grad. norm)   ....   1.000e-05
   Converg. threshold II (energy diff.) ....   1.000e-08
   Grad. Scal. Fac. for Micro threshold ....   0.100
   Minimum threshold for Micro iter.    ....   0.010
   NR start threshold (gradient norm)   ....   0.001
   Initial trust radius                 ....   0.400
   Minimum AH scaling param. (alpha)    ....   1.000
   Maximum AH scaling param. (alpha)    .... 1000.000
   Orbital update algorithm             .... Taylor
   White noise on init. David. guess    .... on
   Maximum white noise                  ....   0.010
   Quad. conv. algorithm                .... NR
 SOSCF                  CNVSOSCF        .... on
   Start iteration      SOSCFMaxIt      ....   150
   Startup grad/error   SOSCFStart      ....  0.001000
 Level Shifting         CNVShift        .... on
   Level shift para.    LevelShift      ....    0.2500
   Turn off err/grad.   ShiftErr        ....    0.0000
 Zerner damping         CNVZerner       .... off
 Static damping         CNVDamp         .... on
   Fraction old density DampFac         ....    0.8500
   Max. Damping (<1)    DampMax         ....    0.9800
   Min. Damping (>=0)   DampMin         ....    0.0000
   Turn off err/grad.   DampErr         ....    0.0300
 Fernandez-Rico         CNVRico         .... off

SCF Procedure:
 Maximum # iterations   MaxIter         ....   125
 SCF integral mode      SCFMode         .... Direct
   Integral package                     .... SHARK and LIBINT hybrid scheme
 Reset frequency        DirectResetFreq ....    20
 Integral Threshold     Thresh          ....  2.500e-11 Eh
 Primitive CutOff       TCut            ....  2.500e-12 Eh

Convergence Tolerance:
 Convergence Check Mode ConvCheckMode   .... Total+1el-Energy
 Convergence forced     ConvForced      .... 0
 Energy Change          TolE            ....  1.000e-08 Eh
 1-El. energy change                    ....  1.000e-05 Eh
 Orbital Gradient       TolG            ....  1.000e-05
 Orbital Rotation angle TolX            ....  1.000e-05
 DIIS Error             TolErr          ....  5.000e-07


Diagonalization of the overlap matrix:
Smallest eigenvalue                        ... 1.031e-03
Time for diagonalization                   ...    0.014 sec
Threshold for overlap eigenvalues          ... 1.000e-08
Number of eigenvalues below threshold      ... 0
Time for construction of square roots      ...    0.006 sec
Total time needed                          ...    0.020 sec

Time for model grid setup =    0.700 sec

------------------------------
INITIAL GUESS: MODEL POTENTIAL
------------------------------
Loading Hartree-Fock densities                     ... done
Calculating cut-offs                               ... done
Initializing the effective Hamiltonian             ... done
Setting up the integral package (SHARK)            ... done
Starting the Coulomb interaction                   ... done (   0.8 sec)
Reading the grid                                   ... done
Mapping shells                                     ... done
Starting the XC term evaluation                    ... done (   0.8 sec)
  promolecular density results
     # of electrons  =    100.985468447
     EX              =    -75.694302852
     EC              =     -3.362747020
     EX+EC           =    -79.057049872
Transforming the Hamiltonian                       ... done (   0.0 sec)
Diagonalizing the Hamiltonian                      ... done (   0.0 sec)
Back transforming the eigenvectors                 ... done (   0.0 sec)
Now organizing SCF variables                       ... done
                      ------------------
                      INITIAL GUESS DONE (   2.3 sec)
                      ------------------
-------------------
DFT GRID GENERATION
-------------------

General Integration Accuracy     IntAcc      ... 4.388
Radial Grid Type                 RadialGrid  ... OptM3 with GC (2021)
Angular Grid (max. ang.)         AngularGrid ... 4 (Lebedev-302)
Angular grid pruning method      GridPruning ... 4 (adaptive)
Weight generation scheme         WeightScheme... Becke
Basis function cutoff            BFCut       ... 1.0000e-11
Integration weight cutoff        WCut        ... 1.0000e-14
Angular grids for H and He will be reduced by one unit
Partially contracted basis set               ... off
Rotationally invariant grid construction     ... off

Total number of grid points                  ...   144117
Total number of batches                      ...     2269
Average number of points per batch           ...       63
Average number of grid points per atom       ...     4239
Time for grid setup =    2.569 sec

--------------------
COSX GRID GENERATION
--------------------

GRIDX 1
-------
General Integration Accuracy     IntAcc      ... 3.816
Radial Grid Type                 RadialGrid  ... OptM3 with GC (2021)
Angular Grid (max. ang.)         AngularGrid ... 1 (Lebedev-50)
Angular grid pruning method      GridPruning ... 4 (adaptive)
Weight generation scheme         WeightScheme... Becke
Basis function cutoff            BFCut       ... 1.0000e-11
Integration weight cutoff        WCut        ... 1.0000e-14
Angular grids for H and He will be reduced by one unit
Partially contracted basis set               ... on
Rotationally invariant grid construction     ... off

Total number of grid points                  ...    18438
Total number of batches                      ...      309
Average number of points per batch           ...       59
Average number of grid points per atom       ...      542
UseSFitting                                  ... on

GRIDX 2
-------
General Integration Accuracy     IntAcc      ... 4.020
Radial Grid Type                 RadialGrid  ... OptM3 with GC (2021)
Angular Grid (max. ang.)         AngularGrid ... 2 (Lebedev-110)
Angular grid pruning method      GridPruning ... 4 (adaptive)
Weight generation scheme         WeightScheme... Becke
Basis function cutoff            BFCut       ... 1.0000e-11
Integration weight cutoff        WCut        ... 1.0000e-14
Angular grids for H and He will be reduced by one unit
Partially contracted basis set               ... on
Rotationally invariant grid construction     ... off

Total number of grid points                  ...    38216
Total number of batches                      ...      611
Average number of points per batch           ...       62
Average number of grid points per atom       ...     1124
UseSFitting                                  ... on

GRIDX 3
-------
General Integration Accuracy     IntAcc      ... 4.338
Radial Grid Type                 RadialGrid  ... OptM3 with GC (2021)
Angular Grid (max. ang.)         AngularGrid ... 3 (Lebedev-194)
Angular grid pruning method      GridPruning ... 4 (adaptive)
Weight generation scheme         WeightScheme... Becke
Basis function cutoff            BFCut       ... 1.0000e-11
Integration weight cutoff        WCut        ... 1.0000e-14
Angular grids for H and He will be reduced by one unit
Partially contracted basis set               ... on
Rotationally invariant grid construction     ... off

Total number of grid points                  ...    82958
Total number of batches                      ...     1313
Average number of points per batch           ...       63
Average number of grid points per atom       ...     2440
UseSFitting                                  ... on

Time for X-Grid setup             =    3.329 sec


--------------------
CPCM SOLVATION MODEL
--------------------
CPCM parameters:
  Epsilon                                         ...      80.4000
  Refrac                                          ...       1.3300
  Rsolv                                           ...       1.3000
  Surface type                                    ... GAUSSIAN VDW
  Epsilon function type                           ...         CPCM
Radii:
 Radius for N  used is    3.5149 Bohr (=   1.8600 Ang.)
 Radius for C  used is    3.8550 Bohr (=   2.0400 Ang.)
 Radius for H  used is    2.4944 Bohr (=   1.3200 Ang.)
Calculating surface                               ...        done! (  0.0s)
GEPOL surface points                              ...         1757
GEPOL Volume                                      ...    1683.9574
GEPOL Surface-area                                ...     905.9184
Calculating surface distance matrix               ...        done! (  0.0s)
Performing Cholesky decomposition & store         ...        done! (  0.1s)
Overall time for CPCM initialization              ...                 0.1s
--------------
SCF ITERATIONS
--------------
ITER       Energy         Delta-E        Max-DP      RMS-DP      [F,P]     Damp
               ***  Starting incremental Fock matrix formation  ***
  0   -540.3932474821   0.000000000000 0.03394856  0.00063473  0.1500461 0.8500
  1   -540.4542266604  -0.060979178282 0.03048075  0.00059306  0.1208515 0.8500
                               ***Turning on DIIS***
  2   -540.5003541155  -0.046127455171 0.02390326  0.00048230  0.0927511 0.8500
  3   -540.5344214494  -0.034067333873 0.01505757  0.00034198  0.0702685 0.8500
  4   -540.5605471350  -0.026125685581 0.01021238  0.00026263  0.0559060 0.8500
  5   -540.5810240326  -0.020476897622 0.00779625  0.00021596  0.0461719 0.8500
  6   -540.5976056962  -0.016581663579 0.00631947  0.00018243  0.0387862 0.8500
  7   -540.6112868010  -0.013681104822 0.00536968  0.00015702  0.0328134 0.8500
  8   -540.6227020617  -0.011415260682 0.03048826  0.00090058  0.0277357 0.0000
  9   -540.6837550511  -0.061052989411 0.00134465  0.00003241  0.0011954 0.0000
                      *** Initiating the SOSCF procedure ***
                           *** Shutting down DIIS ***
                      *** Re-Reading the Fockian *** 
                      *** Removing any level shift *** 
ITER      Energy       Delta-E        Grad      Rot      Max-DP    RMS-DP
 10   -540.68377710  -0.0000220538  0.000153  0.000153  0.000666  0.000013
               *** Restarting incremental Fock matrix formation ***
 11   -540.68372661   0.0000504915  0.000050  0.000097  0.000376  0.000008
 12   -540.68372690  -0.0000002867  0.000053  0.000107  0.000204  0.000004
 13   -540.68372695  -0.0000000486  0.000013  0.000015  0.000047  0.000001
                  ***Gradient check signals convergence***
              ***Rediagonalizing the Fockian in SOSCF/NRSCF***

               *****************************************************
               *                     SUCCESS                       *
               *           SCF CONVERGED AFTER  14 CYCLES          *
               *****************************************************

Old exchange energy                            =    -25.379374577 Eh
New exchange energy                            =    -25.379401291 Eh
Exchange energy change after final integration =     -0.000026714 Eh
Total energy after final integration           =   -540.683753677 Eh
Final COS-X integration done in                =    95.010 sec

----------------
TOTAL SCF ENERGY
----------------

Total Energy       :         -540.68375368 Eh          -14712.75292 eV

Components:
Nuclear Repulsion  :          877.87038841 Eh           23888.06771 eV
Electronic Energy  :        -1418.55414209 Eh          -38600.82063 eV
One Electron Energy:        -2453.68801252 Eh          -66768.24525 eV
Two Electron Energy:         1035.13387043 Eh           28167.42462 eV
Max COSX asymmetry :            0.00000621 Eh               0.00017 eV
CPCM Dielectric    :           -0.07517964 Eh              -2.04574 eV

Virial components:
Potential Energy   :        -1075.07575721 Eh          -29254.29861 eV
Kinetic Energy     :          534.39200353 Eh           14541.54569 eV
Virial Ratio       :            2.01177366


DFT components:
N(Alpha)           :       49.999926804170 electrons
N(Beta)            :       49.999926804170 electrons
N(Total)           :       99.999853608339 electrons
E(XC)              :      -55.663168401972 Eh       
DFET-embed. en.    :        0.000000000000 Eh       
CPCM Solvation Model Properties:
Surface-charge          :           -1.02412779
Charge-correction       :            0.00318681 Eh               0.08672 eV
Free-energy (cav+disp)  :  This term is not implemented in the current solvation scheme

---------------
SCF CONVERGENCE
---------------

  Last Energy change         ...   -1.4950e-08  Tolerance :   1.0000e-08
  Last MAX-Density change    ...    3.5527e-15  Tolerance :   1.0000e-07
  Last RMS-Density change    ...    3.6576e-17  Tolerance :   5.0000e-09
  Last Orbital Gradient      ...    2.4530e-06  Tolerance :   1.0000e-05
  Last Orbital Rotation      ...    4.4447e-06  Tolerance :   1.0000e-05

             **** THE GBW FILE WAS UPDATED (5_prot_aq_2.gbw) ****
             **** DENSITY 5_prot_aq_2.scfp WAS UPDATED ****
             **** ENERGY FILE WAS UPDATED (5_prot_aq_2.en.tmp) ****
             **** THE GBW FILE WAS UPDATED (5_prot_aq_2.gbw) ****
             **** DENSITY 5_prot_aq_2.scfp WAS UPDATED ****
----------------
ORBITAL ENERGIES
----------------

  NO   OCC          E(Eh)            E(eV) 
   0   2.0000     -14.510181      -394.8421 
   1   2.0000     -14.508353      -394.7924 
   2   2.0000     -10.379510      -282.4408 
   3   2.0000     -10.343494      -281.4608 
   4   2.0000     -10.343108      -281.4503 
   5   2.0000     -10.330101      -281.0963 
   6   2.0000     -10.327694      -281.0308 
   7   2.0000     -10.271999      -279.5153 
   8   2.0000     -10.271228      -279.4943 
   9   2.0000     -10.269672      -279.4520 
  10   2.0000     -10.269645      -279.4512 
  11   2.0000     -10.269529      -279.4481 
  12   2.0000     -10.269517      -279.4478 
  13   2.0000      -1.220997       -33.2250 
  14   2.0000      -1.104765       -30.0622 
  15   2.0000      -0.984214       -26.7818 
  16   2.0000      -0.935025       -25.4433 
  17   2.0000      -0.922873       -25.1126 
  18   2.0000      -0.837338       -22.7851 
  19   2.0000      -0.827083       -22.5061 
  20   2.0000      -0.826675       -22.4950 
  21   2.0000      -0.826236       -22.4830 
  22   2.0000      -0.799495       -21.7554 
  23   2.0000      -0.769574       -20.9412 
  24   2.0000      -0.730407       -19.8754 
  25   2.0000      -0.708452       -19.2780 
  26   2.0000      -0.645408       -17.5624 
  27   2.0000      -0.633141       -17.2286 
  28   2.0000      -0.609418       -16.5831 
  29   2.0000      -0.590062       -16.0564 
  30   2.0000      -0.589939       -16.0531 
  31   2.0000      -0.581130       -15.8133 
  32   2.0000      -0.574562       -15.6346 
  33   2.0000      -0.556048       -15.1308 
  34   2.0000      -0.554054       -15.0766 
  35   2.0000      -0.551271       -15.0009 
  36   2.0000      -0.522575       -14.2200 
  37   2.0000      -0.507954       -13.8221 
  38   2.0000      -0.501107       -13.6358 
  39   2.0000      -0.499911       -13.6033 
  40   2.0000      -0.494322       -13.4512 
  41   2.0000      -0.491698       -13.3798 
  42   2.0000      -0.483129       -13.1466 
  43   2.0000      -0.482832       -13.1385 
  44   2.0000      -0.469929       -12.7874 
  45   2.0000      -0.454449       -12.3662 
  46   2.0000      -0.452602       -12.3159 
  47   2.0000      -0.451527       -12.2867 
  48   2.0000      -0.412898       -11.2355 
  49   2.0000      -0.371061       -10.0971 
  50   0.0000       0.060475         1.6456 
  51   0.0000       0.097248         2.6462 
  52   0.0000       0.132732         3.6118 
  53   0.0000       0.145644         3.9632 
  54   0.0000       0.167194         4.5496 
  55   0.0000       0.171154         4.6573 
  56   0.0000       0.180103         4.9009 
  57   0.0000       0.184376         5.0171 
  58   0.0000       0.194534         5.2935 
  59   0.0000       0.200115         5.4454 
  60   0.0000       0.208965         5.6862 
  61   0.0000       0.213067         5.7979 
  62   0.0000       0.219629         5.9764 
  63   0.0000       0.226228         6.1560 
  64   0.0000       0.232643         6.3305 
  65   0.0000       0.245150         6.6709 
  66   0.0000       0.253500         6.8981 
  67   0.0000       0.259800         7.0695 
  68   0.0000       0.264244         7.1904 
  69   0.0000       0.264528         7.1982 
  70   0.0000       0.264893         7.2081 
  71   0.0000       0.265907         7.2357 
  72   0.0000       0.272558         7.4167 
  73   0.0000       0.276086         7.5127 
  74   0.0000       0.282427         7.6852 
  75   0.0000       0.287053         7.8111 
  76   0.0000       0.293979         7.9996 
  77   0.0000       0.300821         8.1857 
  78   0.0000       0.314976         8.5709 
  79   0.0000       0.319553         8.6955 
  80   0.0000       0.324762         8.8372 
  81   0.0000       0.331222         9.0130 
  82   0.0000       0.344900         9.3852 
  83   0.0000       0.362205         9.8561 
  84   0.0000       0.403853        10.9894 
  85   0.0000       0.419955        11.4276 
  86   0.0000       0.453515        12.3408 
  87   0.0000       0.470305        12.7977 
  88   0.0000       0.471380        12.8269 
  89   0.0000       0.476247        12.9593 
  90   0.0000       0.495629        13.4867 
  91   0.0000       0.505098        13.7444 
  92   0.0000       0.513987        13.9863 
  93   0.0000       0.548597        14.9281 
  94   0.0000       0.548839        14.9347 
  95   0.0000       0.570586        15.5264 
  96   0.0000       0.581568        15.8253 
  97   0.0000       0.593515        16.1504 
  98   0.0000       0.608775        16.5656 
  99   0.0000       0.628377        17.0990 
 100   0.0000       0.644151        17.5282 
 101   0.0000       0.644680        17.5426 
 102   0.0000       0.649316        17.6688 
 103   0.0000       0.664407        18.0794 
 104   0.0000       0.677914        18.4470 
 105   0.0000       0.695637        18.9292 
 106   0.0000       0.718706        19.5570 
 107   0.0000       0.723543        19.6886 
 108   0.0000       0.727687        19.8014 
 109   0.0000       0.732192        19.9240 
 110   0.0000       0.739526        20.1235 
 111   0.0000       0.745070        20.2744 
 112   0.0000       0.745713        20.2919 
 113   0.0000       0.751114        20.4389 
 114   0.0000       0.754210        20.5231 
 115   0.0000       0.760428        20.6923 
 116   0.0000       0.769911        20.9503 
 117   0.0000       0.774416        21.0729 
 118   0.0000       0.774563        21.0769 
 119   0.0000       0.784049        21.3351 
 120   0.0000       0.785936        21.3864 
 121   0.0000       0.790608        21.5135 
 122   0.0000       0.798622        21.7316 
 123   0.0000       0.803923        21.8759 
 124   0.0000       0.806903        21.9570 
 125   0.0000       0.814041        22.1512 
 126   0.0000       0.819088        22.2885 
 127   0.0000       0.821444        22.3526 
 128   0.0000       0.823481        22.4080 
 129   0.0000       0.835018        22.7220 
 130   0.0000       0.837448        22.7881 
 131   0.0000       0.839828        22.8529 
 132   0.0000       0.845385        23.0041 
 133   0.0000       0.848496        23.0887 
 134   0.0000       0.850909        23.1544 
 135   0.0000       0.854208        23.2442 
 136   0.0000       0.865943        23.5635 
 137   0.0000       0.880732        23.9659 
 138   0.0000       0.883140        24.0315 
 139   0.0000       0.894142        24.3308 
 140   0.0000       0.986403        26.8414 
 141   0.0000       0.986533        26.8449 
 142   0.0000       1.035687        28.1825 
 143   0.0000       1.041675        28.3454 
 144   0.0000       1.048597        28.5338 
 145   0.0000       1.060986        28.8709 
 146   0.0000       1.065353        28.9897 
 147   0.0000       1.091506        29.7014 
 148   0.0000       1.140874        31.0448 
 149   0.0000       1.150672        31.3114 
 150   0.0000       1.185884        32.2696 
 151   0.0000       1.213418        33.0188 
 152   0.0000       1.218116        33.1466 
 153   0.0000       1.227818        33.4106 
 154   0.0000       1.253036        34.0968 
 155   0.0000       1.271128        34.5892 
 156   0.0000       1.303341        35.4657 
 157   0.0000       1.332772        36.2666 
 158   0.0000       1.338410        36.4200 
 159   0.0000       1.346968        36.6529 
 160   0.0000       1.365049        37.1449 
 161   0.0000       1.366598        37.1870 
 162   0.0000       1.367662        37.2160 
 163   0.0000       1.387848        37.7653 
 164   0.0000       1.409119        38.3441 
 165   0.0000       1.436639        39.0929 
 166   0.0000       1.446594        39.3638 
 167   0.0000       1.520079        41.3634 
 168   0.0000       1.523566        41.4583 
 169   0.0000       1.625920        44.2435 
 170   0.0000       1.642654        44.6989 
 171   0.0000       1.645698        44.7817 
 172   0.0000       1.646142        44.7938 
 173   0.0000       1.651016        44.9264 
 174   0.0000       1.652250        44.9600 
 175   0.0000       1.652556        44.9683 
 176   0.0000       1.662869        45.2490 
 177   0.0000       1.663213        45.2583 
 178   0.0000       1.667908        45.3861 
 179   0.0000       1.675576        45.5947 
 180   0.0000       1.730650        47.0934 
 181   0.0000       1.764839        48.0237 
 182   0.0000       1.792544        48.7776 
 183   0.0000       1.794089        48.8196 
 184   0.0000       1.803416        49.0734 
 185   0.0000       1.803820        49.0844 
 186   0.0000       1.823667        49.6245 
 187   0.0000       1.846211        50.2379 
 188   0.0000       1.848843        50.3096 
 189   0.0000       1.856928        50.5296 
 190   0.0000       1.867757        50.8242 
 191   0.0000       1.869717        50.8776 
 192   0.0000       1.880754        51.1779 
 193   0.0000       1.898212        51.6530 
 194   0.0000       1.925953        52.4078 
 195   0.0000       1.932510        52.5863 
 196   0.0000       1.934433        52.6386 
 197   0.0000       1.942269        52.8518 
 198   0.0000       1.947679        52.9990 
 199   0.0000       1.948897        53.0322 
 200   0.0000       1.953574        53.1595 
 201   0.0000       1.955832        53.2209 
 202   0.0000       1.963027        53.4167 
 203   0.0000       1.964259        53.4502 
 204   0.0000       1.969319        53.5879 
 205   0.0000       1.985432        54.0263 
 206   0.0000       2.008531        54.6549 
 207   0.0000       2.016023        54.8588 
 208   0.0000       2.022441        55.0334 
 209   0.0000       2.022749        55.0418 
 210   0.0000       2.035588        55.3912 
 211   0.0000       2.046378        55.6848 
 212   0.0000       2.056123        55.9499 
 213   0.0000       2.058630        56.0182 
 214   0.0000       2.068966        56.2994 
 215   0.0000       2.073981        56.4359 
 216   0.0000       2.083023        56.6819 
 217   0.0000       2.092916        56.9511 
 218   0.0000       2.101291        57.1790 
 219   0.0000       2.119863        57.6844 
 220   0.0000       2.125027        57.8249 
 221   0.0000       2.168884        59.0183 
 222   0.0000       2.176262        59.2191 
 223   0.0000       2.252401        61.2909 
 224   0.0000       2.264023        61.6072 
 225   0.0000       2.266659        61.6789 
 226   0.0000       2.273140        61.8553 
 227   0.0000       2.291162        62.3457 
 228   0.0000       2.305147        62.7262 
 229   0.0000       2.309970        62.8575 
 230   0.0000       2.316053        63.0230 
 231   0.0000       2.322387        63.1954 
 232   0.0000       2.335934        63.5640 
 233   0.0000       2.452251        66.7291 
 234   0.0000       2.455986        66.8308 
 235   0.0000       2.471529        67.2537 
 236   0.0000       2.479609        67.4736 
 237   0.0000       2.496629        67.9367 
 238   0.0000       2.510199        68.3060 
 239   0.0000       2.511418        68.3392 
 240   0.0000       2.531640        68.8894 
 241   0.0000       2.535035        68.9818 
 242   0.0000       2.550502        69.4027 
 243   0.0000       2.573605        70.0314 
 244   0.0000       2.574524        70.0564 
 245   0.0000       2.602230        70.8103 
 246   0.0000       2.605561        70.9009 
 247   0.0000       2.614244        71.1372 
 248   0.0000       2.630966        71.5922 
 249   0.0000       2.647933        72.0539 
 250   0.0000       2.653621        72.2087 
 251   0.0000       2.666766        72.5664 
 252   0.0000       2.741461        74.5989 
 253   0.0000       2.750458        74.8438 
 254   0.0000       2.764543        75.2270 
 255   0.0000       2.769691        75.3671 
 256   0.0000       2.816582        76.6431 
 257   0.0000       2.818297        76.6898 
 258   0.0000       2.819097        76.7115 
 259   0.0000       2.824857        76.8683 
 260   0.0000       2.863599        77.9225 
 261   0.0000       2.900554        78.9281 
 262   0.0000       2.935895        79.8898 
 263   0.0000       2.951685        80.3194 
 264   0.0000       2.965784        80.7031 
 265   0.0000       2.983528        81.1859 
 266   0.0000       2.991075        81.3913 
 267   0.0000       2.996320        81.5340 
 268   0.0000       3.000293        81.6421 
 269   0.0000       3.010262        81.9134 
 270   0.0000       3.014504        82.0288 
 271   0.0000       3.016278        82.0771 
 272   0.0000       3.034510        82.5732 
 273   0.0000       3.064754        83.3962 
 274   0.0000       3.069189        83.5169 
 275   0.0000       3.083228        83.8989 
 276   0.0000       3.088766        84.0496 
 277   0.0000       3.100057        84.3568 
 278   0.0000       3.102410        84.4209 
 279   0.0000       3.146033        85.6079 
 280   0.0000       3.158577        85.9493 
 281   0.0000       3.200552        87.0915 
 282   0.0000       3.207664        87.2850 
 283   0.0000       3.320333        90.3509 
 284   0.0000       3.490569        94.9832 
 285   0.0000       3.603970        98.0690 
 286   0.0000       3.631995        98.8316 

                    ********************************
                    * MULLIKEN POPULATION ANALYSIS *
                    ********************************

-----------------------
MULLIKEN ATOMIC CHARGES
-----------------------
   0 N :   -0.161293
   1 C :    0.212275
   2 N :   -0.149407
   3 H :    0.121443
   4 C :    0.060192
   5 C :    0.069341
   6 C :   -0.261077
   7 C :   -0.261630
   8 C :    0.055207
   9 C :    0.032784
  10 C :    0.054551
  11 C :    0.057243
  12 C :    0.057640
  13 C :    0.023905
  14 H :    0.092591
  15 H :    0.085932
  16 H :    0.044360
  17 H :    0.048409
  18 H :    0.051674
  19 H :    0.044233
  20 H :    0.051887
  21 H :    0.048614
  22 H :    0.044869
  23 H :    0.047232
  24 H :    0.052235
  25 H :    0.052914
  26 H :    0.053027
  27 H :    0.057649
  28 H :    0.047438
  29 H :    0.044696
  30 H :    0.052399
  31 H :    0.054953
  32 H :    0.055036
  33 H :    0.058678
Sum of atomic charges:    1.0000000

--------------------------------
MULLIKEN REDUCED ORBITAL CHARGES
--------------------------------
  0 N s       :     3.382323  s :     3.382323
      pz      :     1.421792  p :     3.745958
      px      :     1.159556
      py      :     1.164609
      dz2     :     0.003803  d :     0.033013
      dxz     :     0.005794
      dyz     :     0.005492
      dx2y2   :     0.007774
      dxy     :     0.010149
  1 C s       :     3.099112  s :     3.099112
      pz      :     0.935378  p :     2.621215
      px      :     0.776976
      py      :     0.908860
      dz2     :     0.005855  d :     0.067399
      dxz     :     0.017124
      dyz     :     0.006664
      dx2y2   :     0.016252
      dxy     :     0.021505
  2 N s       :     3.378268  s :     3.378268
      pz      :     1.413957  p :     3.737765
      px      :     1.150122
      py      :     1.173686
      dz2     :     0.003618  d :     0.033374
      dxz     :     0.006267
      dyz     :     0.005558
      dx2y2   :     0.008277
      dxy     :     0.009654
  3 H s       :     0.853181  s :     0.853181
      pz      :     0.006120  p :     0.025376
      px      :     0.001579
      py      :     0.017677
  4 C s       :     3.137383  s :     3.137383
      pz      :     1.016244  p :     2.754271
      px      :     0.915915
      py      :     0.822112
      dz2     :     0.005047  d :     0.048155
      dxz     :     0.007779
      dyz     :     0.008529
      dx2y2   :     0.014564
      dxy     :     0.012236
  5 C s       :     3.148390  s :     3.148390
      pz      :     1.006380  p :     2.733473
      px      :     0.904645
      py      :     0.822448
      dz2     :     0.004857  d :     0.048797
      dxz     :     0.008429
      dyz     :     0.008440
      dx2y2   :     0.014269
      dxy     :     0.012801
  6 C s       :     3.234705  s :     3.234705
      pz      :     1.076814  p :     2.961912
      px      :     0.815944
      py      :     1.069154
      dz2     :     0.014913  d :     0.064459
      dxz     :     0.009588
      dyz     :     0.012185
      dx2y2   :     0.014814
      dxy     :     0.012959
  7 C s       :     3.234025  s :     3.234025
      pz      :     1.079109  p :     2.962962
      px      :     0.802809
      py      :     1.081044
      dz2     :     0.013807  d :     0.064643
      dxz     :     0.011839
      dyz     :     0.011482
      dx2y2   :     0.016463
      dxy     :     0.011052
  8 C s       :     2.980066  s :     2.980066
      pz      :     0.973223  p :     2.938689
      px      :     1.023924
      py      :     0.941542
      dz2     :     0.007660  d :     0.026038
      dxz     :     0.001719
      dyz     :     0.005833
      dx2y2   :     0.005142
      dxy     :     0.005683
  9 C s       :     2.980574  s :     2.980574
      pz      :     1.008998  p :     2.960652
      px      :     0.985459
      py      :     0.966195
      dz2     :     0.006836  d :     0.025990
      dxz     :     0.001714
      dyz     :     0.006703
      dx2y2   :     0.004940
      dxy     :     0.005796
 10 C s       :     2.980595  s :     2.980595
      pz      :     0.905398  p :     2.938816
      px      :     1.021913
      py      :     1.011506
      dz2     :     0.006937  d :     0.026038
      dxz     :     0.002324
      dyz     :     0.007241
      dx2y2   :     0.004555
      dxy     :     0.004982
 11 C s       :     2.978022  s :     2.978022
      pz      :     0.960555  p :     2.938726
      px      :     0.999852
      py      :     0.978319
      dz2     :     0.005989  d :     0.026009
      dxz     :     0.005167
      dyz     :     0.004767
      dx2y2   :     0.007125
      dxy     :     0.002960
 12 C s       :     2.978046  s :     2.978046
      pz      :     0.923732  p :     2.938309
      px      :     0.995193
      py      :     1.019384
      dz2     :     0.005508  d :     0.026005
      dxz     :     0.005142
      dyz     :     0.006082
      dx2y2   :     0.006327
      dxy     :     0.002947
 13 C s       :     2.986328  s :     2.986328
      pz      :     1.004001  p :     2.963842
      px      :     1.036023
      py      :     0.923818
      dz2     :     0.005231  d :     0.025924
      dxz     :     0.004361
      dyz     :     0.006232
      dx2y2   :     0.006925
      dxy     :     0.003175
 14 H s       :     0.881981  s :     0.881981
      pz      :     0.005547  p :     0.025429
      px      :     0.009058
      py      :     0.010824
 15 H s       :     0.888564  s :     0.888564
      pz      :     0.005816  p :     0.025504
      px      :     0.008271
      py      :     0.011417
 16 H s       :     0.931058  s :     0.931058
      pz      :     0.005150  p :     0.024582
      px      :     0.008489
      py      :     0.010942
 17 H s       :     0.927360  s :     0.927360
      pz      :     0.014190  p :     0.024231
      px      :     0.005440
      py      :     0.004600
 18 H s       :     0.923599  s :     0.923599
      pz      :     0.004594  p :     0.024727
      px      :     0.014796
      py      :     0.005337
 19 H s       :     0.931186  s :     0.931186
      pz      :     0.004731  p :     0.024580
      px      :     0.008471
      py      :     0.011378
 20 H s       :     0.923383  s :     0.923383
      pz      :     0.004043  p :     0.024730
      px      :     0.014846
      py      :     0.005841
 21 H s       :     0.927154  s :     0.927154
      pz      :     0.007786  p :     0.024232
      px      :     0.005231
      py      :     0.011215
 22 H s       :     0.930514  s :     0.930514
      pz      :     0.005258  p :     0.024617
      px      :     0.004849
      py      :     0.014509
 23 H s       :     0.928536  s :     0.928536
      pz      :     0.009021  p :     0.024232
      px      :     0.006794
      py      :     0.008417
 24 H s       :     0.923038  s :     0.923038
      pz      :     0.004028  p :     0.024728
      px      :     0.014536
      py      :     0.006164
 25 H s       :     0.922619  s :     0.922619
      pz      :     0.014793  p :     0.024468
      px      :     0.004619
      py      :     0.005055
 26 H s       :     0.922504  s :     0.922504
      pz      :     0.008518  p :     0.024469
      px      :     0.004548
      py      :     0.011403
 27 H s       :     0.917632  s :     0.917632
      pz      :     0.005105  p :     0.024719
      px      :     0.014297
      py      :     0.005317
 28 H s       :     0.928338  s :     0.928338
      pz      :     0.012598  p :     0.024224
      px      :     0.007193
      py      :     0.004432
 29 H s       :     0.930685  s :     0.930685
      pz      :     0.005285  p :     0.024619
      px      :     0.004902
      py      :     0.014432
 30 H s       :     0.922873  s :     0.922873
      pz      :     0.004821  p :     0.024728
      px      :     0.014525
      py      :     0.005382
 31 H s       :     0.920577  s :     0.920577
      pz      :     0.009274  p :     0.024470
      px      :     0.006799
      py      :     0.008397
 32 H s       :     0.920500  s :     0.920500
      pz      :     0.013516  p :     0.024463
      px      :     0.007144
      py      :     0.003803
 33 H s       :     0.916583  s :     0.916583
      pz      :     0.005156  p :     0.024739
      px      :     0.014807
      py      :     0.004776


                     *******************************
                     * LOEWDIN POPULATION ANALYSIS *
                     *******************************

----------------------
LOEWDIN ATOMIC CHARGES
----------------------
   0 N :    0.109564
   1 C :    0.121828
   2 N :    0.116688
   3 H :    0.056075
   4 C :    0.014638
   5 C :    0.021259
   6 C :    0.013043
   7 C :    0.013471
   8 C :   -0.039995
   9 C :   -0.041345
  10 C :   -0.040054
  11 C :   -0.038882
  12 C :   -0.038901
  13 C :   -0.042901
  14 H :    0.053146
  15 H :    0.054090
  16 H :    0.032242
  17 H :    0.035010
  18 H :    0.040969
  19 H :    0.032148
  20 H :    0.041032
  21 H :    0.035053
  22 H :    0.032509
  23 H :    0.034852
  24 H :    0.041265
  25 H :    0.035539
  26 H :    0.035534
  27 H :    0.045433
  28 H :    0.034960
  29 H :    0.032382
  30 H :    0.041351
  31 H :    0.035839
  32 H :    0.035855
  33 H :    0.046306

-------------------------------
LOEWDIN REDUCED ORBITAL CHARGES
-------------------------------
  0 N s       :     3.045806  s :     3.045806
      pz      :     1.359178  p :     3.767940
      px      :     1.191927
      py      :     1.216835
      dz2     :     0.007288  d :     0.076691
      dxz     :     0.011012
      dyz     :     0.011131
      dx2y2   :     0.020836
      dxy     :     0.026423
  1 C s       :     2.826877  s :     2.826877
      pz      :     0.968806  p :     2.893092
      px      :     0.901929
      py      :     1.022357
      dz2     :     0.012034  d :     0.158204
      dxz     :     0.036813
[...]
     76       0.000331  -0.006970  -0.085232  -0.001018  -0.000433  -0.002217
     77      -0.001264   0.025848   0.316908   0.003008   0.000865   0.006285
     78      -0.000107   0.002073   0.025825   0.001009   0.000323   0.002393
     79       0.000908  -0.017298  -0.215595  -0.003037  -0.001025  -0.006369
     80       0.000692  -0.013155  -0.164156  -0.002073  -0.000538  -0.004285
     81      -0.002486   0.055383   0.687778   0.001356   0.000948   0.003255
     82       0.000900  -0.019412  -0.240369  -0.001060  -0.000169  -0.002298
     83      -0.000273   0.005784   0.071631   0.000339   0.000043   0.000722
     84       0.037284   0.080484  -0.006036  -0.002640   0.000124   0.000774
     85      -0.007349  -0.011592   0.000896   0.000117   0.000001  -0.000023
     86       0.067471   0.142157  -0.010708  -0.004412   0.000148   0.001263
     87      -0.004899  -0.003761   0.000326  -0.000029   0.000034  -0.000032
     88       0.219780   0.152174  -0.013272   0.021519  -0.000081  -0.007126
     89      -0.073326  -0.051396   0.004465  -0.007450  -0.000056   0.002565
     90       0.320284   0.347106  -0.028477   0.003252  -0.000340  -0.001241
     91       0.094739   0.102640  -0.008377   0.001271   0.000044  -0.000452
     92      -0.054842  -0.061040   0.005034  -0.000441   0.000207   0.000153
     93      -0.074257   0.096147  -0.007289  -0.000092   0.002783  -0.000508
     94       0.121909  -0.155922   0.011876   0.000183  -0.002317   0.000484
     95       0.132174  -0.168433   0.012837   0.000025  -0.002745   0.000607
     96      -0.106374   0.118303  -0.009091  -0.000203   0.004478  -0.000799
     97       0.021880  -0.024300   0.001872   0.000149  -0.000603   0.000089
     98      -0.207631   0.230098  -0.017741  -0.000297   0.005596  -0.001108
     99      -0.527662   0.632466  -0.048665  -0.001216   0.003340  -0.001051
    100      -0.148555   0.180055  -0.013897  -0.000698   0.000057  -0.000046
    101       0.074085  -0.089353   0.006895   0.000286  -0.000142   0.000060


-----------
IR SPECTRUM
-----------

 Mode   freq       eps      Int      T**2         TX        TY        TZ
       cm**-1   L/(mol*cm) km/mol    a.u.
----------------------------------------------------------------------------
  6:     36.22   0.000000    0.00  0.000001  (-0.000120  0.000068  0.000716)
  7:     42.10   0.000000    0.00  0.000001  (-0.000486 -0.000994  0.000032)
  8:    101.14   0.000025    0.12  0.000076  ( 0.000681 -0.001881 -0.008503)
  9:    141.81   0.000020    0.10  0.000044  (-0.000475  0.006113 -0.002626)
 10:    157.20   0.000001    0.01  0.000003  (-0.000104 -0.000642 -0.001482)
 11:    228.42   0.000004    0.02  0.000006  ( 0.000431 -0.001622 -0.001806)
 12:    236.00   0.000001    0.01  0.000002  (-0.000158  0.000944 -0.000839)
 13:    263.08   0.000000    0.00  0.000000  (-0.000353 -0.000585  0.000025)
 14:    263.91   0.000021    0.11  0.000025  ( 0.001012  0.004695 -0.001343)
 15:    272.34   0.000035    0.17  0.000040  (-0.003644 -0.004764  0.001911)
 16:    301.83   0.000007    0.03  0.000007  ( 0.002623  0.000125  0.000015)
 17:    335.46   0.000027    0.14  0.000025  (-0.000313  0.002177  0.004525)
 18:    335.92   0.000017    0.08  0.000015  (-0.000736  0.001169  0.003681)
 19:    340.29   0.000021    0.11  0.000019  ( 0.000406  0.004359 -0.000470)
 20:    349.05   0.000053    0.27  0.000047  ( 0.000350 -0.000709 -0.006826)
 21:    363.12   0.000003    0.02  0.000003  (-0.000475 -0.000469 -0.001589)
 22:    370.60   0.000006    0.03  0.000005  ( 0.000971 -0.002029 -0.000605)
 23:    410.65   0.000017    0.08  0.000013  ( 0.003335  0.001189 -0.000051)
 24:    443.82   0.000009    0.05  0.000007  ( 0.000278  0.000599  0.002469)
 25:    471.71   0.000053    0.27  0.000035  ( 0.004611  0.003518 -0.001277)
 26:    474.33   0.000008    0.04  0.000005  (-0.000330 -0.001134 -0.001900)
 27:    519.88   0.000007    0.04  0.000004  ( 0.001593  0.001288  0.000393)
 28:    574.32   0.000150    0.76  0.000082  (-0.000472  0.008640 -0.002622)
 29:    636.11   0.001663    8.41  0.000816  (-0.028493  0.001155  0.001674)
 30:    683.24   0.006770   34.21  0.003092  (-0.001968 -0.019078 -0.052196)
 31:    686.45   0.008122   41.05  0.003692  ( 0.002629  0.020649  0.057088)
 32:    759.82   0.008932   45.14  0.003668  (-0.000271 -0.020154 -0.057114)
 33:    846.81   0.000008    0.04  0.000003  (-0.001184  0.001169 -0.000509)
 34:    850.85   0.000231    1.17  0.000085  ( 0.009118  0.000542 -0.001082)
 35:    898.38   0.005106   25.80  0.001774  ( 0.002472  0.015080  0.039243)
 36:    913.32   0.000005    0.03  0.000002  ( 0.000394  0.000918  0.000928)
 37:    947.95   0.000553    2.79  0.000182  ( 0.001226 -0.003585 -0.012947)
 38:    949.15   0.000598    3.02  0.000197  ( 0.000815  0.005843  0.012719)
 39:    956.12   0.001198    6.05  0.000391  ( 0.009403  0.016536 -0.005385)
 40:    956.53   0.000412    2.08  0.000135  (-0.002104  0.010086 -0.005326)
 41:    970.83   0.000049    0.25  0.000016  (-0.000675 -0.001662 -0.003529)
 42:    973.33   0.000024    0.12  0.000008  (-0.000188  0.001192  0.002493)
 43:   1022.32   0.001442    7.29  0.000440  ( 0.020961 -0.000867 -0.000119)
 44:   1039.02   0.000102    0.51  0.000031  ( 0.002758 -0.004589  0.001361)
 45:   1050.53   0.000123    0.62  0.000037  ( 0.005411 -0.002636  0.000597)
 46:   1052.05   0.000019    0.10  0.000006  ( 0.001985 -0.000634  0.001114)
 47:   1054.90   0.000040    0.20  0.000012  (-0.000364  0.000908  0.003311)
 48:   1056.72   0.000136    0.68  0.000040  ( 0.000712  0.002882  0.005586)
 49:   1122.97   0.004921   24.87  0.001367  ( 0.002457  0.034720 -0.012489)
 50:   1151.92   0.016307   82.41  0.004418  ( 0.066411 -0.002426 -0.001202)
 51:   1221.01   0.002652   13.40  0.000678  ( 0.012464 -0.021318  0.008246)
 52:   1234.90   0.076757  387.90  0.019397  ( 0.139221 -0.002275 -0.003047)
 53:   1267.90   0.000291    1.47  0.000072  ( 0.000954  0.007976 -0.002679)
 54:   1273.68   0.001741    8.80  0.000427  ( 0.018308  0.009051 -0.003087)
 55:   1279.46   0.000388    1.96  0.000095  (-0.000950  0.003832  0.008896)
 56:   1281.05   0.006298   31.83  0.001534  (-0.001914 -0.012852 -0.036952)
 57:   1305.66   0.000293    1.48  0.000070  (-0.008363 -0.000240  0.000367)
 58:   1359.64   0.005058   25.56  0.001161  ( 0.000601  0.031949 -0.011826)
 59:   1395.92   0.001624    8.21  0.000363  (-0.001304 -0.006314 -0.017929)
 60:   1396.11   0.008816   44.55  0.001971  ( 0.000258 -0.007976 -0.043669)
 61:   1398.89   0.008311   42.00  0.001854  ( 0.016502  0.039324 -0.005936)
 62:   1401.92   0.004723   23.87  0.001051  ( 0.011501 -0.029014  0.008793)
 63:   1412.55   0.001334    6.74  0.000295  (-0.016706  0.003566  0.001718)
 64:   1413.35   0.001534    7.75  0.000339  (-0.016331 -0.007774  0.003388)
 65:   1441.86   0.000077    0.39  0.000017  ( 0.000631 -0.001267 -0.003834)
 66:   1444.17   0.000089    0.45  0.000019  ( 0.000342  0.000290  0.004363)
 67:   1445.82   0.000301    1.52  0.000065  (-0.007911 -0.001338  0.000762)
 68:   1447.82   0.000017    0.08  0.000004  (-0.000012  0.000376  0.001858)
 69:   1448.67   0.000030    0.15  0.000007  (-0.001308 -0.000803  0.002039)
 70:   1450.62   0.000205    1.03  0.000044  (-0.003070 -0.005377  0.002381)
 71:   1454.64   0.000605    3.06  0.000130  ( 0.011310 -0.000055 -0.001331)
 72:   1460.49   0.005829   29.46  0.001246  (-0.004086 -0.033072  0.011623)
 73:   1470.22   0.001507    7.61  0.000320  (-0.000705 -0.006644 -0.016588)
 74:   1471.10   0.001824    9.22  0.000387  (-0.001285 -0.006374 -0.018563)
 75:   1473.72   0.000296    1.50  0.000063  (-0.007442  0.001075 -0.002486)
 76:   1479.23   0.001879    9.50  0.000396  ( 0.018948 -0.006076  0.000712)
 77:   1481.37   0.000806    4.08  0.000170  (-0.010417 -0.006515  0.004349)
 78:   1490.72   0.000114    0.58  0.000024  ( 0.004778  0.000976 -0.000369)
 79:   1635.12   0.028568  144.37  0.005452  (-0.073564 -0.005264  0.003585)
 80:   1648.43   0.006592   33.31  0.001248  ( 0.029208 -0.018976  0.005895)
 81:   3070.98   0.003084   15.58  0.000313  (-0.000030 -0.000773 -0.017685)
 82:   3072.42   0.003283   16.59  0.000333  ( 0.007388 -0.016697  0.000232)
 83:   3072.97   0.002470   12.48  0.000251  (-0.002344 -0.015663  0.000177)
 84:   3073.14   0.003243   16.39  0.000329  ( 0.002244  0.003148  0.017730)
 85:   3076.91   0.000262    1.33  0.000027  ( 0.004968 -0.000247  0.001368)
 86:   3077.47   0.000582    2.94  0.000059  ( 0.004878  0.005205 -0.002846)
 87:   3175.80   0.001635    8.26  0.000161  ( 0.000052 -0.003523 -0.012175)
 88:   3176.30   0.001787    9.03  0.000176  ( 0.005348  0.010126  0.006665)
 89:   3178.32   0.004329   21.88  0.000425  (-0.009749 -0.015468  0.009525)
 90:   3179.55   0.002217   11.21  0.000218  (-0.002962  0.002901 -0.014158)
 91:   3180.47   0.002019   10.21  0.000198  (-0.000312 -0.004093 -0.013464)
 92:   3180.75   0.003561   17.99  0.000349  ( 0.005772 -0.017775  0.000290)
 93:   3184.10   0.001800    9.10  0.000176  ( 0.002290 -0.005436 -0.011901)
 94:   3184.63   0.000774    3.91  0.000076  (-0.001641 -0.004759 -0.007103)
 95:   3185.05   0.001332    6.73  0.000130  (-0.011279 -0.001788 -0.000294)
 96:   3185.73   0.001542    7.79  0.000151  (-0.003544 -0.010561  0.005189)
 97:   3189.90   0.005525   27.92  0.000541  (-0.022699 -0.004406  0.002425)
 98:   3190.43   0.004248   21.47  0.000416  (-0.017194  0.010127 -0.004162)
 99:   3312.13   0.005447   27.53  0.000513  (-0.020384  0.009432 -0.002956)
100:   3324.63   0.011839   59.83  0.001111  (-0.004011 -0.031282  0.010796)
101:   3337.19   0.003004   15.18  0.000281  (-0.009362 -0.013077  0.004717)

* The epsilon (eps) is given for a Dirac delta lineshape.
** The dipole moment derivative (T) already includes vibrational overlap.

The first frequency considered to be a vibration is 6
The total number of vibrations considered is 96


--------------------------
THERMOCHEMISTRY AT 298.15K
--------------------------

Temperature         ... 298.15 K
Pressure            ... 1.00 atm
Total Mass          ... 181.30 AMU

Throughout the following assumptions are being made:
  (1) The electronic state is orbitally nondegenerate
  (2) There are no thermally accessible electronically excited states
  (3) Hindered rotations indicated by low frequency modes are not
      treated as such but are treated as vibrations and this may
      cause some error
  (4) All equations used are the standard statistical mechanics
      equations for an ideal gas
  (5) All vibrations are strictly harmonic

freq.      36.22  E(vib)   ...       0.54 
freq.      42.10  E(vib)   ...       0.53 
freq.     101.14  E(vib)   ...       0.46 
freq.     141.81  E(vib)   ...       0.41 
freq.     157.20  E(vib)   ...       0.40 
freq.     228.42  E(vib)   ...       0.32 
freq.     236.00  E(vib)   ...       0.32 
freq.     263.08  E(vib)   ...       0.29 
freq.     263.91  E(vib)   ...       0.29 
freq.     272.34  E(vib)   ...       0.29 
freq.     301.83  E(vib)   ...       0.26 
freq.     335.46  E(vib)   ...       0.24 
freq.     335.92  E(vib)   ...       0.24 
freq.     340.29  E(vib)   ...       0.23 
freq.     349.05  E(vib)   ...       0.23 
freq.     363.12  E(vib)   ...       0.22 
freq.     370.60  E(vib)   ...       0.21 
freq.     410.65  E(vib)   ...       0.19 
freq.     443.82  E(vib)   ...       0.17 
freq.     471.71  E(vib)   ...       0.15 
freq.     474.33  E(vib)   ...       0.15 
freq.     519.88  E(vib)   ...       0.13 
freq.     574.32  E(vib)   ...       0.11 
freq.     636.11  E(vib)   ...       0.09 
freq.     683.24  E(vib)   ...       0.08 
freq.     686.45  E(vib)   ...       0.07 
freq.     759.82  E(vib)   ...       0.06 
freq.     846.81  E(vib)   ...       0.04 
freq.     850.85  E(vib)   ...       0.04 
freq.     898.38  E(vib)   ...       0.03 
freq.     913.32  E(vib)   ...       0.03 
freq.     947.95  E(vib)   ...       0.03 
freq.     949.15  E(vib)   ...       0.03 
freq.     956.12  E(vib)   ...       0.03 
freq.     956.53  E(vib)   ...       0.03 
freq.     970.83  E(vib)   ...       0.03 
freq.     973.33  E(vib)   ...       0.03 
freq.    1022.32  E(vib)   ...       0.02 
freq.    1039.02  E(vib)   ...       0.02 
freq.    1050.53  E(vib)   ...       0.02 
freq.    1052.05  E(vib)   ...       0.02 
freq.    1054.90  E(vib)   ...       0.02 
freq.    1056.72  E(vib)   ...       0.02 
freq.    1122.97  E(vib)   ...       0.01 
freq.    1151.92  E(vib)   ...       0.01 
freq.    1221.01  E(vib)   ...       0.01 
freq.    1234.90  E(vib)   ...       0.01 
freq.    1267.90  E(vib)   ...       0.01 
freq.    1273.68  E(vib)   ...       0.01 
freq.    1279.46  E(vib)   ...       0.01 
freq.    1281.05  E(vib)   ...       0.01 
freq.    1305.66  E(vib)   ...       0.01 
freq.    1359.64  E(vib)   ...       0.01 
freq.    1395.92  E(vib)   ...       0.00 
freq.    1396.11  E(vib)   ...       0.00 
freq.    1398.89  E(vib)   ...       0.00 
freq.    1401.92  E(vib)   ...       0.00 
freq.    1412.55  E(vib)   ...       0.00 
freq.    1413.35  E(vib)   ...       0.00 
freq.    1441.86  E(vib)   ...       0.00 
freq.    1444.17  E(vib)   ...       0.00 
freq.    1445.82  E(vib)   ...       0.00 
freq.    1447.82  E(vib)   ...       0.00 
freq.    1448.67  E(vib)   ...       0.00 
freq.    1450.62  E(vib)   ...       0.00 
freq.    1454.64  E(vib)   ...       0.00 
freq.    1460.49  E(vib)   ...       0.00 
freq.    1470.22  E(vib)   ...       0.00 
freq.    1471.10  E(vib)   ...       0.00 
freq.    1473.72  E(vib)   ...       0.00 
freq.    1479.23  E(vib)   ...       0.00 
freq.    1481.37  E(vib)   ...       0.00 
freq.    1490.72  E(vib)   ...       0.00 
freq.    1635.12  E(vib)   ...       0.00 
freq.    1648.43  E(vib)   ...       0.00 
freq.    3070.98  E(vib)   ...       0.00 
freq.    3072.42  E(vib)   ...       0.00 
freq.    3072.97  E(vib)   ...       0.00 
freq.    3073.14  E(vib)   ...       0.00 
freq.    3076.91  E(vib)   ...       0.00 
freq.    3077.47  E(vib)   ...       0.00 
freq.    3175.80  E(vib)   ...       0.00 
freq.    3176.30  E(vib)   ...       0.00 
freq.    3178.32  E(vib)   ...       0.00 
freq.    3179.55  E(vib)   ...       0.00 
freq.    3180.47  E(vib)   ...       0.00 
freq.    3180.75  E(vib)   ...       0.00 
freq.    3184.10  E(vib)   ...       0.00 
freq.    3184.63  E(vib)   ...       0.00 
freq.    3185.05  E(vib)   ...       0.00 
freq.    3185.73  E(vib)   ...       0.00 
freq.    3189.90  E(vib)   ...       0.00 
freq.    3190.43  E(vib)   ...       0.00 
freq.    3312.13  E(vib)   ...       0.00 
freq.    3324.63  E(vib)   ...       0.00 
freq.    3337.19  E(vib)   ...       0.00 

------------
INNER ENERGY
------------

The inner energy is: U= E(el) + E(ZPE) + E(vib) + E(rot) + E(trans)
    E(el)   - is the total energy from the electronic structure calculation
              = E(kin-el) + E(nuc-el) + E(el-el) + E(nuc-nuc)
    E(ZPE)  - the the zero temperature vibrational energy from the frequency calculation
    E(vib)  - the the finite temperature correction to E(ZPE) due to population
              of excited vibrational states
    E(rot)  - is the rotational thermal energy
    E(trans)- is the translational thermal energy

Summary of contributions to the inner energy U:
Electronic energy                ...   -540.69352369 Eh
Zero point energy                ...      0.31121463 Eh     195.29 kcal/mol
Thermal vibrational correction   ...      0.01161149 Eh       7.29 kcal/mol
Thermal rotational correction    ...      0.00141627 Eh       0.89 kcal/mol
Thermal translational correction ...      0.00141627 Eh       0.89 kcal/mol
-----------------------------------------------------------------------
Total thermal energy                   -540.36786502 Eh


Summary of corrections to the electronic energy:
(perhaps to be used in another calculation)
Total thermal correction                  0.01444403 Eh       9.06 kcal/mol
Non-thermal (ZPE) correction              0.31121463 Eh     195.29 kcal/mol
-----------------------------------------------------------------------
Total correction                          0.32565866 Eh     204.35 kcal/mol


--------
ENTHALPY
--------

The enthalpy is H = U + kB*T
                kB is Boltzmann's constant
Total free energy                 ...   -540.36786502 Eh 
Thermal Enthalpy correction       ...      0.00094421 Eh       0.59 kcal/mol
-----------------------------------------------------------------------
Total Enthalpy                    ...   -540.36692082 Eh


Note: Only C1 symmetry has been detected, increase convergence thresholds 
      if your molecule has a higher symmetry. Symmetry factor of 1.0 is   
      used for the rotational entropy correction. 
 

Note: Rotational entropy computed according to Herzberg 
Infrared and Raman Spectra, Chapter V,1, Van Nostrand Reinhold, 1945 
Point Group:  C1, Symmetry Number:   1  
Rotational constants in cm-1:     0.055155     0.014873     0.013877 

Vibrational entropy computed according to the QRRHO of S. Grimme
Chem.Eur.J. 2012 18 9955


-------
ENTROPY
-------

The entropy contributions are T*S = T*(S(el)+S(vib)+S(rot)+S(trans))
     S(el)   - electronic entropy
     S(vib)  - vibrational entropy
     S(rot)  - rotational entropy
     S(trans)- translational entropy
The entropies will be listed as multiplied by the temperature to get
units of energy

Electronic entropy                ...      0.00000000 Eh      0.00 kcal/mol
Vibrational entropy               ...      0.01955293 Eh     12.27 kcal/mol
Rotational entropy                ...      0.01488479 Eh      9.34 kcal/mol
Translational entropy             ...      0.01971392 Eh     12.37 kcal/mol
-----------------------------------------------------------------------
Final entropy term                ...      0.05415164 Eh     33.98 kcal/mol

In case the symmetry of your molecule has not been determined correctly
or in case you have a reason to use a different symmetry number we print 
out the resulting rotational entropy values for sn=1,12 :
 --------------------------------------------------------
|  sn= 1 | S(rot)=       0.01488479 Eh      9.34 kcal/mol|
|  sn= 2 | S(rot)=       0.01423033 Eh      8.93 kcal/mol|
|  sn= 3 | S(rot)=       0.01384750 Eh      8.69 kcal/mol|
|  sn= 4 | S(rot)=       0.01357587 Eh      8.52 kcal/mol|
|  sn= 5 | S(rot)=       0.01336519 Eh      8.39 kcal/mol|
|  sn= 6 | S(rot)=       0.01319304 Eh      8.28 kcal/mol|
|  sn= 7 | S(rot)=       0.01304750 Eh      8.19 kcal/mol|
|  sn= 8 | S(rot)=       0.01292142 Eh      8.11 kcal/mol|
|  sn= 9 | S(rot)=       0.01281021 Eh      8.04 kcal/mol|
|  sn=10 | S(rot)=       0.01271073 Eh      7.98 kcal/mol|
|  sn=11 | S(rot)=       0.01262074 Eh      7.92 kcal/mol|
|  sn=12 | S(rot)=       0.01253859 Eh      7.87 kcal/mol|
 --------------------------------------------------------


-------------------
GIBBS FREE ENERGY
-------------------

The Gibbs free energy is G = H - T*S

Total enthalpy                    ...   -540.36692082 Eh 
Total entropy correction          ...     -0.05415164 Eh    -33.98 kcal/mol
-----------------------------------------------------------------------
Final Gibbs free energy         ...   -540.42107246 Eh

For completeness - the Gibbs free energy minus the electronic energy
G-E(el)                           ...      0.27245123 Eh    170.97 kcal/mol


Timings for individual modules:

Sum of individual times         ...     5972.447 sec (=  99.541 min)
GTO integral calculation        ...        2.483 sec (=   0.041 min)   0.0 %
SCF iterations                  ...     2542.698 sec (=  42.378 min)  42.6 %
SCF Gradient evaluation         ...      660.933 sec (=  11.016 min)  11.1 %
Geometry relaxation             ...        0.460 sec (=   0.008 min)   0.0 %
Analytical frequency calculation...     2765.873 sec (=  46.098 min)  46.3 %
                             ****ORCA TERMINATED NORMALLY****
TOTAL RUN TIME: 0 days 1 hours 39 minutes 33 seconds 477 msec
