
                                 *****************
                                 * O   R   C   A *
                                 *****************

                                            #,                                       
                                            ###                                      
                                            ####                                     
                                            #####                                    
                                            ######                                   
                                           ########,                                 
                                     ,,################,,,,,                         
                               ,,#################################,,                 
                          ,,##########################################,,             
                       ,#########################################, ''#####,          
                    ,#############################################,,   '####,        
                  ,##################################################,,,,####,       
                ,###########''''           ''''###############################       
              ,#####''   ,,,,##########,,,,          '''####'''          '####       
            ,##' ,,,,###########################,,,                        '##       
           ' ,,###''''                  '''############,,,                           
         ,,##''                                '''############,,,,        ,,,,,,###''
      ,#''                                            '''#######################'''  
     '                                                          ''''####''''         
             ,#######,   #######,   ,#######,      ##                                
            ,#'     '#,  ##    ##  ,#'     '#,    #''#        ######   ,####,        
            ##       ##  ##   ,#'  ##            #'  '#       #        #'  '#        
            ##       ##  #######   ##           ,######,      #####,   #    #        
            '#,     ,#'  ##    ##  '#,     ,#' ,#      #,         ##   #,  ,#        
             '#######'   ##     ##  '#######'  #'      '#     #####' # '####'        



                  #######################################################
                  #                        -***-                        #
                  #          Department of theory and spectroscopy      #
                  #    Directorship and core code : Frank Neese         #
                  #        Max Planck Institute fuer Kohlenforschung    #
                  #                Kaiser Wilhelm Platz 1               #
                  #                 D-45470 Muelheim/Ruhr               #
                  #                      Germany                        #
                  #                                                     #
                  #                  All rights reserved                #
                  #                        -***-                        #
                  #######################################################


                         Program Version 5.0.4 -  RELEASE  -


 With contributions from (in alphabetic order):
   Daniel Aravena         : Magnetic Suceptibility
   Michael Atanasov       : Ab Initio Ligand Field Theory (pilot matlab implementation)
   Alexander A. Auer      : GIAO ZORA, VPT2 properties, NMR spectrum
   Ute Becker             : Parallelization
   Giovanni Bistoni       : ED, misc. LED, open-shell LED, HFLD
   Martin Brehm           : Molecular dynamics
   Dmytro Bykov           : SCF Hessian
   Vijay G. Chilkuri      : MRCI spin determinant printing, contributions to CSF-ICE
   Dipayan Datta          : RHF DLPNO-CCSD density
   Achintya Kumar Dutta   : EOM-CC, STEOM-CC
   Dmitry Ganyushin       : Spin-Orbit,Spin-Spin,Magnetic field MRCI
   Miquel Garcia          : C-PCM and meta-GGA Hessian, CC/C-PCM, Gaussian charge scheme
   Yang Guo               : DLPNO-NEVPT2, F12-NEVPT2, CIM, IAO-localization
   Andreas Hansen         : Spin unrestricted coupled pair/coupled cluster methods
   Benjamin Helmich-Paris : MC-RPA, TRAH-SCF, COSX integrals
   Lee Huntington         : MR-EOM, pCC
   Robert Izsak           : Overlap fitted RIJCOSX, COSX-SCS-MP3, EOM
   Marcus Kettner         : VPT2
   Christian Kollmar      : KDIIS, OOCD, Brueckner-CCSD(T), CCSD density, CASPT2, CASPT2-K
   Simone Kossmann        : Meta GGA functionals, TD-DFT gradient, OOMP2, MP2 Hessian
   Martin Krupicka        : Initial AUTO-CI
   Lucas Lang             : DCDCAS
   Marvin Lechner         : AUTO-CI (C++ implementation), FIC-MRCC
   Dagmar Lenk            : GEPOL surface, SMD
   Dimitrios Liakos       : Extrapolation schemes; Compound Job, initial MDCI parallelization
   Dimitrios Manganas     : Further ROCIS development; embedding schemes
   Dimitrios Pantazis     : SARC Basis sets
   Anastasios Papadopoulos: AUTO-CI, single reference methods and gradients
   Taras Petrenko         : DFT Hessian,TD-DFT gradient, ASA, ECA, R-Raman, ABS, FL, XAS/XES, NRVS
   Peter Pinski           : DLPNO-MP2, DLPNO-MP2 Gradient
   Christoph Reimann      : Effective Core Potentials
   Marius Retegan         : Local ZFS, SOC
   Christoph Riplinger    : Optimizer, TS searches, QM/MM, DLPNO-CCSD(T), (RO)-DLPNO pert. Triples
   Tobias Risthaus        : Range-separated hybrids, TD-DFT gradient, RPA, STAB
   Michael Roemelt        : Original ROCIS implementation
   Masaaki Saitow         : Open-shell DLPNO-CCSD energy and density
   Barbara Sandhoefer     : DKH picture change effects
   Avijit Sen             : IP-ROCIS
   Kantharuban Sivalingam : CASSCF convergence, NEVPT2, FIC-MRCI
   Bernardo de Souza      : ESD, SOC TD-DFT
   Georgi Stoychev        : AutoAux, RI-MP2 NMR, DLPNO-MP2 response
   Willem Van den Heuvel  : Paramagnetic NMR
   Boris Wezisla          : Elementary symmetry handling
   Frank Wennmohs         : Technical directorship


 We gratefully acknowledge several colleagues who have allowed us to
 interface, adapt or use parts of their codes:
   Stefan Grimme, W. Hujo, H. Kruse, P. Pracht,  : VdW corrections, initial TS optimization,
                  C. Bannwarth, S. Ehlert          DFT functionals, gCP, sTDA/sTD-DF
   Ed Valeev, F. Pavosevic, A. Kumar             : LibInt (2-el integral package), F12 methods
   Garnet Chan, S. Sharma, J. Yang, R. Olivares  : DMRG
   Ulf Ekstrom                                   : XCFun DFT Library
   Mihaly Kallay                                 : mrcc  (arbitrary order and MRCC methods)
   Jiri Pittner, Ondrej Demel                    : Mk-CCSD
   Frank Weinhold                                : gennbo (NPA and NBO analysis)
   Christopher J. Cramer and Donald G. Truhlar   : smd solvation model
   Lars Goerigk                                  : TD-DFT with DH, B97 family of functionals
   V. Asgeirsson, H. Jonsson                     : NEB implementation
   FAccTs GmbH                                   : IRC, NEB, NEB-TS, DLPNO-Multilevel, CI-OPT
                                                   MM, QMMM, 2- and 3-layer-ONIOM, Crystal-QMMM,
                                                   LR-CPCM, SF, NACMEs, symmetry and pop. for TD-DFT,
                                                   nearIR, NL-DFT gradient (VV10), updates on ESD,
                                                   ML-optimized integration grids
   S Lehtola, MJT Oliveira, MAL Marques          : LibXC Library
   Liviu Ungur et al                             : ANISO software


 Your calculation uses the libint2 library for the computation of 2-el integrals
 For citations please refer to: http://libint.valeyev.net

 Your ORCA version has been built with support for libXC version: 5.1.0
 For citations please refer to: https://tddft.org/programs/libxc/

 This ORCA versions uses:
   CBLAS   interface :  Fast vector & matrix operations
   LAPACKE interface :  Fast linear algebra routines
   SCALAPACK package :  Parallel linear algebra routines
   Shared memory     :  Shared parallel matrices
   BLAS/LAPACK       :  OpenBLAS 0.3.15  USE64BITINT DYNAMIC_ARCH NO_AFFINITY SkylakeX SINGLE_THREADED
        Core in use  :  SkylakeX
   Copyright (c) 2011-2014, The OpenBLAS Project




***************************************
The coordinates will be read from file: 5_prot_aq_3.xyz
***************************************


Your calculation utilizes the atom-pairwise dispersion correction
based on tight binding partial charges (D4)
Cite in your paper:
E.Caldeweyher, C.Bannwarth, S.Grimme, J.Chem.Phys., (2017), 147, 034112.
E.Caldeweyher, S.Ehlert, A.Hansen, H.Neugebauer, S.Grimme, J.Chem.Phys., (2018), in progress.
   

XCFun DFT library Copyright 2009-2010 Ulf Ekstrom and contributors.
See http://admol.org/xcfun for more information.
This is free software; see the source code for copying conditions.
There is ABSOLUTELY NO WARRANTY; not even for MERCHANTABILITY or FITNESS FOR A PARTICULAR PURPOSE.
For details see the documentation.
Scientific users of this library should cite U. Ekstrom, L. Visscher, R. Bast, A. J. Thorvaldsen and K. Ruud;
J.Chem.Theor.Comp. 2010, DOI: 10.1021/ct100117s
XCFun Version 0.99 

================================================================================

----- Orbital basis set information -----
Your calculation utilizes the basis: def2-SVP
   F. Weigend and R. Ahlrichs, Phys. Chem. Chem. Phys. 7, 3297 (2005).

----- AuxJ basis set information -----
Your calculation utilizes the auxiliary basis: def2/J
   F. Weigend, Phys. Chem. Chem. Phys. 8, 1057 (2006).

================================================================================
                                        WARNINGS
                       Please study these warnings very carefully!
================================================================================


WARNING: Geometry Optimization
  ===> : Switching off AutoStart
         For restart on a previous wavefunction, please use MOREAD

INFO   : the flag for use of the SHARK integral package has been found!

================================================================================
                                       INPUT FILE
================================================================================
NAME = 5_prot_aq_3.inp
|  1> # ORCA 5.0.4 - /users/bwb16179/postgrad/2024_03/DFT_Crest_Conformers/Opt/prot/5_prot_aq_3.inp # write input file
|  2> # Basic Mode
|  3> #
|  4> ! Opt Freq wB97X Def2-SVP D4 SlowConv TightSCF Defgrid2 Def2/J RIJCOSX CPCM(Water)
|  5> 
|  6> 
|  7> 
|  8> %maxcore 4500
|  9> 
| 10> %geom
| 11> Maxiter 150
| 12> END
| 13> 
| 14> * xyzfile 1 1 5_prot_aq_3.xyz
| 15> 
| 16>                          ****END OF INPUT****
================================================================================

                       *****************************
                       * Geometry Optimization Run *
                       *****************************

Geometry optimization settings:
Update method            Update   .... BFGS
Choice of coordinates    CoordSys .... Z-matrix Internals
Initial Hessian          InHess   .... Almoef's Model

Convergence Tolerances:
Energy Change            TolE     ....  5.0000e-06 Eh
Max. Gradient            TolMAXG  ....  3.0000e-04 Eh/bohr
RMS Gradient             TolRMSG  ....  1.0000e-04 Eh/bohr
Max. Displacement        TolMAXD  ....  4.0000e-03 bohr
RMS Displacement         TolRMSD  ....  2.0000e-03 bohr
Strict Convergence                ....  False
------------------------------------------------------------------------------
                        ORCA OPTIMIZATION COORDINATE SETUP
------------------------------------------------------------------------------

The optimization will be done in new redundant internal coordinates
Making redundant internal coordinates   ...  (new redundants) done
Evaluating the initial hessian          ...  (Almloef) done
Evaluating the coordinates              ...  done
Calculating the B-matrix                .... done
Calculating the G-matrix                .... done
Diagonalizing the G-matrix              .... done
Small eigenvalue found = 9.615e-03
Small eigenvalue found = 2.475e-02
The first mode is                       ....   87
The number of degrees of freedom        ....   96

    -----------------------------------------------------------------
                    Redundant Internal Coordinates


    -----------------------------------------------------------------
         Definition                    Initial Value    Approx d2E/dq
    -----------------------------------------------------------------
      1. B(C   1,N   0)                  1.3318         0.693002   
      2. B(N   2,C   1)                  1.3284         0.701824   
      3. B(H   3,C   1)                  1.0697         0.388019   
      4. B(C   4,N   2)                  1.3622         0.619684   
      5. B(C   5,C   4)                  1.3604         0.696540   
      6. B(C   5,N   0)                  1.3609         0.622733   
      7. B(C   6,N   0)                  1.4757         0.408504   
      8. B(C   7,N   2)                  1.4736         0.411589   
      9. B(C   8,C   6)                  1.5255         0.379790   
     10. B(C   9,C   6)                  1.5298         0.373865   
     11. B(C  10,C   6)                  1.5302         0.373335   
     12. B(C  11,C   7)                  1.5297         0.373937   
     13. B(C  12,C   7)                  1.5256         0.379679   
     14. B(C  13,C   7)                  1.5297         0.373960   
     15. B(H  14,C   4)                  1.0694         0.388365   
     16. B(H  15,C   5)                  1.0689         0.389194   
     17. B(H  16,C   8)                  1.0874         0.363571   
     18. B(H  17,C   8)                  1.0861         0.365355   
     19. B(H  18,C   8)                  1.0869         0.364208   
     20. B(H  19,C  10)                  1.0871         0.363938   
     21. B(H  20,C  10)                  1.0877         0.363216   
     22. B(H  21,C  10)                  1.0857         0.365811   
     23. B(H  22,C  12)                  1.0874         0.363525   
     24. B(H  23,C  12)                  1.0876         0.363350   
     25. B(H  24,C  12)                  1.0861         0.365273   
     26. B(H  25,C   9)                  1.0863         0.364976   
     27. B(H  26,C   9)                  1.0858         0.365714   
     28. B(H  27,C   9)                  1.0876         0.363307   
     29. B(H  28,C  11)                  1.0857         0.365807   
     30. B(H  29,C  11)                  1.0864         0.364907   
     31. B(H  30,C  11)                  1.0877         0.363159   
     32. B(H  31,C  13)                  1.0877         0.363221   
     33. B(H  32,C  13)                  1.0861         0.365263   
     34. B(H  33,C  13)                  1.0857         0.365800   
     35. A(C   1,N   0,C   5)          107.4722         0.437417   
     36. A(C   1,N   0,C   6)          124.7548         0.405706   
     37. A(C   5,N   0,C   6)          127.7488         0.398134   
     38. A(N   0,C   1,H   3)          124.6751         0.361991   
     39. A(N   0,C   1,N   2)          110.0811         0.446975   
     40. A(N   2,C   1,H   3)          125.2438         0.362773   
     41. A(C   1,N   2,C   4)          107.4075         0.438028   
     42. A(C   1,N   2,C   7)          127.9305         0.407155   
     43. A(C   4,N   2,C   7)          124.6617         0.398317   
     44. A(C   5,C   4,H  14)          129.0897         0.364629   
     45. A(N   2,C   4,H  14)          123.3097         0.355222   
     46. A(N   2,C   4,C   5)          107.6006         0.440323   
     47. A(N   0,C   5,H  15)          123.6340         0.355646   
     48. A(C   4,C   5,H  15)          128.9279         0.364762   
     49. A(N   0,C   5,C   4)          107.4379         0.440713   
     50. A(N   0,C   6,C  10)          107.6346         0.366614   
     51. A(N   0,C   6,C   9)          108.4003         0.366704   
     52. A(C   8,C   6,C   9)          109.8282         0.364426   
     53. A(N   0,C   6,C   8)          109.6163         0.367694   
     54. A(C   9,C   6,C  10)          111.0848         0.363360   
     55. A(C   8,C   6,C  10)          110.2224         0.364338   
     56. A(C  12,C   7,C  13)          109.9700         0.364424   
     57. A(C  11,C   7,C  13)          111.1291         0.363476   
     58. A(N   2,C   7,C  13)          107.8982         0.367193   
     59. A(C  11,C   7,C  12)          110.1295         0.364420   
     60. A(N   2,C   7,C  12)          109.9068         0.368150   
     61. A(N   2,C   7,C  11)          107.7499         0.367189   
     62. A(C   6,C   8,H  18)          111.5838         0.325807   
     63. A(H  16,C   8,H  17)          107.8122         0.291942   
     64. A(C   6,C   8,H  17)          108.9317         0.325975   
     65. A(C   6,C   8,H  16)          111.2366         0.325713   
     66. A(H  17,C   8,H  18)          107.4904         0.292023   
     67. A(H  16,C   8,H  18)          109.6376         0.291798   
     68. A(H  26,C   9,H  27)          108.0631         0.291954   
     69. A(H  25,C   9,H  27)          108.9646         0.291862   
     70. A(C   6,C   9,H  27)          110.7596         0.324833   
     71. A(H  25,C   9,H  26)          107.5901         0.292165   
     72. A(C   6,C   9,H  26)          109.3289         0.325186   
     73. A(C   6,C   9,H  25)          112.0059         0.325078   
     74. A(H  20,C  10,H  21)          108.1814         0.291955   
     75. A(H  19,C  10,H  21)          108.1381         0.292046   
     76. A(C   6,C  10,H  21)          109.5113         0.325124   
     77. A(H  19,C  10,H  20)          108.7198         0.291719   
     78. A(C   6,C  10,H  20)          110.7547         0.324744   
     79. A(C   6,C  10,H  19)          111.4412         0.324850   
     80. A(H  29,C  11,H  30)          108.6915         0.291834   
     81. A(H  28,C  11,H  30)          108.2149         0.291947   
     82. A(C   7,C  11,H  30)          110.7783         0.324822   
     83. A(H  28,C  11,H  29)          108.0179         0.292168   
     84. A(C   7,C  11,H  29)          111.5863         0.325078   
     85. A(C   7,C  11,H  28)          109.4516         0.325210   
     86. A(H  23,C  12,H  24)          107.6258         0.291904   
     87. A(H  22,C  12,H  24)          107.5308         0.291926   
     88. A(C   7,C  12,H  24)          108.8336         0.325947   
     89. A(H  22,C  12,H  23)          109.7557         0.291684   
     90. A(C   7,C  12,H  23)          111.4024         0.325664   
     91. A(C   7,C  12,H  22)          111.5317         0.325690   
     92. A(H  31,C  13,H  33)          108.1891         0.291954   
     93. A(C   7,C  13,H  33)          109.4117         0.325212   
     94. A(H  31,C  13,H  32)          108.7415         0.291887   
     95. A(C   7,C  13,H  32)          111.7457         0.325133   
     96. A(H  32,C  13,H  33)          107.8764         0.292212   
     97. A(C   7,C  13,H  31)          110.7677         0.324834   
     98. D(H   3,C   1,N   0,C   6)     -1.4536         0.039663   
     99. D(N   2,C   1,N   0,C   6)    178.5956         0.039663   
    100. D(N   2,C   1,N   0,C   5)      0.2653         0.039663   
    101. D(H   3,C   1,N   0,C   5)   -179.7839         0.039663   
    102. D(C   7,N   2,C   1,N   0)    179.9409         0.040782   
    103. D(C   4,N   2,C   1,N   0)     -0.2361         0.040782   
    104. D(C   4,N   2,C   1,H   3)    179.8134         0.040782   
    105. D(C   7,N   2,C   1,H   3)     -0.0096         0.040782   
    106. D(H  14,C   4,N   2,C   1)   -179.9093         0.031093   
    107. D(C   5,C   4,N   2,C   1)      0.1132         0.031093   
    108. D(H  14,C   4,N   2,C   7)     -0.0790         0.031093   
    109. D(C   5,C   4,N   2,C   7)    179.9435         0.031093   
    110. D(H  15,C   5,N   0,C   1)    179.9514         0.031423   
    111. D(C   4,C   5,N   0,C   6)   -178.4531         0.031423   
    112. D(C   4,C   5,N   0,C   1)     -0.1880         0.031423   
    113. D(H  15,C   5,C   4,H  14)     -0.0787         0.034142   
    114. D(N   0,C   5,C   4,H  14)   -179.9295         0.034142   
    115. D(N   0,C   5,C   4,N   2)      0.0463         0.034142   
    116. D(H  15,C   5,C   4,N   2)    179.8971         0.034142   
    117. D(H  15,C   5,N   0,C   6)      1.6863         0.031423   
    118. D(C  10,C   6,N   0,C   5)    108.8654         0.014237   
    119. D(C  10,C   6,N   0,C   1)    -69.1202         0.014237   
    120. D(C   9,C   6,N   0,C   5)   -130.8977         0.014237   
    121. D(C   9,C   6,N   0,C   1)     51.1166         0.014237   
    122. D(C   8,C   6,N   0,C   5)    -11.0257         0.014237   
    123. D(C   8,C   6,N   0,C   1)    170.9887         0.014237   
    124. D(C  12,C   7,N   2,C   4)    177.5032         0.014450   
    125. D(C  11,C   7,N   2,C   4)    -62.4819         0.014450   
    126. D(C  11,C   7,N   2,C   1)    117.3128         0.014450   
    127. D(C  13,C   7,N   2,C   1)   -122.6133         0.014450   
    128. D(C  12,C   7,N   2,C   1)     -2.7021         0.014450   
    129. D(C  13,C   7,N   2,C   4)     57.5920         0.014450   
    130. D(H  18,C   8,C   6,C  10)    -53.4114         0.011497   
    131. D(H  18,C   8,C   6,C   9)   -176.1203         0.011497   
    132. D(H  18,C   8,C   6,N   0)     64.8846         0.011497   
    133. D(H  17,C   8,C   6,C   9)    -57.6058         0.011497   
    134. D(H  17,C   8,C   6,C  10)     65.1031         0.011497   
    135. D(H  17,C   8,C   6,N   0)   -176.6008         0.011497   
    136. D(H  16,C   8,C   6,C  10)   -176.1957         0.011497   
    137. D(H  16,C   8,C   6,C   9)     61.0954         0.011497   
    138. D(H  16,C   8,C   6,N   0)    -57.8996         0.011497   
    139. D(H  27,C   9,C   6,C  10)    173.2121         0.011160   
    140. D(H  27,C   9,C   6,C   8)    -64.5902         0.011160   
    141. D(H  27,C   9,C   6,N   0)     55.1493         0.011160   
    142. D(H  26,C   9,C   6,C  10)    -67.8175         0.011160   
    143. D(H  26,C   9,C   6,C   8)     54.3803         0.011160   
    144. D(H  26,C   9,C   6,N   0)    174.1197         0.011160   
    145. D(H  25,C   9,C   6,C  10)     51.3381         0.011160   
    146. D(H  25,C   9,C   6,N   0)    -66.7248         0.011160   
    147. D(H  25,C   9,C   6,C   8)    173.5358         0.011160   
    148. D(H  21,C  10,C   6,C   8)    -59.1488         0.011130   
    149. D(H  21,C  10,C   6,N   0)   -178.6548         0.011130   
    150. D(H  20,C  10,C   6,C   9)   -177.9520         0.011130   
    151. D(H  20,C  10,C   6,C   8)     60.0794         0.011130   
    152. D(H  20,C  10,C   6,N   0)    -59.4266         0.011130   
    153. D(H  19,C  10,C   6,C   9)    -56.7834         0.011130   
    154. D(H  19,C  10,C   6,C   8)   -178.7520         0.011130   
    155. D(H  21,C  10,C   6,C   9)     62.8197         0.011130   
    156. D(H  19,C  10,C   6,N   0)     61.7420         0.011130   
    157. D(H  29,C  11,C   7,N   2)     61.5618         0.011164   
    158. D(H  28,C  11,C   7,C  13)     63.0561         0.011164   
    159. D(H  28,C  11,C   7,C  12)    -59.0583         0.011164   
    160. D(H  28,C  11,C   7,N   2)   -178.9324         0.011164   
    161. D(H  30,C  11,C   7,C  13)   -177.6975         0.011164   
    162. D(H  30,C  11,C   7,C  12)     60.1881         0.011164   
    163. D(H  30,C  11,C   7,N   2)    -59.6860         0.011164   
    164. D(H  29,C  11,C   7,C  13)    -56.4497         0.011164   
    165. D(H  29,C  11,C   7,C  12)   -178.5641         0.011164   
    166. D(H  24,C  12,C   7,C  13)    -60.4776         0.011490   
    167. D(H  24,C  12,C   7,C  11)     62.3200         0.011490   
    168. D(H  24,C  12,C   7,N   2)   -179.1210         0.011490   
    169. D(H  23,C  12,C   7,C  13)     58.0323         0.011490   
    170. D(H  23,C  12,C   7,C  11)   -179.1701         0.011490   
    171. D(H  23,C  12,C   7,N   2)    -60.6111         0.011490   
    172. D(H  22,C  12,C   7,C  13)   -178.9482         0.011490   
    173. D(H  22,C  12,C   7,C  11)    -56.1506         0.011490   
    174. D(H  22,C  12,C   7,N   2)     62.4083         0.011490   
    175. D(H  33,C  13,C   7,C  12)     57.3987         0.011165   
    176. D(H  33,C  13,C   7,C  11)    -64.8083         0.011165   
    177. D(H  33,C  13,C   7,N   2)    177.2700         0.011165   
    178. D(H  32,C  13,C   7,C  12)    176.8022         0.011165   
    179. D(H  32,C  13,C   7,C  11)     54.5952         0.011165   
    180. D(H  32,C  13,C   7,N   2)    -63.3265         0.011165   
    181. D(H  31,C  13,C   7,C  12)    -61.7842         0.011165   
    182. D(H  31,C  13,C   7,C  11)    176.0089         0.011165   
    183. D(H  31,C  13,C   7,N   2)     58.0872         0.011165   
    -----------------------------------------------------------------

Number of atoms                         .... 34
Number of degrees of freedom            .... 183

         *************************************************************
         *                GEOMETRY OPTIMIZATION CYCLE   1            *
         *************************************************************
---------------------------------
CARTESIAN COORDINATES (ANGSTROEM)
---------------------------------
  N     -1.095798    0.145053   -0.222770
  C     -0.018534   -0.230492    0.464363
  N      1.083832    0.105695   -0.196161
  H     -0.043429   -0.729159    1.410360
  C      0.696857    0.714621   -1.351647
  C     -0.663239    0.738568   -1.368493
  C     -2.489098   -0.095556    0.199632
  C      2.483991   -0.120501    0.203773
  C     -3.441083    0.665479   -0.717824
  C     -2.649564    0.398285    1.638598
  C     -2.749927   -1.600153    0.101686
  C      3.122900   -1.042640   -0.836202
  C      2.531664   -0.771572    1.582632
  C      3.187061    1.237520    0.242658
  H      1.386901    1.087684   -2.078521
  H     -1.318764    1.137006   -2.112788
  H     -3.226018    1.731371   -0.711738
  H     -4.457911    0.529686   -0.361258
  H     -3.399479    0.290259   -1.737067
  H     -2.096002   -2.160833    0.764889
  H     -2.599333   -1.951965   -0.916421
  H     -3.777273   -1.809213    0.383882
  H      2.054148   -1.748535    1.579411
  H      2.069059   -0.138779    2.336517
  H      3.570044   -0.915894    1.866517
  H     -2.070477   -0.195897    2.339838
  H     -3.693042    0.324643    1.929577
  H     -2.348181    1.439733    1.724613
  H      4.152853   -1.243257   -0.557390
  H      3.124135   -0.590672   -1.824112
  H      2.593603   -1.991474   -0.887631
  H      2.685221    1.911990    0.932752
  H      3.218985    1.702358   -0.738451
  H      4.209816    1.104774    0.581995

----------------------------
CARTESIAN COORDINATES (A.U.)
----------------------------
  NO LB      ZA    FRAG     MASS         X           Y           Z
   0 N     7.0000    0    14.007   -2.070759    0.274110   -0.420974
   1 C     6.0000    0    12.011   -0.035025   -0.435566    0.877518
   2 N     7.0000    0    14.007    2.048145    0.199735   -0.370690
   3 H     1.0000    0     1.008   -0.082069   -1.377911    2.665195
   4 C     6.0000    0    12.011    1.316869    1.350437   -2.554243
   5 C     6.0000    0    12.011   -1.253339    1.395691   -2.586078
   6 C     6.0000    0    12.011   -4.703713   -0.180575    0.377249
   7 C     6.0000    0    12.011    4.694063   -0.227714    0.385075
   8 C     6.0000    0    12.011   -6.502704    1.257574   -1.356490
   9 C     6.0000    0    12.011   -5.006950    0.752649    3.096502
  10 C     6.0000    0    12.011   -5.196608   -3.023850    0.192159
  11 C     6.0000    0    12.011    5.901426   -1.970305   -1.580193
  12 C     6.0000    0    12.011    4.784152   -1.458060    2.990742
  13 C     6.0000    0    12.011    6.022673    2.338574    0.458558
  14 H     1.0000    0     1.008    2.620862    2.055424   -3.927836
  15 H     1.0000    0     1.008   -2.492103    2.148631   -3.992590
  16 H     1.0000    0     1.008   -6.096291    3.271817   -1.344990
  17 H     1.0000    0     1.008   -8.424231    1.000962   -0.682678
  18 H     1.0000    0     1.008   -6.424085    0.548511   -3.282581
  19 H     1.0000    0     1.008   -3.960870   -4.083382    1.445431
  20 H     1.0000    0     1.008   -4.912028   -3.688679   -1.731785
  21 H     1.0000    0     1.008   -7.138012   -3.418917    0.725432
  22 H     1.0000    0     1.008    3.881777   -3.304253    2.984654
  23 H     1.0000    0     1.008    3.909954   -0.262255    4.415378
  24 H     1.0000    0     1.008    6.746406   -1.730789    3.527206
  25 H     1.0000    0     1.008   -3.912634   -0.370191    4.421654
  26 H     1.0000    0     1.008   -6.978837    0.613487    3.646372
  27 H     1.0000    0     1.008   -4.437419    2.720701    3.259047
  28 H     1.0000    0     1.008    7.847755   -2.349416   -1.053315
  29 H     1.0000    0     1.008    5.903760   -1.116208   -3.447072
  30 H     1.0000    0     1.008    4.901200   -3.763340   -1.677380
  31 H     1.0000    0     1.008    5.074332    3.613138    1.762646
  32 H     1.0000    0     1.008    6.082999    3.216990   -1.395470
  33 H     1.0000    0     1.008    7.955400    2.087720    1.099811

--------------------------------
INTERNAL COORDINATES (ANGSTROEM)
--------------------------------
 N      0   0   0     0.000000000000     0.00000000     0.00000000
 C      1   0   0     1.331796900833     0.00000000     0.00000000
 N      2   1   0     1.328353751032   110.08108828     0.00000000
 H      2   1   3     1.069673096342   124.67511158   179.95081605
 C      3   2   1     1.362236408129   107.40753951   359.76391829
 C      5   3   2     1.360410983373   107.60058057     0.11318300
 C      1   2   3     1.475668750714   124.75483670   178.59562373
 C      3   2   1     1.473620686843   127.93048227   179.94087225
 C      7   1   2     1.525508403332   109.61630135   170.98865777
 C      7   1   2     1.529788441734   108.40029922    51.11658041
 C      7   1   2     1.530174992063   107.63459395   290.87975797
 C      8   3   2     1.529736157122   107.74993103   117.31283886
 C      8   3   2     1.525588331775   109.90682538   357.29790842
 C      8   3   2     1.529719721013   107.89816208   237.38670108
 H      5   3   2     1.069430656408   123.30966605   180.09069019
 H      6   5   3     1.068850122207   128.92794370   179.89709339
 H      9   7   1     1.087389095239   111.23663963   302.10041964
 H      9   7   1     1.086056298942   108.93165362   183.39915916
 H      9   7   1     1.086912031001   111.58378091    64.88464502
 H     11   7   1     1.087114440085   111.44117741    61.74204812
 H     11   7   1     1.087654621027   110.75472780   300.57344122
 H     11   7   1     1.085716935340   109.51126889   181.34519483
 H     13   8   3     1.087423447677   111.53171576    62.40833344
 H     13   8   3     1.087553993878   111.40244093   299.38885128
 H     13   8   3     1.086117760560   108.83361352   180.87897930
 H     10   7   1     1.086338444316   112.00592176   293.27524681
 H     10   7   1     1.085789062477   109.32890289   174.11971034
 H     10   7   1     1.087586474435   110.75956351    55.14928671
 H     12   8   3     1.085719613164   109.45161006   181.06762315
 H     12   8   3     1.086389925217   111.58630224    61.56179409
 H     12   8   3     1.087697212096   110.77827299   300.31398868
 H     14   8   3     1.087650655454   110.76770118    58.08715735
 H     14   8   3     1.086124979013   111.74567007   296.67349614
 H     14   8   3     1.085725038122   109.41171088   177.26997967

---------------------------
INTERNAL COORDINATES (A.U.)
---------------------------
 N      0   0   0     0.000000000000     0.00000000     0.00000000
 C      1   0   0     2.516731408580     0.00000000     0.00000000
 N      2   1   0     2.510224798417   110.08108828     0.00000000
 H      2   1   3     2.021389204911   124.67511158   179.95081605
 C      3   2   1     2.574253741021   107.40753951   359.76391829
 C      5   3   2     2.570804188154   107.60058057     0.11318300
 C      1   2   3     2.788609803235   124.75483670   178.59562373
 C      3   2   1     2.784739523415   127.93048227   179.94087225
 C      7   1   2     2.882793097292   109.61630135   170.98865777
 C      7   1   2     2.890881197716   108.40029922    51.11658041
 C      7   1   2     2.891611671975   107.63459395   290.87975797
 C      8   3   2     2.890782394117   107.74993103   117.31283886
 C      8   3   2     2.882944140161   109.90682538   357.29790842
 C      8   3   2     2.890751334372   107.89816208   237.38670108
 H      5   3   2     2.020931059831   123.30966605   180.09069019
 H      6   5   3     2.019834009180   128.92794370   179.89709339
 H      9   7   1     2.054867591015   111.23663963   302.10041964
 H      9   7   1     2.052348971021   108.93165362   183.39915916
 H      9   7   1     2.053966070256   111.58378091    64.88464502
 H     11   7   1     2.054348567991   111.44117741    61.74204812
 H     11   7   1     2.055369362036   110.75472780   300.57344122
 H     11   7   1     2.051707666753   109.51126889   181.34519483
 H     13   8   3     2.054932507713   111.53171576    62.40833344
 H     13   8   3     2.055179204283   111.40244093   299.38885128
 H     13   8   3     2.052465116646   108.83361352   180.87897930
 H     10   7   1     2.052882148508   112.00592176   293.27524681
 H     10   7   1     2.051843967289   109.32890289   174.11971034
 H     10   7   1     2.055240583639   110.75956351    55.14928671
 H     12   8   3     2.051712727107   109.45161006   181.06762315
 H     12   8   3     2.052979433311   111.58630224    61.56179409
 H     12   8   3     2.055449847491   110.77827299   300.31398868
 H     14   8   3     2.055361868188   110.76770118    58.08715735
 H     14   8   3     2.052478757545   111.74567007   296.67349614
 H     14   8   3     2.051722978793   109.41171088   177.26997967

---------------------
BASIS SET INFORMATION
---------------------
There are 3 groups of distinct atoms

 Group   1 Type N   : 7s4p1d contracted to 3s2p1d pattern {511/31/1}
 Group   2 Type C   : 7s4p1d contracted to 3s2p1d pattern {511/31/1}
 Group   3 Type H   : 4s1p contracted to 2s1p pattern {31/1}

Atom   0N    basis set group =>   1
Atom   1C    basis set group =>   2
Atom   2N    basis set group =>   1
Atom   3H    basis set group =>   3
Atom   4C    basis set group =>   2
Atom   5C    basis set group =>   2
Atom   6C    basis set group =>   2
Atom   7C    basis set group =>   2
Atom   8C    basis set group =>   2
Atom   9C    basis set group =>   2
Atom  10C    basis set group =>   2
Atom  11C    basis set group =>   2
Atom  12C    basis set group =>   2
Atom  13C    basis set group =>   2
Atom  14H    basis set group =>   3
Atom  15H    basis set group =>   3
Atom  16H    basis set group =>   3
Atom  17H    basis set group =>   3
Atom  18H    basis set group =>   3
Atom  19H    basis set group =>   3
Atom  20H    basis set group =>   3
Atom  21H    basis set group =>   3
Atom  22H    basis set group =>   3
Atom  23H    basis set group =>   3
Atom  24H    basis set group =>   3
Atom  25H    basis set group =>   3
Atom  26H    basis set group =>   3
Atom  27H    basis set group =>   3
Atom  28H    basis set group =>   3
Atom  29H    basis set group =>   3
Atom  30H    basis set group =>   3
Atom  31H    basis set group =>   3
Atom  32H    basis set group =>   3
Atom  33H    basis set group =>   3
---------------------------------
AUXILIARY/J BASIS SET INFORMATION
---------------------------------
There are 3 groups of distinct atoms

 Group   1 Type N   : 12s5p4d2f1g contracted to 6s4p3d1f1g pattern {711111/2111/211/2/1}
 Group   2 Type C   : 12s5p4d2f1g contracted to 6s4p3d1f1g pattern {711111/2111/211/2/1}
 Group   3 Type H   : 5s2p1d contracted to 3s1p1d pattern {311/2/1}

Atom   0N    basis set group =>   1
Atom   1C    basis set group =>   2
Atom   2N    basis set group =>   1
Atom   3H    basis set group =>   3
Atom   4C    basis set group =>   2
Atom   5C    basis set group =>   2
Atom   6C    basis set group =>   2
Atom   7C    basis set group =>   2
Atom   8C    basis set group =>   2
Atom   9C    basis set group =>   2
Atom  10C    basis set group =>   2
Atom  11C    basis set group =>   2
Atom  12C    basis set group =>   2
Atom  13C    basis set group =>   2
Atom  14H    basis set group =>   3
Atom  15H    basis set group =>   3
Atom  16H    basis set group =>   3
Atom  17H    basis set group =>   3
Atom  18H    basis set group =>   3
Atom  19H    basis set group =>   3
Atom  20H    basis set group =>   3
Atom  21H    basis set group =>   3
Atom  22H    basis set group =>   3
Atom  23H    basis set group =>   3
Atom  24H    basis set group =>   3
Atom  25H    basis set group =>   3
Atom  26H    basis set group =>   3
Atom  27H    basis set group =>   3
Atom  28H    basis set group =>   3
Atom  29H    basis set group =>   3
Atom  30H    basis set group =>   3
Atom  31H    basis set group =>   3
Atom  32H    basis set group =>   3
Atom  33H    basis set group =>   3
------------------------------------------------------------------------------
                           ORCA GTO INTEGRAL CALCULATION
                           -- RI-GTO INTEGRALS CHOSEN --
------------------------------------------------------------------------------
------------------------------------------------------------------------------
                   ___                                                        
                  /   \      - P O W E R E D   B Y -                         
                 /     \                                                     
                 |  |  |   _    _      __       _____    __    __             
                 |  |  |  | |  | |    /  \     |  _  \  |  |  /  |          
                  \  \/   | |  | |   /    \    | | | |  |  | /  /          
                 / \  \   | |__| |  /  /\  \   | |_| |  |  |/  /          
                |  |  |   |  __  | /  /__\  \  |    /   |      \           
                |  |  |   | |  | | |   __   |  |    \   |  |\   \          
                \     /   | |  | | |  |  |  |  | |\  \  |  | \   \       
                 \___/    |_|  |_| |__|  |__|  |_| \__\ |__|  \__/        
                                                                              
                      - O R C A' S   B I G   F R I E N D -                    
                                      &                                       
                       - I N T E G R A L  F E E D E R -                       
                                                                              
 v1 FN, 2020, v2 2021                                                         
------------------------------------------------------------------------------


Reading SHARK input file 5_prot_aq_3.SHARKINP.tmp ... ok
----------------------
SHARK INTEGRAL PACKAGE
----------------------

Number of atoms                             ...     34
Number of basis functions                   ...    287
Number of shells                            ...    141
Maximum angular momentum                    ...      2
Integral batch strategy                     ... SHARK/LIBINT Hybrid
RI-J (if used) integral strategy            ... SPLIT-RIJ (Revised 2003 algorithm where possible)
Printlevel                                  ...      1
Contraction scheme used                     ... SEGMENTED contraction
Coulomb Range Separation                    ... NOT USED
Exchange Range Separation                   ... Long Range
   Mu parameter                             ...  0.300000
   Scaling (regular/separated)              ...  0.157706  0.842294
Finite Nucleus Model                        ... NOT USED
Auxiliary Coulomb fitting basis             ... AVAILABLE
   # of basis functions in Aux-J            ...    868
   # of shells in Aux-J                     ...    300
   Maximum angular momentum in Aux-J        ...      4
Auxiliary J/K fitting basis                 ... NOT available
Auxiliary Correlation fitting basis         ... NOT available
Auxiliary 'external' fitting basis          ... NOT available
Integral threshold                          ...     2.500000e-11
Primitive cut-off                           ...     2.500000e-12
Primitive pair pre-selection threshold      ...     2.500000e-12

Calculating pre-screening integrals         ... done (  0.1 sec) Dimension = 141
Organizing shell pair data                  ... done (  0.1 sec)
Shell pair information
Total number of shell pairs                 ...     10011
Shell pairs after pre-screening             ...      8601
Total number of primitive shell pairs       ...     34423
Primitive shell pairs kept                  ...     20683
          la=0 lb=0:   2954 shell pairs
          la=1 lb=0:   3268 shell pairs
          la=1 lb=1:    928 shell pairs
          la=2 lb=0:    889 shell pairs
          la=2 lb=1:    487 shell pairs
          la=2 lb=2:     75 shell pairs

Calculating one electron integrals          ... done (  0.1 sec)
Calculating RI/J V-Matrix + Cholesky decomp.... done (  0.0 sec)
Calculating Nuclear repulsion               ... done (  0.0 sec) ENN=    877.817444181834 Eh

SHARK setup successfully completed in   0.4 seconds

Maximum memory used throughout the entire GTOINT-calculation: 48.7 MB
-------------------------------------------------------------------------------
                                 ORCA SCF
-------------------------------------------------------------------------------

------------
SCF SETTINGS
------------
Hamiltonian:
 Density Functional     Method          .... DFT(GTOs)
 Exchange Functional    Exchange        .... WB97X
 Correlation Functional Correlation     .... WB97X
 Gradients option       PostSCFGGA      .... off
 Hybrid DFT is turned on
   Fraction HF Exchange ScalHFX         ....  0.157706
   Scaling of DF-GGA-X  ScalDFX         ....  0.000000
   Scaling of DF-GGA-C  ScalDFC         ....  1.000000
   Scaling of DF-LDA-C  ScalLDAC        ....  1.000000
   Perturbative correction              ....  0.000000
   Density functional embedding theory  .... OFF
 Long-range corrected/Screened/Range-Separated Hybrid DFT is turned on
   Amount of maximum screened exact exchange              ....  0.842294
   Range separation parameter mu (erf(mu*r12)/r12)        ....  0.300000
 RI-approximation to the Coulomb term is turned on
   Number of AuxJ basis functions       .... 868
   RIJ-COSX (HFX calculated with COS-X)).... on


General Settings:
 Integral files         IntName         .... 5_prot_aq_3
 Hartree-Fock type      HFTyp           .... RHF
 Total Charge           Charge          ....    1
 Multiplicity           Mult            ....    1
 Number of Electrons    NEL             ....  100
 Basis Dimension        Dim             ....  287
 Nuclear Repulsion      ENuc            ....    877.8174441818 Eh

Convergence Acceleration:
 DIIS                   CNVDIIS         .... on
   Start iteration      DIISMaxIt       ....     0
   Startup error        DIISStart       ....  0.200000
   # of expansion vecs  DIISMaxEq       ....     5
   Bias factor          DIISBfac        ....   1.050
   Max. coefficient     DIISMaxC        ....  10.000
 Trust-Rad. Augm. Hess. CNVTRAH         .... auto
   Auto Start mean grad. ratio tolernc. ....  1.125000
   Auto Start start iteration           ....    20
   Auto Start num. interpolation iter.  ....    10
   Max. Number of Micro iterations      ....    16
   Max. Number of Macro iterations      .... Maxiter - #DIIS iter
   Number of Davidson start vectors     ....     2
   Converg. threshold I  (grad. norm)   ....   1.000e-05
   Converg. threshold II (energy diff.) ....   1.000e-08
   Grad. Scal. Fac. for Micro threshold ....   0.100
   Minimum threshold for Micro iter.    ....   0.010
   NR start threshold (gradient norm)   ....   0.001
   Initial trust radius                 ....   0.400
   Minimum AH scaling param. (alpha)    ....   1.000
   Maximum AH scaling param. (alpha)    .... 1000.000
   Orbital update algorithm             .... Taylor
   White noise on init. David. guess    .... on
   Maximum white noise                  ....   0.010
   Quad. conv. algorithm                .... NR
 SOSCF                  CNVSOSCF        .... on
   Start iteration      SOSCFMaxIt      ....   150
   Startup grad/error   SOSCFStart      ....  0.001000
 Level Shifting         CNVShift        .... on
   Level shift para.    LevelShift      ....    0.2500
   Turn off err/grad.   ShiftErr        ....    0.0000
 Zerner damping         CNVZerner       .... off
 Static damping         CNVDamp         .... on
   Fraction old density DampFac         ....    0.8500
   Max. Damping (<1)    DampMax         ....    0.9800
   Min. Damping (>=0)   DampMin         ....    0.0000
   Turn off err/grad.   DampErr         ....    0.0300
 Fernandez-Rico         CNVRico         .... off

SCF Procedure:
 Maximum # iterations   MaxIter         ....   125
 SCF integral mode      SCFMode         .... Direct
   Integral package                     .... SHARK and LIBINT hybrid scheme
 Reset frequency        DirectResetFreq ....    20
 Integral Threshold     Thresh          ....  2.500e-11 Eh
 Primitive CutOff       TCut            ....  2.500e-12 Eh

Convergence Tolerance:
 Convergence Check Mode ConvCheckMode   .... Total+1el-Energy
 Convergence forced     ConvForced      .... 0
 Energy Change          TolE            ....  1.000e-08 Eh
 1-El. energy change                    ....  1.000e-05 Eh
 Orbital Gradient       TolG            ....  1.000e-05
 Orbital Rotation angle TolX            ....  1.000e-05
 DIIS Error             TolErr          ....  5.000e-07


Diagonalization of the overlap matrix:
Smallest eigenvalue                        ... 1.051e-03
Time for diagonalization                   ...    0.013 sec
Threshold for overlap eigenvalues          ... 1.000e-08
Number of eigenvalues below threshold      ... 0
Time for construction of square roots      ...    0.007 sec
Total time needed                          ...    0.021 sec

Time for model grid setup =    0.693 sec

------------------------------
INITIAL GUESS: MODEL POTENTIAL
------------------------------
Loading Hartree-Fock densities                     ... done
Calculating cut-offs                               ... done
Initializing the effective Hamiltonian             ... done
Setting up the integral package (SHARK)            ... done
Starting the Coulomb interaction                   ... done (   0.8 sec)
Reading the grid                                   ... done
Mapping shells                                     ... done
Starting the XC term evaluation                    ... done (   0.8 sec)
  promolecular density results
     # of electrons  =    100.986843669
     EX              =    -75.694298318
     EC              =     -3.362734949
     EX+EC           =    -79.057033267
Transforming the Hamiltonian                       ... done (   0.0 sec)
Diagonalizing the Hamiltonian                      ... done (   0.0 sec)
Back transforming the eigenvectors                 ... done (   0.0 sec)
Now organizing SCF variables                       ... done
                      ------------------
                      INITIAL GUESS DONE (   2.3 sec)
                      ------------------
-------------------
DFT GRID GENERATION
-------------------

General Integration Accuracy     IntAcc      ... 4.388
Radial Grid Type                 RadialGrid  ... OptM3 with GC (2021)
Angular Grid (max. ang.)         AngularGrid ... 4 (Lebedev-302)
Angular grid pruning method      GridPruning ... 4 (adaptive)
Weight generation scheme         WeightScheme... Becke
Basis function cutoff            BFCut       ... 1.0000e-11
Integration weight cutoff        WCut        ... 1.0000e-14
Angular grids for H and He will be reduced by one unit
Partially contracted basis set               ... off
Rotationally invariant grid construction     ... off

Total number of grid points                  ...   144141
Total number of batches                      ...     2271
Average number of points per batch           ...       63
Average number of grid points per atom       ...     4239
Time for grid setup =    2.556 sec

--------------------
COSX GRID GENERATION
--------------------

GRIDX 1
-------
General Integration Accuracy     IntAcc      ... 3.816
Radial Grid Type                 RadialGrid  ... OptM3 with GC (2021)
Angular Grid (max. ang.)         AngularGrid ... 1 (Lebedev-50)
Angular grid pruning method      GridPruning ... 4 (adaptive)
Weight generation scheme         WeightScheme... Becke
Basis function cutoff            BFCut       ... 1.0000e-11
Integration weight cutoff        WCut        ... 1.0000e-14
Angular grids for H and He will be reduced by one unit
Partially contracted basis set               ... on
Rotationally invariant grid construction     ... off

Total number of grid points                  ...    18453
Total number of batches                      ...      307
Average number of points per batch           ...       60
Average number of grid points per atom       ...      543
UseSFitting                                  ... on

GRIDX 2
-------
General Integration Accuracy     IntAcc      ... 4.020
Radial Grid Type                 RadialGrid  ... OptM3 with GC (2021)
Angular Grid (max. ang.)         AngularGrid ... 2 (Lebedev-110)
Angular grid pruning method      GridPruning ... 4 (adaptive)
Weight generation scheme         WeightScheme... Becke
Basis function cutoff            BFCut       ... 1.0000e-11
Integration weight cutoff        WCut        ... 1.0000e-14
Angular grids for H and He will be reduced by one unit
Partially contracted basis set               ... on
Rotationally invariant grid construction     ... off

Total number of grid points                  ...    38181
Total number of batches                      ...      610
Average number of points per batch           ...       62
Average number of grid points per atom       ...     1123
UseSFitting                                  ... on

GRIDX 3
-------
General Integration Accuracy     IntAcc      ... 4.338
Radial Grid Type                 RadialGrid  ... OptM3 with GC (2021)
Angular Grid (max. ang.)         AngularGrid ... 3 (Lebedev-194)
Angular grid pruning method      GridPruning ... 4 (adaptive)
Weight generation scheme         WeightScheme... Becke
Basis function cutoff            BFCut       ... 1.0000e-11
Integration weight cutoff        WCut        ... 1.0000e-14
Angular grids for H and He will be reduced by one unit
Partially contracted basis set               ... on
Rotationally invariant grid construction     ... off

Total number of grid points                  ...    82982
Total number of batches                      ...     1312
Average number of points per batch           ...       63
Average number of grid points per atom       ...     2441
UseSFitting                                  ... on

Time for X-Grid setup             =    3.264 sec


--------------------
CPCM SOLVATION MODEL
--------------------
CPCM parameters:
  Epsilon                                         ...      80.4000
  Refrac                                          ...       1.3300
  Rsolv                                           ...       1.3000
  Surface type                                    ... GAUSSIAN VDW
  Epsilon function type                           ...         CPCM
Radii:
 Radius for N  used is    3.5149 Bohr (=   1.8600 Ang.)
 Radius for C  used is    3.8550 Bohr (=   2.0400 Ang.)
 Radius for H  used is    2.4944 Bohr (=   1.3200 Ang.)
Calculating surface                               ...        done! (  0.0s)
GEPOL surface points                              ...         1754
GEPOL Volume                                      ...    1689.0641
GEPOL Surface-area                                ...     909.1666
Calculating surface distance matrix               ...        done! (  0.0s)
Performing Cholesky decomposition & store         ...        done! (  0.1s)
Overall time for CPCM initialization              ...                 0.1s
--------------
SCF ITERATIONS
--------------
ITER       Energy         Delta-E        Max-DP      RMS-DP      [F,P]     Damp
               ***  Starting incremental Fock matrix formation  ***
  0   -540.3930199488   0.000000000000 0.03397497  0.00063485  0.1511401 0.8500
  1   -540.4540380704  -0.061018121588 0.03052411  0.00059321  0.1217267 0.8500
                               ***Turning on DIIS***
  2   -540.5001948171  -0.046156746681 0.02392163  0.00048238  0.0934368 0.8500
  3   -540.5342839548  -0.034089137712 0.01507340  0.00034193  0.0708129 0.8500
  4   -540.5604263463  -0.026142391553 0.01022552  0.00026251  0.0563661 0.8500
  5   -540.5809162434  -0.020489897089 0.00780701  0.00021582  0.0465741 0.8500
  6   -540.5975082718  -0.016592028352 0.00632824  0.00018230  0.0391408 0.8500
  7   -540.6111977846  -0.013689512889 0.00537670  0.00015690  0.0331263 0.8500
  8   -540.6226199367  -0.011422152040 0.03052577  0.00089984  0.0280095 0.0000
  9   -540.6837083653  -0.061088428638 0.00134820  0.00003231  0.0011990 0.0000
                      *** Initiating the SOSCF procedure ***
                           *** Shutting down DIIS ***
                      *** Re-Reading the Fockian *** 
                      *** Removing any level shift *** 
ITER      Energy       Delta-E        Grad      Rot      Max-DP    RMS-DP
 10   -540.68373035  -0.0000219888  0.000131  0.000131  0.000650  0.000013
               *** Restarting incremental Fock matrix formation ***
 11   -540.68366940   0.0000609550  0.000049  0.000095  0.000322  0.000008
 12   -540.68366971  -0.0000003079  0.000052  0.000106  0.000178  0.000004
 13   -540.68366975  -0.0000000447  0.000013  0.000016  0.000040  0.000001
                  ***Gradient check signals convergence***
              ***Rediagonalizing the Fockian in SOSCF/NRSCF***

               *****************************************************
               *                     SUCCESS                       *
               *           SCF CONVERGED AFTER  14 CYCLES          *
               *****************************************************

Old exchange energy                            =    -25.379351539 Eh
New exchange energy                            =    -25.379354354 Eh
Exchange energy change after final integration =     -0.000002815 Eh
Total energy after final integration           =   -540.683672582 Eh
Final COS-X integration done in                =    91.919 sec

----------------
TOTAL SCF ENERGY
----------------

Total Energy       :         -540.68367258 Eh          -14712.75071 eV

Components:
Nuclear Repulsion  :          877.81744418 Eh           23886.62703 eV
Electronic Energy  :        -1418.50111676 Eh          -38599.37774 eV
One Electron Energy:        -2453.58006945 Eh          -66765.30797 eV
Two Electron Energy:         1035.07895269 Eh           28165.93023 eV
Max COSX asymmetry :            0.00000192 Eh               0.00005 eV
CPCM Dielectric    :           -0.07520494 Eh              -2.04643 eV

Virial components:
Potential Energy   :        -1075.07523463 Eh          -29254.28439 eV
Kinetic Energy     :          534.39156205 Eh           14541.53368 eV
Virial Ratio       :            2.01177434


DFT components:
N(Alpha)           :       49.999943491377 electrons
N(Beta)            :       49.999943491377 electrons
N(Total)           :       99.999886982754 electrons
E(XC)              :      -55.663045259749 Eh       
DFET-embed. en.    :        0.000000000000 Eh       
CPCM Solvation Model Properties:
Surface-charge          :           -1.02410281
Charge-correction       :            0.00318838 Eh               0.08676 eV
Free-energy (cav+disp)  :  This term is not implemented in the current solvation scheme

---------------
SCF CONVERGENCE
---------------

  Last Energy change         ...   -1.4667e-08  Tolerance :   1.0000e-08
  Last MAX-Density change    ...    4.4409e-15  Tolerance :   1.0000e-07
  Last RMS-Density change    ...    3.9769e-17  Tolerance :   5.0000e-09
  Last Orbital Gradient      ...    2.2184e-06  Tolerance :   1.0000e-05
  Last Orbital Rotation      ...    4.0540e-06  Tolerance :   1.0000e-05

             **** THE GBW FILE WAS UPDATED (5_prot_aq_3.gbw) ****
             **** DENSITY 5_prot_aq_3.scfp WAS UPDATED ****
             **** ENERGY FILE WAS UPDATED (5_prot_aq_3.en.tmp) ****
             **** THE GBW FILE WAS UPDATED (5_prot_aq_3.gbw) ****
             **** DENSITY 5_prot_aq_3.scfp WAS UPDATED ****
----------------
ORBITAL ENERGIES
----------------

  NO   OCC          E(Eh)            E(eV) 
   0   2.0000     -14.509999      -394.8371 
   1   2.0000     -14.508275      -394.7902 
   2   2.0000     -10.379441      -282.4390 
   3   2.0000     -10.343404      -281.4583 
   4   2.0000     -10.343084      -281.4496 
   5   2.0000     -10.329958      -281.0924 
   6   2.0000     -10.327730      -281.0318 
   7   2.0000     -10.271949      -279.5139 
   8   2.0000     -10.271097      -279.4908 
   9   2.0000     -10.270105      -279.4638 
  10   2.0000     -10.269503      -279.4474 
  11   2.0000     -10.269345      -279.4431 
  12   2.0000     -10.269201      -279.4392 
  13   2.0000      -1.220892       -33.2222 
  14   2.0000      -1.104652       -30.0591 
  15   2.0000      -0.984085       -26.7783 
  16   2.0000      -0.934888       -25.4396 
  17   2.0000      -0.922821       -25.1112 
  18   2.0000      -0.837197       -22.7813 
  19   2.0000      -0.827316       -22.5124 
  20   2.0000      -0.826477       -22.4896 
  21   2.0000      -0.826085       -22.4789 
  22   2.0000      -0.799357       -21.7516 
  23   2.0000      -0.769501       -20.9392 
  24   2.0000      -0.730239       -19.8708 
  25   2.0000      -0.708450       -19.2779 
  26   2.0000      -0.645355       -17.5610 
  27   2.0000      -0.633115       -17.2279 
  28   2.0000      -0.609213       -16.5775 
  29   2.0000      -0.589997       -16.0546 
  30   2.0000      -0.589943       -16.0532 
  31   2.0000      -0.580762       -15.8033 
  32   2.0000      -0.574670       -15.6376 
  33   2.0000      -0.556027       -15.1303 
  34   2.0000      -0.554348       -15.0846 
  35   2.0000      -0.550997       -14.9934 
  36   2.0000      -0.522313       -14.2129 
  37   2.0000      -0.507790       -13.8177 
  38   2.0000      -0.501054       -13.6344 
  39   2.0000      -0.499948       -13.6043 
  40   2.0000      -0.494599       -13.4587 
  41   2.0000      -0.491592       -13.3769 
  42   2.0000      -0.482956       -13.1419 
  43   2.0000      -0.482451       -13.1282 
  44   2.0000      -0.469819       -12.7844 
  45   2.0000      -0.454318       -12.3626 
  46   2.0000      -0.452581       -12.3154 
  47   2.0000      -0.451465       -12.2850 
  48   2.0000      -0.412636       -11.2284 
  49   2.0000      -0.371204       -10.1010 
  50   0.0000       0.060675         1.6511 
  51   0.0000       0.097096         2.6421 
  52   0.0000       0.132928         3.6171 
  53   0.0000       0.145841         3.9685 
  54   0.0000       0.167779         4.5655 
  55   0.0000       0.170859         4.6493 
  56   0.0000       0.179979         4.8975 
  57   0.0000       0.184138         5.0106 
  58   0.0000       0.194767         5.2999 
  59   0.0000       0.200293         5.4502 
  60   0.0000       0.209428         5.6988 
  61   0.0000       0.213424         5.8076 
  62   0.0000       0.219428         5.9709 
  63   0.0000       0.225104         6.1254 
  64   0.0000       0.233791         6.3618 
  65   0.0000       0.244241         6.6461 
  66   0.0000       0.252989         6.8842 
  67   0.0000       0.258162         7.0249 
  68   0.0000       0.263769         7.1775 
  69   0.0000       0.264080         7.1860 
  70   0.0000       0.265377         7.2213 
  71   0.0000       0.266720         7.2578 
  72   0.0000       0.273271         7.4361 
  73   0.0000       0.277985         7.5644 
  74   0.0000       0.283245         7.7075 
  75   0.0000       0.287259         7.8167 
  76   0.0000       0.292451         7.9580 
  77   0.0000       0.301022         8.1912 
  78   0.0000       0.312684         8.5086 
  79   0.0000       0.316814         8.6209 
  80   0.0000       0.326844         8.8939 
  81   0.0000       0.333257         9.0684 
  82   0.0000       0.345121         9.3912 
  83   0.0000       0.362427         9.8621 
  84   0.0000       0.404107        10.9963 
  85   0.0000       0.421501        11.4696 
  86   0.0000       0.456395        12.4191 
  87   0.0000       0.469610        12.7787 
  88   0.0000       0.474697        12.9171 
  89   0.0000       0.476621        12.9695 
  90   0.0000       0.495093        13.4722 
  91   0.0000       0.505110        13.7447 
  92   0.0000       0.513932        13.9848 
  93   0.0000       0.547949        14.9104 
  94   0.0000       0.549818        14.9613 
  95   0.0000       0.569318        15.4919 
  96   0.0000       0.582225        15.8431 
  97   0.0000       0.594839        16.1864 
  98   0.0000       0.608015        16.5449 
  99   0.0000       0.627754        17.0821 
 100   0.0000       0.641209        17.4482 
 101   0.0000       0.647425        17.6173 
 102   0.0000       0.650460        17.6999 
 103   0.0000       0.664545        18.0832 
 104   0.0000       0.678925        18.4745 
 105   0.0000       0.693840        18.8804 
 106   0.0000       0.718033        19.5387 
 107   0.0000       0.724185        19.7061 
 108   0.0000       0.729381        19.8475 
 109   0.0000       0.734491        19.9865 
 110   0.0000       0.739548        20.1241 
 111   0.0000       0.741937        20.1891 
 112   0.0000       0.748663        20.3722 
 113   0.0000       0.750507        20.4223 
 114   0.0000       0.754234        20.5237 
 115   0.0000       0.760755        20.7012 
 116   0.0000       0.770594        20.9689 
 117   0.0000       0.773515        21.0484 
 118   0.0000       0.775612        21.1055 
 119   0.0000       0.782833        21.3020 
 120   0.0000       0.785978        21.3875 
 121   0.0000       0.788591        21.4587 
 122   0.0000       0.799881        21.7659 
 123   0.0000       0.805180        21.9101 
 124   0.0000       0.807051        21.9610 
 125   0.0000       0.813326        22.1317 
 126   0.0000       0.818285        22.2667 
 127   0.0000       0.822232        22.3741 
 128   0.0000       0.823620        22.4118 
 129   0.0000       0.833343        22.6764 
 130   0.0000       0.838832        22.8258 
 131   0.0000       0.840251        22.8644 
 132   0.0000       0.844606        22.9829 
 133   0.0000       0.846313        23.0293 
 134   0.0000       0.851264        23.1641 
 135   0.0000       0.855066        23.2675 
 136   0.0000       0.867039        23.5933 
 137   0.0000       0.878306        23.8999 
 138   0.0000       0.883791        24.0492 
 139   0.0000       0.894571        24.3425 
 140   0.0000       0.976113        26.5614 
 141   0.0000       0.992895        27.0181 
 142   0.0000       1.034046        28.1378 
 143   0.0000       1.043219        28.3874 
 144   0.0000       1.046301        28.4713 
 145   0.0000       1.058068        28.7915 
 146   0.0000       1.068976        29.0883 
 147   0.0000       1.089456        29.6456 
 148   0.0000       1.130905        30.7735 
 149   0.0000       1.161607        31.6089 
 150   0.0000       1.184745        32.2385 
 151   0.0000       1.216797        33.1107 
 152   0.0000       1.222246        33.2590 
 153   0.0000       1.227443        33.4004 
 154   0.0000       1.248429        33.9715 
 155   0.0000       1.271551        34.6007 
 156   0.0000       1.304101        35.4864 
 157   0.0000       1.329142        36.1678 
 158   0.0000       1.336019        36.3549 
 159   0.0000       1.342695        36.5366 
 160   0.0000       1.358116        36.9562 
 161   0.0000       1.367884        37.2220 
 162   0.0000       1.383798        37.6551 
 163   0.0000       1.388034        37.7703 
 164   0.0000       1.411154        38.3995 
 165   0.0000       1.437503        39.1165 
 166   0.0000       1.448560        39.4173 
 167   0.0000       1.518568        41.3223 
 168   0.0000       1.525352        41.5069 
 169   0.0000       1.622644        44.1544 
 170   0.0000       1.641873        44.6776 
 171   0.0000       1.643418        44.7197 
 172   0.0000       1.646938        44.8155 
 173   0.0000       1.651001        44.9260 
 174   0.0000       1.654979        45.0343 
 175   0.0000       1.655392        45.0455 
 176   0.0000       1.663727        45.2723 
 177   0.0000       1.664204        45.2853 
 178   0.0000       1.667897        45.3858 
 179   0.0000       1.682060        45.7712 
 180   0.0000       1.733228        47.1635 
 181   0.0000       1.764202        48.0064 
 182   0.0000       1.789519        48.6953 
 183   0.0000       1.795411        48.8556 
 184   0.0000       1.803232        49.0684 
 185   0.0000       1.806677        49.1622 
 186   0.0000       1.821720        49.5715 
 187   0.0000       1.841397        50.1070 
 188   0.0000       1.848992        50.3136 
 189   0.0000       1.856597        50.5206 
 190   0.0000       1.867265        50.8109 
 191   0.0000       1.868440        50.8429 
 192   0.0000       1.880565        51.1728 
 193   0.0000       1.897155        51.6242 
 194   0.0000       1.923988        52.3544 
 195   0.0000       1.928012        52.4639 
 196   0.0000       1.935258        52.6611 
 197   0.0000       1.939238        52.7693 
 198   0.0000       1.946408        52.9645 
 199   0.0000       1.949740        53.0551 
 200   0.0000       1.953313        53.1524 
 201   0.0000       1.957004        53.2528 
 202   0.0000       1.960898        53.3587 
 203   0.0000       1.965550        53.4853 
 204   0.0000       1.971036        53.6346 
 205   0.0000       1.984836        54.0101 
 206   0.0000       2.004762        54.5523 
 207   0.0000       2.015180        54.8358 
 208   0.0000       2.021024        54.9949 
 209   0.0000       2.025229        55.1093 
 210   0.0000       2.033456        55.3331 
 211   0.0000       2.047193        55.7070 
 212   0.0000       2.056286        55.9544 
 213   0.0000       2.059774        56.0493 
 214   0.0000       2.069550        56.3153 
 215   0.0000       2.074519        56.4505 
 216   0.0000       2.082740        56.6742 
 217   0.0000       2.092698        56.9452 
 218   0.0000       2.099381        57.1271 
 219   0.0000       2.120592        57.7042 
 220   0.0000       2.124194        57.8023 
 221   0.0000       2.169018        59.0220 
 222   0.0000       2.177144        59.2431 
 223   0.0000       2.251726        61.2726 
 224   0.0000       2.264867        61.6302 
 225   0.0000       2.265678        61.6522 
 226   0.0000       2.274485        61.8919 
 227   0.0000       2.290395        62.3248 
 228   0.0000       2.306097        62.7521 
 229   0.0000       2.310204        62.8639 
 230   0.0000       2.315983        63.0211 
 231   0.0000       2.322016        63.1853 
 232   0.0000       2.335831        63.5612 
 233   0.0000       2.452218        66.7282 
 234   0.0000       2.455780        66.8252 
 235   0.0000       2.471798        67.2610 
 236   0.0000       2.478608        67.4464 
 237   0.0000       2.496150        67.9237 
 238   0.0000       2.511395        68.3385 
 239   0.0000       2.512171        68.3596 
 240   0.0000       2.531798        68.8937 
 241   0.0000       2.534041        68.9548 
 242   0.0000       2.551718        69.4358 
 243   0.0000       2.574453        70.0544 
 244   0.0000       2.574768        70.0630 
 245   0.0000       2.602012        70.8043 
 246   0.0000       2.604247        70.8652 
 247   0.0000       2.614465        71.1432 
 248   0.0000       2.631305        71.6014 
 249   0.0000       2.647338        72.0377 
 250   0.0000       2.652305        72.1729 
 251   0.0000       2.666855        72.5688 
 252   0.0000       2.741301        74.5946 
 253   0.0000       2.748561        74.7922 
 254   0.0000       2.764431        75.2240 
 255   0.0000       2.767681        75.3124 
 256   0.0000       2.816744        76.6475 
 257   0.0000       2.818758        76.7023 
 258   0.0000       2.819598        76.7252 
 259   0.0000       2.825779        76.8934 
 260   0.0000       2.862921        77.9041 
 261   0.0000       2.900582        78.9289 
 262   0.0000       2.936174        79.8974 
 263   0.0000       2.952339        80.3372 
 264   0.0000       2.965271        80.6891 
 265   0.0000       2.983460        81.1841 
 266   0.0000       2.989218        81.3408 
 267   0.0000       2.997810        81.5746 
 268   0.0000       3.000373        81.6443 
 269   0.0000       3.011351        81.9430 
 270   0.0000       3.014160        82.0195 
 271   0.0000       3.016370        82.0796 
 272   0.0000       3.034477        82.5723 
 273   0.0000       3.065401        83.4138 
 274   0.0000       3.070009        83.5392 
 275   0.0000       3.082054        83.8670 
 276   0.0000       3.088831        84.0514 
 277   0.0000       3.100836        84.3780 
 278   0.0000       3.101698        84.4015 
 279   0.0000       3.144380        85.5629 
 280   0.0000       3.156809        85.9011 
 281   0.0000       3.201972        87.1301 
 282   0.0000       3.208334        87.3032 
 283   0.0000       3.319703        90.3337 
 284   0.0000       3.490429        94.9794 
 285   0.0000       3.603508        98.0564 
 286   0.0000       3.631934        98.8299 

                    ********************************
                    * MULLIKEN POPULATION ANALYSIS *
                    ********************************

-----------------------
MULLIKEN ATOMIC CHARGES
-----------------------
   0 N :   -0.161792
   1 C :    0.215268
   2 N :   -0.149758
   3 H :    0.118351
   4 C :    0.061163
   5 C :    0.069822
   6 C :   -0.259670
   7 C :   -0.260884
   8 C :    0.031960
   9 C :    0.042526
  10 C :    0.065111
  11 C :    0.060596
  12 C :    0.023541
  13 C :    0.054468
  14 H :    0.092241
  15 H :    0.085113
  16 H :    0.052283
  17 H :    0.057508
  18 H :    0.053494
  19 H :    0.043772
  20 H :    0.046330
  21 H :    0.050851
  22 H :    0.055326
  23 H :    0.054682
  24 H :    0.058653
  25 H :    0.046735
  26 H :    0.053189
  27 H :    0.050634
  28 H :    0.051907
  29 H :    0.044460
  30 H :    0.046634
  31 H :    0.047816
  32 H :    0.045262
  33 H :    0.052408
Sum of atomic charges:    1.0000000

--------------------------------
MULLIKEN REDUCED ORBITAL CHARGES
--------------------------------
  0 N s       :     3.382209  s :     3.382209
      pz      :     1.203864  p :     3.746562
      px      :     1.158769
      py      :     1.383929
      dz2     :     0.007182  d :     0.033021
      dxz     :     0.009409
      dyz     :     0.004320
      dx2y2   :     0.005590
      dxy     :     0.006521
  1 C s       :     3.097939  s :     3.097939
      pz      :     0.912635  p :     2.619389
      px      :     0.776443
      py      :     0.930311
      dz2     :     0.011019  d :     0.067404
      dxz     :     0.020916
      dyz     :     0.006811
      dx2y2   :     0.010904
      dxy     :     0.017753
  2 N s       :     3.378020  s :     3.378020
      pz      :     1.207808  p :     3.738380
      px      :     1.150292
      py      :     1.380281
      dz2     :     0.007295  d :     0.033358
      dxz     :     0.009180
      dyz     :     0.004613
      dx2y2   :     0.005511
      dxy     :     0.006759
  3 H s       :     0.856216  s :     0.856216
      pz      :     0.016050  p :     0.025433
      px      :     0.001607
      py      :     0.007776
  4 C s       :     3.137336  s :     3.137336
      pz      :     0.849042  p :     2.753328
      px      :     0.915011
      py      :     0.989275
      dz2     :     0.012109  d :     0.048173
      dxz     :     0.011657
      dyz     :     0.008833
      dx2y2   :     0.007108
      dxy     :     0.008466
  5 C s       :     3.147568  s :     3.147568
      pz      :     0.846923  p :     2.733851
      px      :     0.905238
      py      :     0.981690
      dz2     :     0.011968  d :     0.048759
      dxz     :     0.012148
      dyz     :     0.008766
      dx2y2   :     0.006893
      dxy     :     0.008985
  6 C s       :     3.234035  s :     3.234035
      pz      :     1.066907  p :     2.961192
      px      :     0.814810
      py      :     1.079475
      dz2     :     0.013352  d :     0.064443
      dxz     :     0.011814
      dyz     :     0.010780
      dx2y2   :     0.017723
      dxy     :     0.010773
  7 C s       :     3.233773  s :     3.233773
      pz      :     1.082169  p :     2.962478
      px      :     0.801907
      py      :     1.078401
      dz2     :     0.013035  d :     0.064633
      dxz     :     0.011002
      dyz     :     0.011915
      dx2y2   :     0.016922
      dxy     :     0.011759
  8 C s       :     2.981439  s :     2.981439
      pz      :     0.984524  p :     2.960628
      px      :     0.986199
      py      :     0.989904
      dz2     :     0.007202  d :     0.025973
      dxz     :     0.004539
      dyz     :     0.003762
      dx2y2   :     0.007301
      dxy     :     0.003170
  9 C s       :     2.984505  s :     2.984505
      pz      :     0.911613  p :     2.947009
      px      :     1.029819
      py      :     1.005578
      dz2     :     0.007020  d :     0.025959
      dxz     :     0.004362
      dyz     :     0.005164
      dx2y2   :     0.006547
      dxy     :     0.002866
 10 C s       :     2.976253  s :     2.976253
      pz      :     1.018849  p :     2.932531
      px      :     1.017378
      py      :     0.896303
      dz2     :     0.006066  d :     0.026106
      dxz     :     0.003660
      dyz     :     0.005432
      dx2y2   :     0.007134
      dxy     :     0.003814
 11 C s       :     2.976807  s :     2.976807
      pz      :     0.966666  p :     2.936566
      px      :     0.999072
      py      :     0.970828
      dz2     :     0.006968  d :     0.026031
      dxz     :     0.003003
      dyz     :     0.005744
      dx2y2   :     0.005426
      dxy     :     0.004890
 12 C s       :     2.986689  s :     2.986689
      pz      :     0.930893  p :     2.963852
      px      :     1.036036
      py      :     0.996923
      dz2     :     0.006771  d :     0.025918
      dxz     :     0.003288
      dyz     :     0.006438
      dx2y2   :     0.005235
      dxy     :     0.004185
 13 C s       :     2.979149  s :     2.979149
      pz      :     1.019372  p :     2.940399
      px      :     0.996290
      py      :     0.924737
      dz2     :     0.005208  d :     0.025984
      dxz     :     0.003138
      dyz     :     0.007050
      dx2y2   :     0.005542
      dxy     :     0.005047
 14 H s       :     0.882322  s :     0.882322
      pz      :     0.010150  p :     0.025437
      px      :     0.008985
      py      :     0.006303
 15 H s       :     0.889364  s :     0.889364
      pz      :     0.010598  p :     0.025524
      px      :     0.008354
      py      :     0.006572
 16 H s       :     0.923296  s :     0.923296
      pz      :     0.004422  p :     0.024421
      px      :     0.004759
      py      :     0.015239
 17 H s       :     0.917768  s :     0.917768
      pz      :     0.005601  p :     0.024723
      px      :     0.014228
      py      :     0.004894
 18 H s       :     0.921982  s :     0.921982
      pz      :     0.014220  p :     0.024524
      px      :     0.004562
      py      :     0.005742
 19 H s       :     0.931777  s :     0.931777
      pz      :     0.008961  p :     0.024451
      px      :     0.008708
      py      :     0.006782
 20 H s       :     0.929432  s :     0.929432
      pz      :     0.014344  p :     0.024237
      px      :     0.005112
      py      :     0.004782
 21 H s       :     0.924430  s :     0.924430
      pz      :     0.005790  p :     0.024719
      px      :     0.014673
      py      :     0.004257
 22 H s       :     0.920200  s :     0.920200
      pz      :     0.003746  p :     0.024473
      px      :     0.007015
      py      :     0.013712
 23 H s       :     0.920861  s :     0.920861
      pz      :     0.009452  p :     0.024457
      px      :     0.006882
      py      :     0.008122
 24 H s       :     0.916610  s :     0.916610
      pz      :     0.004801  p :     0.024737
      px      :     0.014847
      py      :     0.005090
 25 H s       :     0.928588  s :     0.928588
      pz      :     0.008734  p :     0.024678
      px      :     0.008016
      py      :     0.007929
 26 H s       :     0.922065  s :     0.922065
      pz      :     0.004737  p :     0.024746
      px      :     0.015001
      py      :     0.005008
 27 H s       :     0.925119  s :     0.925119
      pz      :     0.003757  p :     0.024247
      px      :     0.005747
      py      :     0.014744
 28 H s       :     0.923366  s :     0.923366
      pz      :     0.005058  p :     0.024727
      px      :     0.014648
      py      :     0.005021
 29 H s       :     0.930959  s :     0.930959
      pz      :     0.013567  p :     0.024581
      px      :     0.004876
      py      :     0.006138
 30 H s       :     0.929142  s :     0.929142
      pz      :     0.004328  p :     0.024224
      px      :     0.007142
      py      :     0.012755
 31 H s       :     0.927956  s :     0.927956
      pz      :     0.009240  p :     0.024229
      px      :     0.006825
      py      :     0.008164
 32 H s       :     0.930096  s :     0.930096
      pz      :     0.013698  p :     0.024643
      px      :     0.004875
      py      :     0.006070
 33 H s       :     0.922862  s :     0.922862
      pz      :     0.006172  p :     0.024730
      px      :     0.014477
      py      :     0.004081


                     *******************************
                     * LOEWDIN POPULATION ANALYSIS *
                     *******************************

----------------------
LOEWDIN ATOMIC CHARGES
----------------------
   0 N :    0.109561
   1 C :    0.122241
   2 N :    0.116204
   3 H :    0.056035
   4 C :    0.015006
   5 C :    0.021126
   6 C :    0.013346
   7 C :    0.013577
   8 C :   -0.041359
   9 C :   -0.040968
  10 C :   -0.039258
  11 C :   -0.038681
  12 C :   -0.042907
  13 C :   -0.039050
  14 H :    0.053138
  15 H :    0.053898
  16 H :    0.035865
  17 H :    0.045231
  18 H :    0.035009
  19 H :    0.032050
  20 H :    0.034246
  21 H :    0.040304
  22 H :    0.035720
  23 H :    0.035900
  24 H :    0.046266
  25 H :    0.032791
  26 H :    0.041999
  27 H :    0.035538
  28 H :    0.041075
  29 H :    0.032453
  30 H :    0.034656
  31 H :    0.035031
  32 H :    0.032531
  33 H :    0.041426

-------------------------------
LOEWDIN REDUCED ORBITAL CHARGES
-------------------------------
  0 N s       :     3.045877  s :     3.045877
      pz      :     1.237739  p :     3.767872
      px      :     1.191745
      py      :     1.338388
      dz2     :     0.016786  d :     0.076690
      dxz     :     0.023979
      dyz     :     0.009558
      dx2y2   :     0.013002
      dxy     :     0.013366
  1 C s       :     2.826930  s :     2.826930
      pz      :     1.014473  p :     2.892557
      px      :     0.901706
      py      :     0.976378
      dz2     :     0.024331  d :     0.158272
      dxz     :     0.053534
[...]
     76      -0.000596   0.044490   0.009052   0.000410  -0.006101   0.000795
     77       0.001080  -0.080620  -0.016437  -0.000574   0.011323  -0.001357
     78       0.006195  -0.359106  -0.073952   0.000675   0.003156  -0.000145
     79       0.000816  -0.047144  -0.009666  -0.000041   0.000339  -0.000127
     80      -0.001998   0.118122   0.024369  -0.000367  -0.000728  -0.000176
     81       0.000687  -0.034603  -0.007068   0.000014  -0.000682   0.000006
     82       0.004107  -0.212412  -0.043376   0.000165  -0.003483   0.000125
     83      -0.000426   0.021899   0.004464  -0.000017   0.000265   0.000001
     84       0.564967  -0.080582   0.401101  -0.002311   0.000280   0.001054
     85      -0.109142   0.015781  -0.078633   0.000454  -0.000173  -0.000180
     86       0.152836  -0.021693   0.107711  -0.001019  -0.000124   0.000417
     87      -0.006437   0.000713  -0.003610  -0.000426  -0.000050   0.000220
     88      -0.171442   0.018036  -0.092104   0.009863   0.000242  -0.003666
     89       0.268508  -0.028094   0.143581  -0.014639  -0.000226   0.005239
     90       0.094910  -0.018532   0.089506   0.002035  -0.000158  -0.000628
     91       0.188961  -0.036336   0.175759   0.003727  -0.000206  -0.001119
     92       0.030694  -0.006274   0.030247   0.000843  -0.000021  -0.000282
     93       0.027531  -0.016887   0.081022   0.001411  -0.000092  -0.000458
     94      -0.028781   0.018043  -0.086606  -0.001551   0.000079   0.000487
     95      -0.045459   0.026890  -0.129318  -0.002133   0.000093   0.000653
     96      -0.002399   0.000461  -0.002358  -0.000877  -0.000058   0.000403
     97      -0.090323   0.012877  -0.067501   0.005593  -0.000051  -0.001947
     98       0.136897  -0.019819   0.103629  -0.009627  -0.000113   0.003567
     99       0.235760  -0.064414   0.321994  -0.001280   0.000303   0.000720
    100      -0.035985   0.009685  -0.048143   0.000473   0.000153  -0.000198
    101       0.068058  -0.018861   0.094192  -0.000457   0.000115   0.000199


-----------
IR SPECTRUM
-----------

 Mode   freq       eps      Int      T**2         TX        TY        TZ
       cm**-1   L/(mol*cm) km/mol    a.u.
----------------------------------------------------------------------------
  6:     37.83   0.000000    0.00  0.000003  ( 0.000239  0.001772 -0.000203)
  7:     54.21   0.000008    0.04  0.000047  (-0.000634  0.006369  0.002489)
  8:    111.56   0.000006    0.03  0.000017  (-0.000530 -0.002390 -0.003339)
  9:    144.81   0.000020    0.10  0.000044  (-0.000248 -0.002746  0.006044)
 10:    164.85   0.000001    0.01  0.000003  (-0.000760  0.000523  0.001285)
 11:    239.38   0.000002    0.01  0.000002  ( 0.000504  0.001312  0.000339)
 12:    255.15   0.000003    0.02  0.000004  (-0.000256  0.001418 -0.001476)
 13:    266.95   0.000013    0.06  0.000015  ( 0.000897 -0.001696  0.003368)
 14:    275.21   0.000009    0.05  0.000011  ( 0.002786 -0.000695  0.001546)
 15:    291.08   0.000045    0.23  0.000048  (-0.004053  0.002213 -0.005164)
 16:    306.89   0.000006    0.03  0.000006  (-0.002065  0.000199  0.001191)
 17:    335.10   0.000013    0.06  0.000012  (-0.000410 -0.002804 -0.001948)
 18:    340.39   0.000039    0.20  0.000036  ( 0.000206  0.003934  0.004525)
 19:    342.81   0.000027    0.13  0.000024  ( 0.000286 -0.004706  0.001416)
 20:    348.87   0.000042    0.21  0.000037  (-0.000327  0.005609  0.002422)
 21:    365.49   0.000008    0.04  0.000007  ( 0.000524 -0.002281 -0.001258)
 22:    373.85   0.000006    0.03  0.000005  ( 0.000773  0.001423 -0.001576)
 23:    411.93   0.000012    0.06  0.000009  ( 0.002678  0.000198  0.001409)
 24:    445.78   0.000011    0.05  0.000007  (-0.000189  0.002340  0.001360)
 25:    473.58   0.000044    0.22  0.000029  (-0.004226  0.000349 -0.003334)
 26:    478.15   0.000021    0.11  0.000014  (-0.002323  0.002888  0.000501)
 27:    523.84   0.000010    0.05  0.000006  ( 0.002203 -0.000835  0.000834)
 28:    575.98   0.000154    0.78  0.000083  (-0.000422 -0.005099  0.007569)
 29:    636.97   0.001641    8.30  0.000804  ( 0.028328 -0.000606 -0.001158)
 30:    683.89   0.009881   49.93  0.004509  ( 0.002102  0.058112  0.033576)
 31:    691.11   0.003049   15.41  0.001377  ( 0.000087  0.032238  0.018373)
 32:    777.05   0.010556   53.35  0.004239  (-0.001461 -0.055975 -0.033226)
 33:    848.96   0.000013    0.07  0.000005  ( 0.000776  0.001129 -0.001741)
 34:    852.72   0.000248    1.25  0.000091  (-0.009514  0.000345 -0.000457)
 35:    898.59   0.005535   27.97  0.001922  ( 0.001892  0.038105  0.021606)
 36:    925.97   0.000039    0.19  0.000013  ( 0.001577  0.002640  0.001883)
 37:    949.14   0.000494    2.50  0.000162  (-0.001850 -0.010367 -0.007182)
 38:    950.35   0.000614    3.10  0.000202  (-0.000683  0.011733  0.007963)
 39:    957.25   0.000901    4.55  0.000294  (-0.009524  0.007823 -0.011907)
 40:    959.80   0.000669    3.38  0.000217  ( 0.000270  0.007982 -0.012393)
 41:    973.41   0.000067    0.34  0.000021  (-0.000615 -0.003959 -0.002333)
 42:    977.47   0.000040    0.20  0.000013  ( 0.000631  0.002959  0.001864)
 43:   1024.05   0.001297    6.56  0.000395  ( 0.019861 -0.000176 -0.000941)
 44:   1040.63   0.000072    0.37  0.000022  ( 0.002731  0.002725 -0.002604)
 45:   1052.71   0.000144    0.73  0.000043  ( 0.006101  0.002003 -0.001244)
 46:   1054.07   0.000009    0.05  0.000003  ( 0.001526 -0.000261 -0.000599)
 47:   1058.13   0.000070    0.35  0.000021  (-0.001126 -0.003755 -0.002276)
 48:   1059.67   0.000130    0.66  0.000038  (-0.000730  0.004610  0.004058)
 49:   1134.72   0.005140   25.98  0.001414  (-0.002325  0.019565 -0.032022)
 50:   1156.46   0.015854   80.12  0.004278  (-0.065338  0.000730  0.002902)
 51:   1222.02   0.002769   13.99  0.000707  (-0.014179 -0.010235  0.020034)
 52:   1236.60   0.076840  388.32  0.019391  ( 0.139228 -0.001389 -0.002132)
 53:   1269.75   0.000358    1.81  0.000088  (-0.000302 -0.003412  0.008728)
 54:   1274.72   0.001967    9.94  0.000481  (-0.019740  0.007276 -0.006229)
 55:   1280.00   0.000542    2.74  0.000132  ( 0.005757  0.008039  0.005855)
 56:   1281.58   0.006382   32.25  0.001554  ( 0.000114 -0.033934 -0.020060)
 57:   1309.34   0.000119    0.60  0.000028  ( 0.005253 -0.000324  0.000741)
 58:   1360.98   0.005184   26.20  0.001189  ( 0.000628 -0.017268  0.029834)
 59:   1396.95   0.004074   20.59  0.000910  ( 0.001224  0.027511  0.012318)
 60:   1397.69   0.006272   31.70  0.001400  ( 0.000851 -0.030254 -0.022007)
 61:   1400.77   0.009476   47.89  0.002111  ( 0.013313 -0.022471  0.037799)
 62:   1403.25   0.003019   15.26  0.000671  (-0.011906 -0.014528  0.017848)
 63:   1414.23   0.001882    9.51  0.000415  ( 0.020375 -0.000238 -0.000216)
 64:   1414.82   0.001281    6.47  0.000283  ( 0.015358 -0.002553  0.006337)
 65:   1444.63   0.000099    0.50  0.000021  ( 0.001893 -0.004005 -0.001314)
 66:   1445.86   0.000121    0.61  0.000026  (-0.004135  0.002587  0.001540)
 67:   1447.83   0.000324    1.64  0.000070  ( 0.007522  0.001534  0.003306)
 68:   1448.13   0.000037    0.19  0.000008  ( 0.001420 -0.002343  0.000710)
 69:   1451.06   0.000035    0.18  0.000007  ( 0.000255  0.002075  0.001756)
 70:   1452.07   0.000253    1.28  0.000054  ( 0.004777 -0.002754  0.004901)
 71:   1456.05   0.000583    2.95  0.000125  (-0.010801  0.000441 -0.002857)
 72:   1461.92   0.005660   28.60  0.001208  ( 0.002870 -0.016903  0.030237)
 73:   1470.81   0.001640    8.29  0.000348  ( 0.001936  0.017385  0.006481)
 74:   1472.63   0.001683    8.51  0.000357  ( 0.000013 -0.015811 -0.010328)
 75:   1475.98   0.000280    1.41  0.000059  ( 0.006933  0.000382 -0.003311)
 76:   1480.87   0.002074   10.48  0.000437  (-0.020199 -0.000948  0.005314)
 77:   1482.33   0.000878    4.43  0.000185  ( 0.009533 -0.004338  0.008663)
 78:   1491.46   0.000111    0.56  0.000023  ( 0.004782  0.000073  0.000591)
 79:   1635.09   0.028965  146.38  0.005528  ( 0.074138 -0.003809  0.004133)
 80:   1648.79   0.006247   31.57  0.001182  (-0.027452 -0.010442  0.017883)
 81:   3071.03   0.003176   16.05  0.000323  ( 0.001038  0.011042  0.014132)
 82:   3072.05   0.003362   16.99  0.000341  ( 0.006909  0.016337 -0.005182)
 83:   3072.63   0.003226   16.30  0.000328  ( 0.003920 -0.005841 -0.016678)
 84:   3072.74   0.002786   14.08  0.000283  (-0.003245  0.014257 -0.008313)
 85:   3076.44   0.000293    1.48  0.000030  (-0.005174  0.001689  0.000255)
 86:   3076.48   0.000232    1.17  0.000024  (-0.003214 -0.000660 -0.003575)
 87:   3175.68   0.001317    6.65  0.000129  (-0.005319  0.002783 -0.009662)
 88:   3175.78   0.002561   12.94  0.000252  (-0.004033  0.015186  0.002170)
 89:   3178.23   0.002254   11.39  0.000221  ( 0.002398 -0.014436 -0.002666)
 90:   3179.14   0.001681    8.50  0.000165  ( 0.000428  0.011675  0.005345)
 91:   3179.19   0.004214   21.29  0.000414  (-0.006506 -0.002581 -0.019095)
 92:   3179.94   0.004003   20.23  0.000393  ( 0.004753  0.010402 -0.016189)
 93:   3183.93   0.001312    6.63  0.000129  (-0.005029  0.009875  0.002405)
 94:   3184.43   0.001019    5.15  0.000100  ( 0.003012 -0.008949 -0.003272)
 95:   3184.92   0.001236    6.25  0.000121  (-0.009871 -0.001288 -0.004694)
 96:   3185.40   0.001264    6.39  0.000124  (-0.003565  0.002876 -0.010143)
 97:   3189.69   0.006716   33.94  0.000657  ( 0.024095  0.004819 -0.007299)
 98:   3189.90   0.003450   17.44  0.000338  (-0.017124  0.003828 -0.005443)
 99:   3312.25   0.005532   27.96  0.000521  ( 0.020589  0.004797 -0.008621)
100:   3321.27   0.012114   61.22  0.001138  ( 0.004443 -0.017218  0.028671)
101:   3335.67   0.003153   15.94  0.000295  ( 0.009137 -0.007474  0.012477)

* The epsilon (eps) is given for a Dirac delta lineshape.
** The dipole moment derivative (T) already includes vibrational overlap.

The first frequency considered to be a vibration is 6
The total number of vibrations considered is 96


--------------------------
THERMOCHEMISTRY AT 298.15K
--------------------------

Temperature         ... 298.15 K
Pressure            ... 1.00 atm
Total Mass          ... 181.30 AMU

Throughout the following assumptions are being made:
  (1) The electronic state is orbitally nondegenerate
  (2) There are no thermally accessible electronically excited states
  (3) Hindered rotations indicated by low frequency modes are not
      treated as such but are treated as vibrations and this may
      cause some error
  (4) All equations used are the standard statistical mechanics
      equations for an ideal gas
  (5) All vibrations are strictly harmonic

freq.      37.83  E(vib)   ...       0.54 
freq.      54.21  E(vib)   ...       0.52 
freq.     111.56  E(vib)   ...       0.45 
freq.     144.81  E(vib)   ...       0.41 
freq.     164.85  E(vib)   ...       0.39 
freq.     239.38  E(vib)   ...       0.31 
freq.     255.15  E(vib)   ...       0.30 
freq.     266.95  E(vib)   ...       0.29 
freq.     275.21  E(vib)   ...       0.28 
freq.     291.08  E(vib)   ...       0.27 
freq.     306.89  E(vib)   ...       0.26 
freq.     335.10  E(vib)   ...       0.24 
freq.     340.39  E(vib)   ...       0.23 
freq.     342.81  E(vib)   ...       0.23 
freq.     348.87  E(vib)   ...       0.23 
freq.     365.49  E(vib)   ...       0.22 
freq.     373.85  E(vib)   ...       0.21 
freq.     411.93  E(vib)   ...       0.19 
freq.     445.78  E(vib)   ...       0.17 
freq.     473.58  E(vib)   ...       0.15 
freq.     478.15  E(vib)   ...       0.15 
freq.     523.84  E(vib)   ...       0.13 
freq.     575.98  E(vib)   ...       0.11 
freq.     636.97  E(vib)   ...       0.09 
freq.     683.89  E(vib)   ...       0.07 
freq.     691.11  E(vib)   ...       0.07 
freq.     777.05  E(vib)   ...       0.05 
freq.     848.96  E(vib)   ...       0.04 
freq.     852.72  E(vib)   ...       0.04 
freq.     898.59  E(vib)   ...       0.03 
freq.     925.97  E(vib)   ...       0.03 
freq.     949.14  E(vib)   ...       0.03 
freq.     950.35  E(vib)   ...       0.03 
freq.     957.25  E(vib)   ...       0.03 
freq.     959.80  E(vib)   ...       0.03 
freq.     973.41  E(vib)   ...       0.03 
freq.     977.47  E(vib)   ...       0.03 
freq.    1024.05  E(vib)   ...       0.02 
freq.    1040.63  E(vib)   ...       0.02 
freq.    1052.71  E(vib)   ...       0.02 
freq.    1054.07  E(vib)   ...       0.02 
freq.    1058.13  E(vib)   ...       0.02 
freq.    1059.67  E(vib)   ...       0.02 
freq.    1134.72  E(vib)   ...       0.01 
freq.    1156.46  E(vib)   ...       0.01 
freq.    1222.02  E(vib)   ...       0.01 
freq.    1236.60  E(vib)   ...       0.01 
freq.    1269.75  E(vib)   ...       0.01 
freq.    1274.72  E(vib)   ...       0.01 
freq.    1280.00  E(vib)   ...       0.01 
freq.    1281.58  E(vib)   ...       0.01 
freq.    1309.34  E(vib)   ...       0.01 
freq.    1360.98  E(vib)   ...       0.01 
freq.    1396.95  E(vib)   ...       0.00 
freq.    1397.69  E(vib)   ...       0.00 
freq.    1400.77  E(vib)   ...       0.00 
freq.    1403.25  E(vib)   ...       0.00 
freq.    1414.23  E(vib)   ...       0.00 
freq.    1414.82  E(vib)   ...       0.00 
freq.    1444.63  E(vib)   ...       0.00 
freq.    1445.86  E(vib)   ...       0.00 
freq.    1447.83  E(vib)   ...       0.00 
freq.    1448.13  E(vib)   ...       0.00 
freq.    1451.06  E(vib)   ...       0.00 
freq.    1452.07  E(vib)   ...       0.00 
freq.    1456.05  E(vib)   ...       0.00 
freq.    1461.92  E(vib)   ...       0.00 
freq.    1470.81  E(vib)   ...       0.00 
freq.    1472.63  E(vib)   ...       0.00 
freq.    1475.98  E(vib)   ...       0.00 
freq.    1480.87  E(vib)   ...       0.00 
freq.    1482.33  E(vib)   ...       0.00 
freq.    1491.46  E(vib)   ...       0.00 
freq.    1635.09  E(vib)   ...       0.00 
freq.    1648.79  E(vib)   ...       0.00 
freq.    3071.03  E(vib)   ...       0.00 
freq.    3072.05  E(vib)   ...       0.00 
freq.    3072.63  E(vib)   ...       0.00 
freq.    3072.74  E(vib)   ...       0.00 
freq.    3076.44  E(vib)   ...       0.00 
freq.    3076.48  E(vib)   ...       0.00 
freq.    3175.68  E(vib)   ...       0.00 
freq.    3175.78  E(vib)   ...       0.00 
freq.    3178.23  E(vib)   ...       0.00 
freq.    3179.14  E(vib)   ...       0.00 
freq.    3179.19  E(vib)   ...       0.00 
freq.    3179.94  E(vib)   ...       0.00 
freq.    3183.93  E(vib)   ...       0.00 
freq.    3184.43  E(vib)   ...       0.00 
freq.    3184.92  E(vib)   ...       0.00 
freq.    3185.40  E(vib)   ...       0.00 
freq.    3189.69  E(vib)   ...       0.00 
freq.    3189.90  E(vib)   ...       0.00 
freq.    3312.25  E(vib)   ...       0.00 
freq.    3321.27  E(vib)   ...       0.00 
freq.    3335.67  E(vib)   ...       0.00 

------------
INNER ENERGY
------------

The inner energy is: U= E(el) + E(ZPE) + E(vib) + E(rot) + E(trans)
    E(el)   - is the total energy from the electronic structure calculation
              = E(kin-el) + E(nuc-el) + E(el-el) + E(nuc-nuc)
    E(ZPE)  - the the zero temperature vibrational energy from the frequency calculation
    E(vib)  - the the finite temperature correction to E(ZPE) due to population
              of excited vibrational states
    E(rot)  - is the rotational thermal energy
    E(trans)- is the translational thermal energy

Summary of contributions to the inner energy U:
Electronic energy                ...   -540.69358551 Eh
Zero point energy                ...      0.31177134 Eh     195.64 kcal/mol
Thermal vibrational correction   ...      0.01140775 Eh       7.16 kcal/mol
Thermal rotational correction    ...      0.00141627 Eh       0.89 kcal/mol
Thermal translational correction ...      0.00141627 Eh       0.89 kcal/mol
-----------------------------------------------------------------------
Total thermal energy                   -540.36757387 Eh


Summary of corrections to the electronic energy:
(perhaps to be used in another calculation)
Total thermal correction                  0.01424030 Eh       8.94 kcal/mol
Non-thermal (ZPE) correction              0.31177134 Eh     195.64 kcal/mol
-----------------------------------------------------------------------
Total correction                          0.32601164 Eh     204.57 kcal/mol


--------
ENTHALPY
--------

The enthalpy is H = U + kB*T
                kB is Boltzmann's constant
Total free energy                 ...   -540.36757387 Eh 
Thermal Enthalpy correction       ...      0.00094421 Eh       0.59 kcal/mol
-----------------------------------------------------------------------
Total Enthalpy                    ...   -540.36662966 Eh


Note: Only C1 symmetry has been detected, increase convergence thresholds 
      if your molecule has a higher symmetry. Symmetry factor of 1.0 is   
      used for the rotational entropy correction. 
 

Note: Rotational entropy computed according to Herzberg 
Infrared and Raman Spectra, Chapter V,1, Van Nostrand Reinhold, 1945 
Point Group:  C1, Symmetry Number:   1  
Rotational constants in cm-1:     0.055157     0.014877     0.013881 

Vibrational entropy computed according to the QRRHO of S. Grimme
Chem.Eur.J. 2012 18 9955


-------
ENTROPY
-------

The entropy contributions are T*S = T*(S(el)+S(vib)+S(rot)+S(trans))
     S(el)   - electronic entropy
     S(vib)  - vibrational entropy
     S(rot)  - rotational entropy
     S(trans)- translational entropy
The entropies will be listed as multiplied by the temperature to get
units of energy

Electronic entropy                ...      0.00000000 Eh      0.00 kcal/mol
Vibrational entropy               ...      0.01905169 Eh     11.96 kcal/mol
Rotational entropy                ...      0.01488449 Eh      9.34 kcal/mol
Translational entropy             ...      0.01971392 Eh     12.37 kcal/mol
-----------------------------------------------------------------------
Final entropy term                ...      0.05365011 Eh     33.67 kcal/mol

In case the symmetry of your molecule has not been determined correctly
or in case you have a reason to use a different symmetry number we print 
out the resulting rotational entropy values for sn=1,12 :
 --------------------------------------------------------
|  sn= 1 | S(rot)=       0.01488449 Eh      9.34 kcal/mol|
|  sn= 2 | S(rot)=       0.01423004 Eh      8.93 kcal/mol|
|  sn= 3 | S(rot)=       0.01384720 Eh      8.69 kcal/mol|
|  sn= 4 | S(rot)=       0.01357558 Eh      8.52 kcal/mol|
|  sn= 5 | S(rot)=       0.01336489 Eh      8.39 kcal/mol|
|  sn= 6 | S(rot)=       0.01319275 Eh      8.28 kcal/mol|
|  sn= 7 | S(rot)=       0.01304720 Eh      8.19 kcal/mol|
|  sn= 8 | S(rot)=       0.01292112 Eh      8.11 kcal/mol|
|  sn= 9 | S(rot)=       0.01280991 Eh      8.04 kcal/mol|
|  sn=10 | S(rot)=       0.01271044 Eh      7.98 kcal/mol|
|  sn=11 | S(rot)=       0.01262045 Eh      7.92 kcal/mol|
|  sn=12 | S(rot)=       0.01253829 Eh      7.87 kcal/mol|
 --------------------------------------------------------


-------------------
GIBBS FREE ENERGY
-------------------

The Gibbs free energy is G = H - T*S

Total enthalpy                    ...   -540.36662966 Eh 
Total entropy correction          ...     -0.05365011 Eh    -33.67 kcal/mol
-----------------------------------------------------------------------
Final Gibbs free energy         ...   -540.42027977 Eh

For completeness - the Gibbs free energy minus the electronic energy
G-E(el)                           ...      0.27330574 Eh    171.50 kcal/mol


Timings for individual modules:

Sum of individual times         ...    10032.360 sec (= 167.206 min)
GTO integral calculation        ...        5.699 sec (=   0.095 min)   0.1 %
SCF iterations                  ...     5867.082 sec (=  97.785 min)  58.5 %
SCF Gradient evaluation         ...     1630.756 sec (=  27.179 min)  16.3 %
Geometry relaxation             ...        1.178 sec (=   0.020 min)   0.0 %
Analytical frequency calculation...     2527.646 sec (=  42.127 min)  25.2 %
                             ****ORCA TERMINATED NORMALLY****
TOTAL RUN TIME: 0 days 2 hours 47 minutes 14 seconds 821 msec
