
                                 *****************
                                 * O   R   C   A *
                                 *****************

                                            #,                                       
                                            ###                                      
                                            ####                                     
                                            #####                                    
                                            ######                                   
                                           ########,                                 
                                     ,,################,,,,,                         
                               ,,#################################,,                 
                          ,,##########################################,,             
                       ,#########################################, ''#####,          
                    ,#############################################,,   '####,        
                  ,##################################################,,,,####,       
                ,###########''''           ''''###############################       
              ,#####''   ,,,,##########,,,,          '''####'''          '####       
            ,##' ,,,,###########################,,,                        '##       
           ' ,,###''''                  '''############,,,                           
         ,,##''                                '''############,,,,        ,,,,,,###''
      ,#''                                            '''#######################'''  
     '                                                          ''''####''''         
             ,#######,   #######,   ,#######,      ##                                
            ,#'     '#,  ##    ##  ,#'     '#,    #''#        ######   ,####,        
            ##       ##  ##   ,#'  ##            #'  '#       #        #'  '#        
            ##       ##  #######   ##           ,######,      #####,   #    #        
            '#,     ,#'  ##    ##  '#,     ,#' ,#      #,         ##   #,  ,#        
             '#######'   ##     ##  '#######'  #'      '#     #####' # '####'        



                  #######################################################
                  #                        -***-                        #
                  #          Department of theory and spectroscopy      #
                  #    Directorship and core code : Frank Neese         #
                  #        Max Planck Institute fuer Kohlenforschung    #
                  #                Kaiser Wilhelm Platz 1               #
                  #                 D-45470 Muelheim/Ruhr               #
                  #                      Germany                        #
                  #                                                     #
                  #                  All rights reserved                #
                  #                        -***-                        #
                  #######################################################


                         Program Version 5.0.4 -  RELEASE  -


 With contributions from (in alphabetic order):
   Daniel Aravena         : Magnetic Suceptibility
   Michael Atanasov       : Ab Initio Ligand Field Theory (pilot matlab implementation)
   Alexander A. Auer      : GIAO ZORA, VPT2 properties, NMR spectrum
   Ute Becker             : Parallelization
   Giovanni Bistoni       : ED, misc. LED, open-shell LED, HFLD
   Martin Brehm           : Molecular dynamics
   Dmytro Bykov           : SCF Hessian
   Vijay G. Chilkuri      : MRCI spin determinant printing, contributions to CSF-ICE
   Dipayan Datta          : RHF DLPNO-CCSD density
   Achintya Kumar Dutta   : EOM-CC, STEOM-CC
   Dmitry Ganyushin       : Spin-Orbit,Spin-Spin,Magnetic field MRCI
   Miquel Garcia          : C-PCM and meta-GGA Hessian, CC/C-PCM, Gaussian charge scheme
   Yang Guo               : DLPNO-NEVPT2, F12-NEVPT2, CIM, IAO-localization
   Andreas Hansen         : Spin unrestricted coupled pair/coupled cluster methods
   Benjamin Helmich-Paris : MC-RPA, TRAH-SCF, COSX integrals
   Lee Huntington         : MR-EOM, pCC
   Robert Izsak           : Overlap fitted RIJCOSX, COSX-SCS-MP3, EOM
   Marcus Kettner         : VPT2
   Christian Kollmar      : KDIIS, OOCD, Brueckner-CCSD(T), CCSD density, CASPT2, CASPT2-K
   Simone Kossmann        : Meta GGA functionals, TD-DFT gradient, OOMP2, MP2 Hessian
   Martin Krupicka        : Initial AUTO-CI
   Lucas Lang             : DCDCAS
   Marvin Lechner         : AUTO-CI (C++ implementation), FIC-MRCC
   Dagmar Lenk            : GEPOL surface, SMD
   Dimitrios Liakos       : Extrapolation schemes; Compound Job, initial MDCI parallelization
   Dimitrios Manganas     : Further ROCIS development; embedding schemes
   Dimitrios Pantazis     : SARC Basis sets
   Anastasios Papadopoulos: AUTO-CI, single reference methods and gradients
   Taras Petrenko         : DFT Hessian,TD-DFT gradient, ASA, ECA, R-Raman, ABS, FL, XAS/XES, NRVS
   Peter Pinski           : DLPNO-MP2, DLPNO-MP2 Gradient
   Christoph Reimann      : Effective Core Potentials
   Marius Retegan         : Local ZFS, SOC
   Christoph Riplinger    : Optimizer, TS searches, QM/MM, DLPNO-CCSD(T), (RO)-DLPNO pert. Triples
   Tobias Risthaus        : Range-separated hybrids, TD-DFT gradient, RPA, STAB
   Michael Roemelt        : Original ROCIS implementation
   Masaaki Saitow         : Open-shell DLPNO-CCSD energy and density
   Barbara Sandhoefer     : DKH picture change effects
   Avijit Sen             : IP-ROCIS
   Kantharuban Sivalingam : CASSCF convergence, NEVPT2, FIC-MRCI
   Bernardo de Souza      : ESD, SOC TD-DFT
   Georgi Stoychev        : AutoAux, RI-MP2 NMR, DLPNO-MP2 response
   Willem Van den Heuvel  : Paramagnetic NMR
   Boris Wezisla          : Elementary symmetry handling
   Frank Wennmohs         : Technical directorship


 We gratefully acknowledge several colleagues who have allowed us to
 interface, adapt or use parts of their codes:
   Stefan Grimme, W. Hujo, H. Kruse, P. Pracht,  : VdW corrections, initial TS optimization,
                  C. Bannwarth, S. Ehlert          DFT functionals, gCP, sTDA/sTD-DF
   Ed Valeev, F. Pavosevic, A. Kumar             : LibInt (2-el integral package), F12 methods
   Garnet Chan, S. Sharma, J. Yang, R. Olivares  : DMRG
   Ulf Ekstrom                                   : XCFun DFT Library
   Mihaly Kallay                                 : mrcc  (arbitrary order and MRCC methods)
   Jiri Pittner, Ondrej Demel                    : Mk-CCSD
   Frank Weinhold                                : gennbo (NPA and NBO analysis)
   Christopher J. Cramer and Donald G. Truhlar   : smd solvation model
   Lars Goerigk                                  : TD-DFT with DH, B97 family of functionals
   V. Asgeirsson, H. Jonsson                     : NEB implementation
   FAccTs GmbH                                   : IRC, NEB, NEB-TS, DLPNO-Multilevel, CI-OPT
                                                   MM, QMMM, 2- and 3-layer-ONIOM, Crystal-QMMM,
                                                   LR-CPCM, SF, NACMEs, symmetry and pop. for TD-DFT,
                                                   nearIR, NL-DFT gradient (VV10), updates on ESD,
                                                   ML-optimized integration grids
   S Lehtola, MJT Oliveira, MAL Marques          : LibXC Library
   Liviu Ungur et al                             : ANISO software


 Your calculation uses the libint2 library for the computation of 2-el integrals
 For citations please refer to: http://libint.valeyev.net

 Your ORCA version has been built with support for libXC version: 5.1.0
 For citations please refer to: https://tddft.org/programs/libxc/

 This ORCA versions uses:
   CBLAS   interface :  Fast vector & matrix operations
   LAPACKE interface :  Fast linear algebra routines
   SCALAPACK package :  Parallel linear algebra routines
   Shared memory     :  Shared parallel matrices
   BLAS/LAPACK       :  OpenBLAS 0.3.15  USE64BITINT DYNAMIC_ARCH NO_AFFINITY SkylakeX SINGLE_THREADED
        Core in use  :  SkylakeX
   Copyright (c) 2011-2014, The OpenBLAS Project




***************************************
The coordinates will be read from file: 5_prot_aq_5.xyz
***************************************


Your calculation utilizes the atom-pairwise dispersion correction
based on tight binding partial charges (D4)
Cite in your paper:
E.Caldeweyher, C.Bannwarth, S.Grimme, J.Chem.Phys., (2017), 147, 034112.
E.Caldeweyher, S.Ehlert, A.Hansen, H.Neugebauer, S.Grimme, J.Chem.Phys., (2018), in progress.
   

XCFun DFT library Copyright 2009-2010 Ulf Ekstrom and contributors.
See http://admol.org/xcfun for more information.
This is free software; see the source code for copying conditions.
There is ABSOLUTELY NO WARRANTY; not even for MERCHANTABILITY or FITNESS FOR A PARTICULAR PURPOSE.
For details see the documentation.
Scientific users of this library should cite U. Ekstrom, L. Visscher, R. Bast, A. J. Thorvaldsen and K. Ruud;
J.Chem.Theor.Comp. 2010, DOI: 10.1021/ct100117s
XCFun Version 0.99 

================================================================================

----- Orbital basis set information -----
Your calculation utilizes the basis: def2-SVP
   F. Weigend and R. Ahlrichs, Phys. Chem. Chem. Phys. 7, 3297 (2005).

----- AuxJ basis set information -----
Your calculation utilizes the auxiliary basis: def2/J
   F. Weigend, Phys. Chem. Chem. Phys. 8, 1057 (2006).

================================================================================
                                        WARNINGS
                       Please study these warnings very carefully!
================================================================================


WARNING: Geometry Optimization
  ===> : Switching off AutoStart
         For restart on a previous wavefunction, please use MOREAD

INFO   : the flag for use of the SHARK integral package has been found!

================================================================================
                                       INPUT FILE
================================================================================
NAME = 5_prot_aq_5.inp
|  1> # ORCA 5.0.4 - /users/bwb16179/postgrad/2024_03/DFT_Crest_Conformers/Opt/prot/5_prot_aq_5.inp # write input file
|  2> # Basic Mode
|  3> #
|  4> ! Opt Freq wB97X Def2-SVP D4 SlowConv TightSCF Defgrid2 Def2/J RIJCOSX CPCM(Water)
|  5> 
|  6> 
|  7> 
|  8> %maxcore 4500
|  9> 
| 10> %geom
| 11> Maxiter 150
| 12> END
| 13> 
| 14> * xyzfile 1 1 5_prot_aq_5.xyz
| 15> 
| 16>                          ****END OF INPUT****
================================================================================

                       *****************************
                       * Geometry Optimization Run *
                       *****************************

Geometry optimization settings:
Update method            Update   .... BFGS
Choice of coordinates    CoordSys .... Z-matrix Internals
Initial Hessian          InHess   .... Almoef's Model

Convergence Tolerances:
Energy Change            TolE     ....  5.0000e-06 Eh
Max. Gradient            TolMAXG  ....  3.0000e-04 Eh/bohr
RMS Gradient             TolRMSG  ....  1.0000e-04 Eh/bohr
Max. Displacement        TolMAXD  ....  4.0000e-03 bohr
RMS Displacement         TolRMSD  ....  2.0000e-03 bohr
Strict Convergence                ....  False
------------------------------------------------------------------------------
                        ORCA OPTIMIZATION COORDINATE SETUP
------------------------------------------------------------------------------

The optimization will be done in new redundant internal coordinates
Making redundant internal coordinates   ...  (new redundants) done
Evaluating the initial hessian          ...  (Almloef) done
Evaluating the coordinates              ...  done
Calculating the B-matrix                .... done
Calculating the G-matrix                .... done
Diagonalizing the G-matrix              .... done
Small eigenvalue found = 9.427e-03
Small eigenvalue found = 2.452e-02
The first mode is                       ....   87
The number of degrees of freedom        ....   96

    -----------------------------------------------------------------
                    Redundant Internal Coordinates


    -----------------------------------------------------------------
         Definition                    Initial Value    Approx d2E/dq
    -----------------------------------------------------------------
      1. B(C   1,N   0)                  1.3303         0.696914   
      2. B(N   2,C   1)                  1.3303         0.696921   
      3. B(H   3,C   1)                  1.0703         0.387083   
      4. B(C   4,N   2)                  1.3602         0.624260   
      5. B(C   5,C   4)                  1.3622         0.692052   
      6. B(C   5,N   0)                  1.3602         0.624273   
      7. B(C   6,N   0)                  1.4757         0.408494   
      8. B(C   7,N   2)                  1.4757         0.408501   
      9. B(C   8,C   6)                  1.5300         0.373588   
     10. B(C   9,C   6)                  1.5300         0.373559   
     11. B(C  10,C   6)                  1.5250         0.380442   
     12. B(C  11,C   7)                  1.5250         0.380438   
     13. B(C  12,C   7)                  1.5300         0.373572   
     14. B(C  13,C   7)                  1.5300         0.373580   
     15. B(H  14,C   4)                  1.0688         0.389240   
     16. B(H  15,C   5)                  1.0688         0.389236   
     17. B(H  16,C   8)                  1.0876         0.363249   
     18. B(H  17,C   8)                  1.0866         0.364593   
     19. B(H  18,C   8)                  1.0858         0.365759   
     20. B(H  19,C  10)                  1.0872         0.363840   
     21. B(H  20,C  10)                  1.0861         0.365293   
     22. B(H  21,C  10)                  1.0872         0.363844   
     23. B(H  22,C  12)                  1.0858         0.365765   
     24. B(H  23,C  12)                  1.0876         0.363246   
     25. B(H  24,C  12)                  1.0866         0.364600   
     26. B(H  25,C   9)                  1.0876         0.363245   
     27. B(H  26,C   9)                  1.0857         0.365768   
     28. B(H  27,C   9)                  1.0866         0.364576   
     29. B(H  28,C  11)                  1.0872         0.363830   
     30. B(H  29,C  11)                  1.0861         0.365287   
     31. B(H  30,C  11)                  1.0872         0.363854   
     32. B(H  31,C  13)                  1.0876         0.363245   
     33. B(H  32,C  13)                  1.0858         0.365759   
     34. B(H  33,C  13)                  1.0866         0.364563   
     35. A(C   1,N   0,C   5)          107.3841         0.438057   
     36. A(C   1,N   0,C   6)          124.6234         0.406108   
     37. A(C   5,N   0,C   6)          127.9925         0.398305   
     38. A(N   0,C   1,H   3)          124.9149         0.362189   
     39. A(N   0,C   1,N   2)          110.1699         0.446863   
     40. A(N   2,C   1,H   3)          124.9152         0.362190   
     41. A(C   1,N   2,C   4)          107.3839         0.438056   
     42. A(C   1,N   2,C   7)          124.6259         0.406110   
     43. A(C   4,N   2,C   7)          127.9901         0.398305   
     44. A(C   5,C   4,H  14)          128.8041         0.364366   
     45. A(N   2,C   4,H  14)          123.6649         0.355801   
     46. A(N   2,C   4,C   5)          107.5310         0.440394   
     47. A(N   0,C   5,H  15)          123.6638         0.355802   
     48. A(C   4,C   5,H  15)          128.8050         0.364365   
     49. A(N   0,C   5,C   4)          107.5311         0.440395   
     50. A(N   0,C   6,C  10)          109.7294         0.367800   
     51. A(N   0,C   6,C   9)          107.9411         0.366651   
     52. A(C   8,C   6,C   9)          111.1869         0.363351   
     53. A(N   0,C   6,C   8)          107.9598         0.366655   
     54. A(C   9,C   6,C  10)          109.9865         0.364482   
     55. A(C   8,C   6,C  10)          109.9833         0.364487   
     56. A(C  12,C   7,C  13)          111.1853         0.363352   
     57. A(C  11,C   7,C  13)          109.9916         0.364485   
     58. A(N   2,C   7,C  13)          107.9443         0.366655   
     59. A(C  11,C   7,C  12)          109.9767         0.364484   
     60. A(N   2,C   7,C  12)          107.9577         0.366654   
     61. A(N   2,C   7,C  11)          109.7314         0.367801   
     62. A(C   6,C   8,H  18)          109.4339         0.325153   
     63. A(H  16,C   8,H  17)          108.7801         0.291806   
     64. A(C   6,C   8,H  17)          111.7716         0.324982   
     65. A(C   6,C   8,H  16)          110.7200         0.324785   
     66. A(H  17,C   8,H  18)          107.8978         0.292122   
     67. A(H  16,C   8,H  18)          108.1274         0.291952   
     68. A(H  26,C   9,H  27)          107.9052         0.292121   
     69. A(H  25,C   9,H  27)          108.7768         0.291803   
     70. A(C   6,C   9,H  27)          111.7647         0.324975   
     71. A(H  25,C   9,H  26)          108.1292         0.291953   
     72. A(C   6,C   9,H  26)          109.4368         0.325150   
     73. A(C   6,C   9,H  25)          110.7187         0.324780   
     74. A(H  20,C  10,H  21)          107.6528         0.291969   
     75. A(H  19,C  10,H  21)          109.6790         0.291786   
     76. A(C   6,C  10,H  21)          111.4121         0.325845   
     77. A(H  19,C  10,H  20)          107.6579         0.291969   
     78. A(C   6,C  10,H  20)          108.8805         0.326058   
     79. A(C   6,C  10,H  19)          111.4089         0.325844   
     80. A(H  29,C  11,H  30)          107.6505         0.291970   
     81. A(H  28,C  11,H  30)          109.6789         0.291786   
     82. A(C   7,C  11,H  30)          111.4155         0.325846   
     83. A(H  28,C  11,H  29)          107.6602         0.291967   
     84. A(C   7,C  11,H  29)          108.8812         0.326057   
     85. A(C   7,C  11,H  28)          111.4049         0.325842   
     86. A(H  23,C  12,H  24)          108.7820         0.291806   
     87. A(H  22,C  12,H  24)          107.8923         0.292124   
     88. A(C   7,C  12,H  24)          111.7772         0.324981   
     89. A(H  22,C  12,H  23)          108.1270         0.291953   
     90. A(C   7,C  12,H  23)          110.7192         0.324782   
     91. A(C   7,C  12,H  22)          109.4328         0.325151   
     92. A(H  31,C  13,H  33)          108.7737         0.291802   
     93. A(C   7,C  13,H  33)          111.7603         0.324977   
     94. A(H  31,C  13,H  32)          108.1303         0.291952   
     95. A(C   7,C  13,H  32)          109.4358         0.325152   
     96. A(H  32,C  13,H  33)          107.9109         0.292118   
     97. A(C   7,C  13,H  31)          110.7206         0.324783   
     98. D(H   3,C   1,N   0,C   6)     -0.0615         0.040156   
     99. D(N   2,C   1,N   0,C   6)    179.9397         0.040156   
    100. D(N   2,C   1,N   0,C   5)     -0.0079         0.040156   
    101. D(H   3,C   1,N   0,C   5)    179.9909         0.040156   
    102. D(C   7,N   2,C   1,N   0)    179.9880         0.040157   
    103. D(C   4,N   2,C   1,N   0)      0.0119         0.040157   
    104. D(C   4,N   2,C   1,H   3)   -179.9870         0.040157   
    105. D(C   7,N   2,C   1,H   3)     -0.0108         0.040157   
    106. D(H  14,C   4,N   2,C   1)    179.9923         0.031590   
    107. D(C   5,C   4,N   2,C   1)     -0.0111         0.031590   
    108. D(H  14,C   4,N   2,C   7)      0.0171         0.031590   
    109. D(C   5,C   4,N   2,C   7)   -179.9862         0.031590   
    110. D(H  15,C   5,N   0,C   1)   -179.9977         0.031591   
    111. D(C   4,C   5,N   0,C   6)   -179.9445         0.031591   
    112. D(C   4,C   5,N   0,C   1)      0.0008         0.031591   
    113. D(H  15,C   5,C   4,H  14)      0.0012         0.033667   
    114. D(N   0,C   5,C   4,H  14)   -179.9972         0.033667   
    115. D(N   0,C   5,C   4,N   2)      0.0064         0.033667   
    116. D(H  15,C   5,C   4,N   2)   -179.9953         0.033667   
    117. D(H  15,C   5,N   0,C   6)      0.0570         0.031591   
    118. D(C  10,C   6,N   0,C   5)     -0.1450         0.014237   
    119. D(C  10,C   6,N   0,C   1)    179.9185         0.014237   
    120. D(C   9,C   6,N   0,C   5)    119.7091         0.014237   
    121. D(C   9,C   6,N   0,C   1)    -60.2275         0.014237   
    122. D(C   8,C   6,N   0,C   5)   -120.0064         0.014237   
    123. D(C   8,C   6,N   0,C   1)     60.0571         0.014237   
    124. D(C  12,C   7,N   2,C   4)   -120.1783         0.014237   
    125. D(C  11,C   7,N   2,C   4)     -0.3249         0.014237   
    126. D(C  11,C   7,N   2,C   1)    179.7039         0.014237   
    127. D(C  13,C   7,N   2,C   1)    -60.4328         0.014237   
    128. D(C  12,C   7,N   2,C   1)     59.8505         0.014237   
    129. D(C  13,C   7,N   2,C   4)    119.5384         0.014237   
    130. D(H  18,C   8,C   6,C  10)     57.2217         0.011144   
    131. D(H  18,C   8,C   6,C   9)    -64.8522         0.011144   
    132. D(H  18,C   8,C   6,N   0)    176.9229         0.011144   
    133. D(H  17,C   8,C   6,C   9)     54.6090         0.011144   
    134. D(H  17,C   8,C   6,C  10)    176.6829         0.011144   
    135. D(H  17,C   8,C   6,N   0)    -63.6159         0.011144   
    136. D(H  16,C   8,C   6,C  10)    -61.8697         0.011144   
    137. D(H  16,C   8,C   6,C   9)    176.0564         0.011144   
    138. D(H  16,C   8,C   6,N   0)     57.8315         0.011144   
    139. D(H  27,C   9,C   6,C  10)   -176.7930         0.011143   
    140. D(H  27,C   9,C   6,C   8)    -54.7209         0.011143   
    141. D(H  27,C   9,C   6,N   0)     63.5152         0.011143   
    142. D(H  26,C   9,C   6,C  10)    -57.3251         0.011143   
    143. D(H  26,C   9,C   6,C   8)     64.7469         0.011143   
    144. D(H  26,C   9,C   6,N   0)   -177.0169         0.011143   
    145. D(H  25,C   9,C   6,C  10)     61.7695         0.011143   
    146. D(H  25,C   9,C   6,N   0)    -57.9223         0.011143   
    147. D(H  25,C   9,C   6,C   8)   -176.1584         0.011143   
    148. D(H  21,C  10,C   6,C   8)   -179.9252         0.011534   
    149. D(H  21,C  10,C   6,N   0)     61.4562         0.011534   
    150. D(H  20,C  10,C   6,C   9)     61.4370         0.011534   
    151. D(H  20,C  10,C   6,C   8)    -61.3466         0.011534   
    152. D(H  20,C  10,C   6,N   0)   -179.9652         0.011534   
    153. D(H  19,C  10,C   6,C   9)   -179.9801         0.011534   
    154. D(H  19,C  10,C   6,C   8)     57.2363         0.011534   
    155. D(H  21,C  10,C   6,C   9)    -57.1416         0.011534   
    156. D(H  19,C  10,C   6,N   0)    -61.3824         0.011534   
    157. D(H  29,C  11,C   7,N   2)   -179.8843         0.011534   
    158. D(H  28,C  11,C   7,C  13)   -179.9064         0.011534   
    159. D(H  28,C  11,C   7,C  12)     57.3129         0.011534   
    160. D(H  28,C  11,C   7,N   2)    -61.3005         0.011534   
    161. D(H  30,C  11,C   7,C  13)    -57.0685         0.011534   
    162. D(H  30,C  11,C   7,C  12)   -179.8491         0.011534   
    163. D(H  30,C  11,C   7,N   2)     61.5375         0.011534   
    164. D(H  29,C  11,C   7,C  13)     61.5098         0.011534   
    165. D(H  29,C  11,C   7,C  12)    -61.2709         0.011534   
    166. D(H  24,C  12,C   7,C  13)     54.5924         0.011143   
    167. D(H  24,C  12,C   7,C  11)    176.6672         0.011143   
    168. D(H  24,C  12,C   7,N   2)    -63.6342         0.011143   
    169. D(H  23,C  12,C   7,C  13)    176.0455         0.011143   
    170. D(H  23,C  12,C   7,C  11)    -61.8796         0.011143   
    171. D(H  23,C  12,C   7,N   2)     57.8189         0.011143   
    172. D(H  22,C  12,C   7,C  13)    -64.8648         0.011143   
    173. D(H  22,C  12,C   7,C  11)     57.2100         0.011143   
    174. D(H  22,C  12,C   7,N   2)    176.9086         0.011143   
    175. D(H  33,C  13,C   7,C  12)    -54.8072         0.011144   
    176. D(H  33,C  13,C   7,C  11)   -176.8733         0.011144   
    177. D(H  33,C  13,C   7,N   2)     63.4276         0.011144   
    178. D(H  32,C  13,C   7,C  12)     64.6645         0.011144   
    179. D(H  32,C  13,C   7,C  11)    -57.4017         0.011144   
    180. D(H  32,C  13,C   7,N   2)   -177.1008         0.011144   
    181. D(H  31,C  13,C   7,C  12)   -176.2390         0.011144   
    182. D(H  31,C  13,C   7,C  11)     61.6948         0.011144   
    183. D(H  31,C  13,C   7,N   2)    -58.0043         0.011144   
    -----------------------------------------------------------------

Number of atoms                         .... 34
Number of degrees of freedom            .... 183

         *************************************************************
         *                GEOMETRY OPTIMIZATION CYCLE   1            *
         *************************************************************
---------------------------------
CARTESIAN COORDINATES (ANGSTROEM)
---------------------------------
  N     -1.090819   -0.213278   -0.183740
  C     -0.000033    0.364744    0.311922
  N      1.090817   -0.213716   -0.183082
  H     -0.000081    1.177621    1.008225
  C      0.681138   -1.198511   -1.027226
  C     -0.681032   -1.198293   -1.027566
  C     -2.473411    0.177944    0.152415
  C      2.473384    0.177897    0.152703
  C     -2.661803    1.640885   -0.254010
  C     -2.662035   -0.005943    1.659579
  C     -3.457528   -0.705002   -0.607634
  C      3.457582   -0.711918   -0.599190
  C      2.659495    0.004732    1.661438
  C      2.664245    1.637626   -0.264013
  H      1.350957   -1.831094   -1.569032
  H     -1.350799   -1.830665   -1.569688
  H     -2.458281    1.775063   -1.313970
  H     -2.013740    2.303441    0.313252
  H     -3.689126    1.938360   -0.066977
  H     -3.343044   -0.592444   -1.682901
  H     -4.469384   -0.405259   -0.350887
  H     -3.344418   -1.751338   -0.334952
  H      3.686770    0.234553    1.927417
  H      2.454210   -1.020992    1.959249
  H      2.011655    0.669411    2.226458
  H     -2.460411   -1.034528    1.949932
  H     -3.688874    0.225235    1.926053
  H     -2.012514    0.652303    2.230206
  H      3.340526   -1.756408   -0.321104
  H      4.469413   -0.413539   -0.340737
  H      3.347122   -0.605007   -1.675444
  H      2.465621    1.763799   -1.325886
  H      3.690798    1.936184   -0.074495
  H      2.013591    2.304561    0.295138

----------------------------
CARTESIAN COORDINATES (A.U.)
----------------------------
  NO LB      ZA    FRAG     MASS         X           Y           Z
   0 N     7.0000    0    14.007   -2.061349   -0.403037   -0.347219
   1 C     6.0000    0    12.011   -0.000062    0.689266    0.589447
   2 N     7.0000    0    14.007    2.061345   -0.403865   -0.345976
   3 H     1.0000    0     1.008   -0.000153    2.225380    1.905270
   4 C     6.0000    0    12.011    1.287165   -2.264857   -1.941176
   5 C     6.0000    0    12.011   -1.286964   -2.264445   -1.941818
   6 C     6.0000    0    12.011   -4.674070    0.336265    0.288023
   7 C     6.0000    0    12.011    4.674019    0.336177    0.288566
   8 C     6.0000    0    12.011   -5.030078    3.100824   -0.480009
   9 C     6.0000    0    12.011   -5.030516   -0.011230    3.136150
  10 C     6.0000    0    12.011   -6.533781   -1.332260   -1.148261
  11 C     6.0000    0    12.011    6.533884   -1.345330   -1.132305
  12 C     6.0000    0    12.011    5.025717    0.008943    3.139663
  13 C     6.0000    0    12.011    5.034693    3.094665   -0.498912
  14 H     1.0000    0     1.008    2.552938   -3.460266   -2.965041
  15 H     1.0000    0     1.008   -2.552639   -3.459456   -2.966281
  16 H     1.0000    0     1.008   -4.645479    3.354383   -2.483043
  17 H     1.0000    0     1.008   -3.805417    4.352873    0.591961
  18 H     1.0000    0     1.008   -6.971438    3.662969   -0.126567
  19 H     1.0000    0     1.008   -6.317438   -1.119556   -3.180222
  20 H     1.0000    0     1.008   -8.445912   -0.765828   -0.663080
  21 H     1.0000    0     1.008   -6.320033   -3.309550   -0.632967
  22 H     1.0000    0     1.008    6.966985    0.443242    3.642291
  23 H     1.0000    0     1.008    4.637784   -1.929396    3.702444
  24 H     1.0000    0     1.008    3.801478    1.265003    4.207396
  25 H     1.0000    0     1.008   -4.649504   -1.954975    3.684837
  26 H     1.0000    0     1.008   -6.970961    0.425632    3.639712
  27 H     1.0000    0     1.008   -3.803099    1.232675    4.214479
  28 H     1.0000    0     1.008    6.312680   -3.319129   -0.606799
  29 H     1.0000    0     1.008    8.445966   -0.781475   -0.643900
  30 H     1.0000    0     1.008    6.325143   -1.143298   -3.166130
  31 H     1.0000    0     1.008    4.659348    3.333097   -2.505561
  32 H     1.0000    0     1.008    6.974597    3.658857   -0.140775
  33 H     1.0000    0     1.008    3.805136    4.354990    0.557729

--------------------------------
INTERNAL COORDINATES (ANGSTROEM)
--------------------------------
 N      0   0   0     0.000000000000     0.00000000     0.00000000
 C      1   0   0     1.330264648677     0.00000000     0.00000000
 N      2   1   0     1.330262193682   110.16986688     0.00000000
 H      2   1   3     1.070330591074   124.91494554   179.99881398
 C      3   2   1     1.360233867981   107.38394917     0.00000000
 C      1   2   3     1.360228085887   107.38405694     0.00000000
 C      1   2   3     1.475675404118   124.62338677   179.93972951
 C      3   2   1     1.475670940044   124.62593622   179.98802045
 C      7   1   2     1.529990391455   107.95975048    60.05707183
 C      7   1   2     1.530011648540   107.94108192   299.77254062
 C      7   1   2     1.525041730469   109.72944766   179.91846654
 C      8   3   2     1.525044303368   109.73141913   179.70391194
 C      8   3   2     1.530002010451   107.95773124    59.85052195
 C      8   3   2     1.529996014020   107.94425884   299.56723565
 H      5   3   2     1.068817913449   123.66494497   179.99226603
 H      6   1   2     1.068821140501   123.66384627   180.00229662
 H      9   7   1     1.087630269799   110.71997062    57.83150427
 H      9   7   1     1.086624310224   111.77156119   296.38407650
 H      9   7   1     1.085755736844   109.43388525   176.92291197
 H     11   7   1     1.087187041698   111.40889009   298.61762873
 H     11   7   1     1.086102192907   108.88049068   180.03475871
 H     11   7   1     1.087184118846   111.41213042    61.45617383
 H     13   8   3     1.085751145001   109.43275023   176.90859775
 H     13   8   3     1.087632477160   110.71916593    57.81893801
 H     13   8   3     1.086619234163   111.77723740   296.36576512
 H     10   7   1     1.087632680937   110.71865237   302.07772552
 H     10   7   1     1.085748415700   109.43678160   182.98310384
 H     10   7   1     1.086637426627   111.76465678    63.51522647
 H     12   8   3     1.087194746717   111.40492374   298.69949298
 H     12   8   3     1.086106972808   108.88121627   180.11573789
 H     12   8   3     1.087176944834   111.41551529    61.53745558
 H     14   8   3     1.087632783170   110.72059397   301.99574296
 H     14   8   3     1.085755460467   109.43582859   182.89919227
 H     14   8   3     1.086647273032   111.76028664    63.42757204

---------------------------
INTERNAL COORDINATES (A.U.)
---------------------------
 N      0   0   0     0.000000000000     0.00000000     0.00000000
 C      1   0   0     2.513835871636     0.00000000     0.00000000
 N      2   1   0     2.513831232368   110.16986688     0.00000000
 H      2   1   3     2.022631689888   124.91494554   179.99881398
 C      3   2   1     2.570469488569   107.38394917     0.00000000
 C      1   2   3     2.570458561995   107.38405694     0.00000000
 C      1   2   3     2.788622376347   124.62338677   179.93972951
 C      3   2   1     2.788613940469   124.62593622   179.98802045
 C      7   1   2     2.891262827382   107.95975048    60.05707183
 C      7   1   2     2.891302997449   107.94108192   299.77254062
 C      7   1   2     2.881911213388   109.72944766   179.91846654
 C      8   3   2     2.881916075463   109.73141913   179.70391194
 C      8   3   2     2.891284784101   107.95773124    59.85052195
 C      8   3   2     2.891273452488   107.94425884   299.56723565
 H      5   3   2     2.019773143448   123.66494497   179.99226603
 H      6   1   2     2.019779241692   123.66384627   180.00229662
 H      9   7   1     2.055323344882   110.71997062    57.83150427
 H      9   7   1     2.053422356784   111.77156119   296.38407650
 H      9   7   1     2.051780990969   109.43388525   176.92291197
 H     11   7   1     2.054485765158   111.40889009   298.61762873
 H     11   7   1     2.052435698046   108.88049068   180.03475871
 H     11   7   1     2.054480241768   111.41213042    61.45617383
 H     13   8   3     2.051772313643   109.43275023   176.90859775
 H     13   8   3     2.055327516190   110.71916593    57.81893801
 H     13   8   3     2.053412764420   111.77723740   296.36576512
 H     10   7   1     2.055327901274   110.71865237   302.07772552
 H     10   7   1     2.051767156012   109.43678160   182.98310384
 H     10   7   1     2.053447143195   111.76465678    63.51522647
 H     12   8   3     2.054500325533   111.40492374   298.69949298
 H     12   8   3     2.052444730749   108.88121627   180.11573789
 H     12   8   3     2.054466684849   111.41551529    61.53745558
 H     14   8   3     2.055328094466   110.72059397   301.99574296
 H     14   8   3     2.051780468693   109.43582859   182.89919227
 H     14   8   3     2.053465750203   111.76028664    63.42757204

---------------------
BASIS SET INFORMATION
---------------------
There are 3 groups of distinct atoms

 Group   1 Type N   : 7s4p1d contracted to 3s2p1d pattern {511/31/1}
 Group   2 Type C   : 7s4p1d contracted to 3s2p1d pattern {511/31/1}
 Group   3 Type H   : 4s1p contracted to 2s1p pattern {31/1}

Atom   0N    basis set group =>   1
Atom   1C    basis set group =>   2
Atom   2N    basis set group =>   1
Atom   3H    basis set group =>   3
Atom   4C    basis set group =>   2
Atom   5C    basis set group =>   2
Atom   6C    basis set group =>   2
Atom   7C    basis set group =>   2
Atom   8C    basis set group =>   2
Atom   9C    basis set group =>   2
Atom  10C    basis set group =>   2
Atom  11C    basis set group =>   2
Atom  12C    basis set group =>   2
Atom  13C    basis set group =>   2
Atom  14H    basis set group =>   3
Atom  15H    basis set group =>   3
Atom  16H    basis set group =>   3
Atom  17H    basis set group =>   3
Atom  18H    basis set group =>   3
Atom  19H    basis set group =>   3
Atom  20H    basis set group =>   3
Atom  21H    basis set group =>   3
Atom  22H    basis set group =>   3
Atom  23H    basis set group =>   3
Atom  24H    basis set group =>   3
Atom  25H    basis set group =>   3
Atom  26H    basis set group =>   3
Atom  27H    basis set group =>   3
Atom  28H    basis set group =>   3
Atom  29H    basis set group =>   3
Atom  30H    basis set group =>   3
Atom  31H    basis set group =>   3
Atom  32H    basis set group =>   3
Atom  33H    basis set group =>   3
---------------------------------
AUXILIARY/J BASIS SET INFORMATION
---------------------------------
There are 3 groups of distinct atoms

 Group   1 Type N   : 12s5p4d2f1g contracted to 6s4p3d1f1g pattern {711111/2111/211/2/1}
 Group   2 Type C   : 12s5p4d2f1g contracted to 6s4p3d1f1g pattern {711111/2111/211/2/1}
 Group   3 Type H   : 5s2p1d contracted to 3s1p1d pattern {311/2/1}

Atom   0N    basis set group =>   1
Atom   1C    basis set group =>   2
Atom   2N    basis set group =>   1
Atom   3H    basis set group =>   3
Atom   4C    basis set group =>   2
Atom   5C    basis set group =>   2
Atom   6C    basis set group =>   2
Atom   7C    basis set group =>   2
Atom   8C    basis set group =>   2
Atom   9C    basis set group =>   2
Atom  10C    basis set group =>   2
Atom  11C    basis set group =>   2
Atom  12C    basis set group =>   2
Atom  13C    basis set group =>   2
Atom  14H    basis set group =>   3
Atom  15H    basis set group =>   3
Atom  16H    basis set group =>   3
Atom  17H    basis set group =>   3
Atom  18H    basis set group =>   3
Atom  19H    basis set group =>   3
Atom  20H    basis set group =>   3
Atom  21H    basis set group =>   3
Atom  22H    basis set group =>   3
Atom  23H    basis set group =>   3
Atom  24H    basis set group =>   3
Atom  25H    basis set group =>   3
Atom  26H    basis set group =>   3
Atom  27H    basis set group =>   3
Atom  28H    basis set group =>   3
Atom  29H    basis set group =>   3
Atom  30H    basis set group =>   3
Atom  31H    basis set group =>   3
Atom  32H    basis set group =>   3
Atom  33H    basis set group =>   3
------------------------------------------------------------------------------
                           ORCA GTO INTEGRAL CALCULATION
                           -- RI-GTO INTEGRALS CHOSEN --
------------------------------------------------------------------------------
------------------------------------------------------------------------------
                   ___                                                        
                  /   \      - P O W E R E D   B Y -                         
                 /     \                                                     
                 |  |  |   _    _      __       _____    __    __             
                 |  |  |  | |  | |    /  \     |  _  \  |  |  /  |          
                  \  \/   | |  | |   /    \    | | | |  |  | /  /          
                 / \  \   | |__| |  /  /\  \   | |_| |  |  |/  /          
                |  |  |   |  __  | /  /__\  \  |    /   |      \           
                |  |  |   | |  | | |   __   |  |    \   |  |\   \          
                \     /   | |  | | |  |  |  |  | |\  \  |  | \   \       
                 \___/    |_|  |_| |__|  |__|  |_| \__\ |__|  \__/        
                                                                              
                      - O R C A' S   B I G   F R I E N D -                    
                                      &                                       
                       - I N T E G R A L  F E E D E R -                       
                                                                              
 v1 FN, 2020, v2 2021                                                         
------------------------------------------------------------------------------


Reading SHARK input file 5_prot_aq_5.SHARKINP.tmp ... ok
----------------------
SHARK INTEGRAL PACKAGE
----------------------

Number of atoms                             ...     34
Number of basis functions                   ...    287
Number of shells                            ...    141
Maximum angular momentum                    ...      2
Integral batch strategy                     ... SHARK/LIBINT Hybrid
RI-J (if used) integral strategy            ... SPLIT-RIJ (Revised 2003 algorithm where possible)
Printlevel                                  ...      1
Contraction scheme used                     ... SEGMENTED contraction
Coulomb Range Separation                    ... NOT USED
Exchange Range Separation                   ... Long Range
   Mu parameter                             ...  0.300000
   Scaling (regular/separated)              ...  0.157706  0.842294
Finite Nucleus Model                        ... NOT USED
Auxiliary Coulomb fitting basis             ... AVAILABLE
   # of basis functions in Aux-J            ...    868
   # of shells in Aux-J                     ...    300
   Maximum angular momentum in Aux-J        ...      4
Auxiliary J/K fitting basis                 ... NOT available
Auxiliary Correlation fitting basis         ... NOT available
Auxiliary 'external' fitting basis          ... NOT available
Integral threshold                          ...     2.500000e-11
Primitive cut-off                           ...     2.500000e-12
Primitive pair pre-selection threshold      ...     2.500000e-12

Calculating pre-screening integrals         ... done (  0.1 sec) Dimension = 141
Organizing shell pair data                  ... done (  0.1 sec)
Shell pair information
Total number of shell pairs                 ...     10011
Shell pairs after pre-screening             ...      8614
Total number of primitive shell pairs       ...     34423
Primitive shell pairs kept                  ...     20687
          la=0 lb=0:   2956 shell pairs
          la=1 lb=0:   3275 shell pairs
          la=1 lb=1:    928 shell pairs
          la=2 lb=0:    893 shell pairs
          la=2 lb=1:    487 shell pairs
          la=2 lb=2:     75 shell pairs

Calculating one electron integrals          ... done (  0.1 sec)
Calculating RI/J V-Matrix + Cholesky decomp.... done (  0.1 sec)
Calculating Nuclear repulsion               ... done (  0.0 sec) ENN=    878.465932439080 Eh

SHARK setup successfully completed in   0.5 seconds

Maximum memory used throughout the entire GTOINT-calculation: 48.7 MB
-------------------------------------------------------------------------------
                                 ORCA SCF
-------------------------------------------------------------------------------

------------
SCF SETTINGS
------------
Hamiltonian:
 Density Functional     Method          .... DFT(GTOs)
 Exchange Functional    Exchange        .... WB97X
 Correlation Functional Correlation     .... WB97X
 Gradients option       PostSCFGGA      .... off
 Hybrid DFT is turned on
   Fraction HF Exchange ScalHFX         ....  0.157706
   Scaling of DF-GGA-X  ScalDFX         ....  0.000000
   Scaling of DF-GGA-C  ScalDFC         ....  1.000000
   Scaling of DF-LDA-C  ScalLDAC        ....  1.000000
   Perturbative correction              ....  0.000000
   Density functional embedding theory  .... OFF
 Long-range corrected/Screened/Range-Separated Hybrid DFT is turned on
   Amount of maximum screened exact exchange              ....  0.842294
   Range separation parameter mu (erf(mu*r12)/r12)        ....  0.300000
 RI-approximation to the Coulomb term is turned on
   Number of AuxJ basis functions       .... 868
   RIJ-COSX (HFX calculated with COS-X)).... on


General Settings:
 Integral files         IntName         .... 5_prot_aq_5
 Hartree-Fock type      HFTyp           .... RHF
 Total Charge           Charge          ....    1
 Multiplicity           Mult            ....    1
 Number of Electrons    NEL             ....  100
 Basis Dimension        Dim             ....  287
 Nuclear Repulsion      ENuc            ....    878.4659324391 Eh

Convergence Acceleration:
 DIIS                   CNVDIIS         .... on
   Start iteration      DIISMaxIt       ....     0
   Startup error        DIISStart       ....  0.200000
   # of expansion vecs  DIISMaxEq       ....     5
   Bias factor          DIISBfac        ....   1.050
   Max. coefficient     DIISMaxC        ....  10.000
 Trust-Rad. Augm. Hess. CNVTRAH         .... auto
   Auto Start mean grad. ratio tolernc. ....  1.125000
   Auto Start start iteration           ....    20
   Auto Start num. interpolation iter.  ....    10
   Max. Number of Micro iterations      ....    16
   Max. Number of Macro iterations      .... Maxiter - #DIIS iter
   Number of Davidson start vectors     ....     2
   Converg. threshold I  (grad. norm)   ....   1.000e-05
   Converg. threshold II (energy diff.) ....   1.000e-08
   Grad. Scal. Fac. for Micro threshold ....   0.100
   Minimum threshold for Micro iter.    ....   0.010
   NR start threshold (gradient norm)   ....   0.001
   Initial trust radius                 ....   0.400
   Minimum AH scaling param. (alpha)    ....   1.000
   Maximum AH scaling param. (alpha)    .... 1000.000
   Orbital update algorithm             .... Taylor
   White noise on init. David. guess    .... on
   Maximum white noise                  ....   0.010
   Quad. conv. algorithm                .... NR
 SOSCF                  CNVSOSCF        .... on
   Start iteration      SOSCFMaxIt      ....   150
   Startup grad/error   SOSCFStart      ....  0.001000
 Level Shifting         CNVShift        .... on
   Level shift para.    LevelShift      ....    0.2500
   Turn off err/grad.   ShiftErr        ....    0.0000
 Zerner damping         CNVZerner       .... off
 Static damping         CNVDamp         .... on
   Fraction old density DampFac         ....    0.8500
   Max. Damping (<1)    DampMax         ....    0.9800
   Min. Damping (>=0)   DampMin         ....    0.0000
   Turn off err/grad.   DampErr         ....    0.0300
 Fernandez-Rico         CNVRico         .... off

SCF Procedure:
 Maximum # iterations   MaxIter         ....   125
 SCF integral mode      SCFMode         .... Direct
   Integral package                     .... SHARK and LIBINT hybrid scheme
 Reset frequency        DirectResetFreq ....    20
 Integral Threshold     Thresh          ....  2.500e-11 Eh
 Primitive CutOff       TCut            ....  2.500e-12 Eh

Convergence Tolerance:
 Convergence Check Mode ConvCheckMode   .... Total+1el-Energy
 Convergence forced     ConvForced      .... 0
 Energy Change          TolE            ....  1.000e-08 Eh
 1-El. energy change                    ....  1.000e-05 Eh
 Orbital Gradient       TolG            ....  1.000e-05
 Orbital Rotation angle TolX            ....  1.000e-05
 DIIS Error             TolErr          ....  5.000e-07


Diagonalization of the overlap matrix:
Smallest eigenvalue                        ... 9.593e-04
Time for diagonalization                   ...    0.014 sec
Threshold for overlap eigenvalues          ... 1.000e-08
Number of eigenvalues below threshold      ... 0
Time for construction of square roots      ...    0.030 sec
Total time needed                          ...    0.044 sec

Time for model grid setup =    0.702 sec

------------------------------
INITIAL GUESS: MODEL POTENTIAL
------------------------------
Loading Hartree-Fock densities                     ... done
Calculating cut-offs                               ... done
Initializing the effective Hamiltonian             ... done
Setting up the integral package (SHARK)            ... done
Starting the Coulomb interaction                   ... done (   0.9 sec)
Reading the grid                                   ... done
Mapping shells                                     ... done
Starting the XC term evaluation                    ... done (   0.8 sec)
  promolecular density results
     # of electrons  =    100.999067912
     EX              =    -75.695889454
     EC              =     -3.363057341
     EX+EC           =    -79.058946795
Transforming the Hamiltonian                       ... done (   0.0 sec)
Diagonalizing the Hamiltonian                      ... done (   0.0 sec)
Back transforming the eigenvectors                 ... done (   0.0 sec)
Now organizing SCF variables                       ... done
                      ------------------
                      INITIAL GUESS DONE (   2.3 sec)
                      ------------------
-------------------
DFT GRID GENERATION
-------------------

General Integration Accuracy     IntAcc      ... 4.388
Radial Grid Type                 RadialGrid  ... OptM3 with GC (2021)
Angular Grid (max. ang.)         AngularGrid ... 4 (Lebedev-302)
Angular grid pruning method      GridPruning ... 4 (adaptive)
Weight generation scheme         WeightScheme... Becke
Basis function cutoff            BFCut       ... 1.0000e-11
Integration weight cutoff        WCut        ... 1.0000e-14
Angular grids for H and He will be reduced by one unit
Partially contracted basis set               ... off
Rotationally invariant grid construction     ... off

Total number of grid points                  ...   144025
Total number of batches                      ...     2271
Average number of points per batch           ...       63
Average number of grid points per atom       ...     4236
Time for grid setup =    2.633 sec

--------------------
COSX GRID GENERATION
--------------------

GRIDX 1
-------
General Integration Accuracy     IntAcc      ... 3.816
Radial Grid Type                 RadialGrid  ... OptM3 with GC (2021)
Angular Grid (max. ang.)         AngularGrid ... 1 (Lebedev-50)
Angular grid pruning method      GridPruning ... 4 (adaptive)
Weight generation scheme         WeightScheme... Becke
Basis function cutoff            BFCut       ... 1.0000e-11
Integration weight cutoff        WCut        ... 1.0000e-14
Angular grids for H and He will be reduced by one unit
Partially contracted basis set               ... on
Rotationally invariant grid construction     ... off

Total number of grid points                  ...    18381
Total number of batches                      ...      304
Average number of points per batch           ...       60
Average number of grid points per atom       ...      541
UseSFitting                                  ... on

GRIDX 2
-------
General Integration Accuracy     IntAcc      ... 4.020
Radial Grid Type                 RadialGrid  ... OptM3 with GC (2021)
Angular Grid (max. ang.)         AngularGrid ... 2 (Lebedev-110)
Angular grid pruning method      GridPruning ... 4 (adaptive)
Weight generation scheme         WeightScheme... Becke
Basis function cutoff            BFCut       ... 1.0000e-11
Integration weight cutoff        WCut        ... 1.0000e-14
Angular grids for H and He will be reduced by one unit
Partially contracted basis set               ... on
Rotationally invariant grid construction     ... off

Total number of grid points                  ...    38059
Total number of batches                      ...      614
Average number of points per batch           ...       61
Average number of grid points per atom       ...     1119
UseSFitting                                  ... on

GRIDX 3
-------
General Integration Accuracy     IntAcc      ... 4.338
Radial Grid Type                 RadialGrid  ... OptM3 with GC (2021)
Angular Grid (max. ang.)         AngularGrid ... 3 (Lebedev-194)
Angular grid pruning method      GridPruning ... 4 (adaptive)
Weight generation scheme         WeightScheme... Becke
Basis function cutoff            BFCut       ... 1.0000e-11
Integration weight cutoff        WCut        ... 1.0000e-14
Angular grids for H and He will be reduced by one unit
Partially contracted basis set               ... on
Rotationally invariant grid construction     ... off

Total number of grid points                  ...    82894
Total number of batches                      ...     1311
Average number of points per batch           ...       63
Average number of grid points per atom       ...     2438
UseSFitting                                  ... on

Time for X-Grid setup             =    3.510 sec


--------------------
CPCM SOLVATION MODEL
--------------------
CPCM parameters:
  Epsilon                                         ...      80.4000
  Refrac                                          ...       1.3300
  Rsolv                                           ...       1.3000
  Surface type                                    ... GAUSSIAN VDW
  Epsilon function type                           ...         CPCM
Radii:
 Radius for N  used is    3.5149 Bohr (=   1.8600 Ang.)
 Radius for C  used is    3.8550 Bohr (=   2.0400 Ang.)
 Radius for H  used is    2.4944 Bohr (=   1.3200 Ang.)
Calculating surface                               ...        done! (  0.0s)
GEPOL surface points                              ...         1757
GEPOL Volume                                      ...    1687.2786
GEPOL Surface-area                                ...     910.5719
Calculating surface distance matrix               ...        done! (  0.0s)
Performing Cholesky decomposition & store         ...        done! (  0.1s)
Overall time for CPCM initialization              ...                 0.1s
--------------
SCF ITERATIONS
--------------
ITER       Energy         Delta-E        Max-DP      RMS-DP      [F,P]     Damp
               ***  Starting incremental Fock matrix formation  ***
  0   -540.3922594285   0.000000000000 0.03404837  0.00064159  0.1499824 0.8500
  1   -540.4532161144  -0.060956685879 0.03054699  0.00059864  0.1208087 0.8500
                               ***Turning on DIIS***
  2   -540.4993277707  -0.046111656309 0.02393066  0.00048705  0.0927533 0.8500
  3   -540.5333864739  -0.034058703196 0.01502747  0.00034628  0.0703140 0.8500
  4   -540.5595082201  -0.026121746187 0.01018252  0.00026636  0.0559744 0.8500
  5   -540.5799830533  -0.020474833169 0.00778252  0.00021914  0.0462497 0.8500
  6   -540.5965628567  -0.016579803461 0.00631546  0.00018514  0.0388667 0.8500
  7   -540.6102419473  -0.013679090517 0.00537297  0.00015933  0.0328933 0.8500
  8   -540.6216549543  -0.011413007095 0.03048871  0.00091362  0.0278129 0.0000
  9   -540.6826901835  -0.061035229203 0.00133141  0.00003240  0.0012002 0.0000
                      *** Initiating the SOSCF procedure ***
                           *** Shutting down DIIS ***
                      *** Re-Reading the Fockian *** 
                      *** Removing any level shift *** 
ITER      Energy       Delta-E        Grad      Rot      Max-DP    RMS-DP
 10   -540.68271288  -0.0000226919  0.000149  0.000149  0.000650  0.000013
               *** Restarting incremental Fock matrix formation ***
 11   -540.68280457  -0.0000916962  0.000045  0.000088  0.000335  0.000009
 12   -540.68280491  -0.0000003362  0.000054  0.000124  0.000179  0.000004
 13   -540.68280495  -0.0000000397  0.000012  0.000019  0.000043  0.000001
 14   -540.68280496  -0.0000000158  0.000004  0.000008  0.000006  0.000000
                  ***Gradient check signals convergence***
              ***Rediagonalizing the Fockian in SOSCF/NRSCF***

               *****************************************************
               *                     SUCCESS                       *
               *           SCF CONVERGED AFTER  15 CYCLES          *
               *****************************************************

Old exchange energy                            =    -25.379263777 Eh
New exchange energy                            =    -25.379229471 Eh
Exchange energy change after final integration =      0.000034306 Eh
Total energy after final integration           =   -540.682770669 Eh
Final COS-X integration done in                =    95.081 sec

----------------
TOTAL SCF ENERGY
----------------

Total Energy       :         -540.68277067 Eh          -14712.72617 eV

Components:
Nuclear Repulsion  :          878.46593244 Eh           23904.27329 eV
Electronic Energy  :        -1419.14870311 Eh          -38616.99946 eV
One Electron Energy:        -2454.86273410 Eh          -66800.21105 eV
Two Electron Energy:         1035.71403099 Eh           28183.21159 eV
Max COSX asymmetry :            0.00000295 Eh               0.00008 eV
CPCM Dielectric    :           -0.07524687 Eh              -2.04757 eV

Virial components:
Potential Energy   :        -1075.07806384 Eh          -29254.36138 eV
Kinetic Energy     :          534.39529317 Eh           14541.63521 eV
Virial Ratio       :            2.01176559


DFT components:
N(Alpha)           :       50.000133604246 electrons
N(Beta)            :       50.000133604246 electrons
N(Total)           :      100.000267208491 electrons
E(XC)              :      -55.662848134161 Eh       
DFET-embed. en.    :        0.000000000000 Eh       
CPCM Solvation Model Properties:
Surface-charge          :           -1.02423050
Charge-correction       :            0.00320892 Eh               0.08732 eV
Free-energy (cav+disp)  :  This term is not implemented in the current solvation scheme

---------------
SCF CONVERGENCE
---------------

  Last Energy change         ...   -1.1338e-08  Tolerance :   1.0000e-08
  Last MAX-Density change    ...    4.8850e-15  Tolerance :   1.0000e-07
  Last RMS-Density change    ...    4.3323e-17  Tolerance :   5.0000e-09
  Last Orbital Gradient      ...    9.0825e-07  Tolerance :   1.0000e-05
  Last Orbital Rotation      ...    2.5124e-06  Tolerance :   1.0000e-05

             **** THE GBW FILE WAS UPDATED (5_prot_aq_5.gbw) ****
             **** DENSITY 5_prot_aq_5.scfp WAS UPDATED ****
             **** ENERGY FILE WAS UPDATED (5_prot_aq_5.en.tmp) ****
             **** THE GBW FILE WAS UPDATED (5_prot_aq_5.gbw) ****
             **** DENSITY 5_prot_aq_5.scfp WAS UPDATED ****
----------------
ORBITAL ENERGIES
----------------

  NO   OCC          E(Eh)            E(eV) 
   0   2.0000     -14.509807      -394.8319 
   1   2.0000     -14.509782      -394.8312 
   2   2.0000     -10.377777      -282.3937 
   3   2.0000     -10.343377      -281.4576 
   4   2.0000     -10.343362      -281.4572 
   5   2.0000     -10.329344      -281.0757 
   6   2.0000     -10.328776      -281.0603 
   7   2.0000     -10.271328      -279.4970 
   8   2.0000     -10.271314      -279.4967 
   9   2.0000     -10.269827      -279.4562 
  10   2.0000     -10.269818      -279.4560 
  11   2.0000     -10.269793      -279.4553 
  12   2.0000     -10.269772      -279.4547 
  13   2.0000      -1.221181       -33.2300 
  14   2.0000      -1.104895       -30.0657 
  15   2.0000      -0.984504       -26.7897 
  16   2.0000      -0.935353       -25.4523 
  17   2.0000      -0.922285       -25.0967 
  18   2.0000      -0.837916       -22.8008 
  19   2.0000      -0.827411       -22.5150 
  20   2.0000      -0.826310       -22.4850 
  21   2.0000      -0.824777       -22.4433 
  22   2.0000      -0.800202       -21.7746 
  23   2.0000      -0.769364       -20.9355 
  24   2.0000      -0.731386       -19.9020 
  25   2.0000      -0.707367       -19.2484 
  26   2.0000      -0.644911       -17.5489 
  27   2.0000      -0.633030       -17.2256 
  28   2.0000      -0.610208       -16.6046 
  29   2.0000      -0.592182       -16.1141 
  30   2.0000      -0.589536       -16.0421 
  31   2.0000      -0.581436       -15.8217 
  32   2.0000      -0.570354       -15.5201 
  33   2.0000      -0.558197       -15.1893 
  34   2.0000      -0.556765       -15.1503 
  35   2.0000      -0.549439       -14.9510 
  36   2.0000      -0.520422       -14.1614 
  37   2.0000      -0.510071       -13.8797 
  38   2.0000      -0.501030       -13.6337 
  39   2.0000      -0.500814       -13.6278 
  40   2.0000      -0.492150       -13.3921 
  41   2.0000      -0.491789       -13.3823 
  42   2.0000      -0.483196       -13.1484 
  43   2.0000      -0.482772       -13.1369 
  44   2.0000      -0.469951       -12.7880 
  45   2.0000      -0.454899       -12.3784 
  46   2.0000      -0.452344       -12.3089 
  47   2.0000      -0.451975       -12.2989 
  48   2.0000      -0.414550       -11.2805 
  49   2.0000      -0.369045       -10.0422 
  50   0.0000       0.057831         1.5737 
  51   0.0000       0.099162         2.6983 
  52   0.0000       0.132019         3.5924 
  53   0.0000       0.146350         3.9824 
  54   0.0000       0.162048         4.4095 
  55   0.0000       0.175535         4.7765 
  56   0.0000       0.183760         5.0004 
  57   0.0000       0.185404         5.0451 
  58   0.0000       0.194148         5.2830 
  59   0.0000       0.200417         5.4536 
  60   0.0000       0.208012         5.6603 
  61   0.0000       0.211503         5.7553 
  62   0.0000       0.221550         6.0287 
  63   0.0000       0.226162         6.1542 
  64   0.0000       0.229378         6.2417 
  65   0.0000       0.245089         6.6692 
  66   0.0000       0.245303         6.6750 
  67   0.0000       0.255736         6.9589 
  68   0.0000       0.261123         7.1055 
  69   0.0000       0.266884         7.2623 
  70   0.0000       0.267165         7.2699 
  71   0.0000       0.267394         7.2762 
  72   0.0000       0.275148         7.4871 
  73   0.0000       0.276691         7.5292 
  74   0.0000       0.285415         7.7665 
  75   0.0000       0.288490         7.8502 
  76   0.0000       0.294941         8.0257 
  77   0.0000       0.296978         8.0812 
  78   0.0000       0.303433         8.2568 
  79   0.0000       0.322415         8.7734 
  80   0.0000       0.330331         8.9888 
  81   0.0000       0.334538         9.1032 
  82   0.0000       0.342277         9.3138 
  83   0.0000       0.375872        10.2280 
  84   0.0000       0.407244        11.0817 
  85   0.0000       0.433802        11.8044 
  86   0.0000       0.445373        12.1192 
  87   0.0000       0.461024        12.5451 
  88   0.0000       0.468789        12.7564 
  89   0.0000       0.487587        13.2679 
  90   0.0000       0.489363        13.3162 
  91   0.0000       0.506189        13.7741 
  92   0.0000       0.506627        13.7860 
  93   0.0000       0.547750        14.9050 
  94   0.0000       0.548917        14.9368 
  95   0.0000       0.563488        15.3333 
  96   0.0000       0.584741        15.9116 
  97   0.0000       0.589329        16.0364 
  98   0.0000       0.609140        16.5755 
  99   0.0000       0.631959        17.1965 
 100   0.0000       0.636845        17.3294 
 101   0.0000       0.646369        17.5886 
 102   0.0000       0.646632        17.5957 
 103   0.0000       0.662396        18.0247 
 104   0.0000       0.673323        18.3220 
 105   0.0000       0.704474        19.1697 
 106   0.0000       0.717023        19.5112 
 107   0.0000       0.717233        19.5169 
 108   0.0000       0.722833        19.6693 
 109   0.0000       0.731394        19.9022 
 110   0.0000       0.745062        20.2742 
 111   0.0000       0.745212        20.2782 
 112   0.0000       0.748385        20.3646 
 113   0.0000       0.751284        20.4435 
 114   0.0000       0.760343        20.6900 
 115   0.0000       0.763680        20.7808 
 116   0.0000       0.768928        20.9236 
 117   0.0000       0.774237        21.0680 
 118   0.0000       0.776819        21.1383 
 119   0.0000       0.781777        21.2732 
 120   0.0000       0.783560        21.3218 
 121   0.0000       0.792483        21.5645 
 122   0.0000       0.793167        21.5832 
 123   0.0000       0.806453        21.9447 
 124   0.0000       0.808630        22.0040 
 125   0.0000       0.812561        22.1109 
 126   0.0000       0.818844        22.2819 
 127   0.0000       0.819377        22.2964 
 128   0.0000       0.819428        22.2978 
 129   0.0000       0.829547        22.5731 
 130   0.0000       0.830891        22.6097 
 131   0.0000       0.843105        22.9421 
 132   0.0000       0.847634        23.0653 
 133   0.0000       0.858801        23.3692 
 134   0.0000       0.859067        23.3764 
 135   0.0000       0.859479        23.3876 
 136   0.0000       0.880759        23.9667 
 137   0.0000       0.881572        23.9888 
 138   0.0000       0.882695        24.0193 
 139   0.0000       0.887697        24.1555 
 140   0.0000       0.985289        26.8111 
 141   0.0000       0.991749        26.9869 
 142   0.0000       1.021596        27.7990 
 143   0.0000       1.032718        28.1017 
 144   0.0000       1.053940        28.6792 
 145   0.0000       1.073872        29.2215 
 146   0.0000       1.075873        29.2760 
 147   0.0000       1.082193        29.4480 
 148   0.0000       1.137589        30.9554 
 149   0.0000       1.183490        32.2044 
 150   0.0000       1.194333        32.4995 
 151   0.0000       1.198756        32.6198 
 152   0.0000       1.199325        32.6353 
 153   0.0000       1.238475        33.7006 
 154   0.0000       1.242470        33.8093 
 155   0.0000       1.270117        34.5616 
 156   0.0000       1.283632        34.9294 
 157   0.0000       1.323555        36.0158 
 158   0.0000       1.334316        36.3086 
 159   0.0000       1.351570        36.7781 
 160   0.0000       1.359266        36.9875 
 161   0.0000       1.364243        37.1229 
 162   0.0000       1.369223        37.2585 
 163   0.0000       1.386976        37.7415 
 164   0.0000       1.399969        38.0951 
 165   0.0000       1.439169        39.1618 
 166   0.0000       1.470455        40.0131 
 167   0.0000       1.512044        41.1448 
 168   0.0000       1.529644        41.6237 
 169   0.0000       1.631615        44.3985 
 170   0.0000       1.637125        44.5484 
 171   0.0000       1.640641        44.6441 
 172   0.0000       1.650739        44.9189 
 173   0.0000       1.651344        44.9354 
 174   0.0000       1.653567        44.9958 
 175   0.0000       1.660879        45.1948 
 176   0.0000       1.663882        45.2765 
 177   0.0000       1.668988        45.4155 
 178   0.0000       1.670544        45.4578 
 179   0.0000       1.671458        45.4827 
 180   0.0000       1.705810        46.4174 
 181   0.0000       1.776975        48.3540 
 182   0.0000       1.788431        48.6657 
 183   0.0000       1.796708        48.8909 
 184   0.0000       1.806699        49.1628 
 185   0.0000       1.821496        49.5654 
 186   0.0000       1.822370        49.5892 
 187   0.0000       1.838862        50.0380 
 188   0.0000       1.850854        50.3643 
 189   0.0000       1.852475        50.4084 
 190   0.0000       1.858292        50.5667 
 191   0.0000       1.868304        50.8391 
 192   0.0000       1.883354        51.2487 
 193   0.0000       1.907290        51.9000 
 194   0.0000       1.926365        52.4191 
 195   0.0000       1.930122        52.5213 
 196   0.0000       1.935353        52.6636 
 197   0.0000       1.944468        52.9117 
 198   0.0000       1.949802        53.0568 
 199   0.0000       1.953092        53.1463 
 200   0.0000       1.958099        53.2826 
 201   0.0000       1.960695        53.3532 
 202   0.0000       1.961869        53.3852 
 203   0.0000       1.979513        53.8653 
 204   0.0000       1.985339        54.0238 
 205   0.0000       1.986452        54.0541 
 206   0.0000       2.013772        54.7975 
 207   0.0000       2.015927        54.8562 
 208   0.0000       2.021766        55.0151 
 209   0.0000       2.026277        55.1378 
 210   0.0000       2.028779        55.2059 
 211   0.0000       2.036886        55.4265 
 212   0.0000       2.054060        55.8938 
 213   0.0000       2.056833        55.9693 
 214   0.0000       2.071027        56.3555 
 215   0.0000       2.075449        56.4758 
 216   0.0000       2.084585        56.7244 
 217   0.0000       2.094213        56.9864 
 218   0.0000       2.102821        57.2207 
 219   0.0000       2.119634        57.6782 
 220   0.0000       2.125495        57.8377 
 221   0.0000       2.170882        59.0727 
 222   0.0000       2.178384        59.2768 
 223   0.0000       2.259085        61.4728 
 224   0.0000       2.263623        61.5963 
 225   0.0000       2.272839        61.8471 
 226   0.0000       2.275401        61.9168 
 227   0.0000       2.294898        62.4473 
 228   0.0000       2.305220        62.7282 
 229   0.0000       2.308256        62.8108 
 230   0.0000       2.319227        63.1094 
 231   0.0000       2.319691        63.1220 
 232   0.0000       2.333984        63.5109 
 233   0.0000       2.454088        66.7791 
 234   0.0000       2.455434        66.8157 
 235   0.0000       2.469276        67.1924 
 236   0.0000       2.477180        67.4075 
 237   0.0000       2.482237        67.5451 
 238   0.0000       2.506596        68.2079 
 239   0.0000       2.514596        68.4256 
 240   0.0000       2.526858        68.7593 
 241   0.0000       2.537062        69.0370 
 242   0.0000       2.546979        69.3068 
 243   0.0000       2.573933        70.0403 
 244   0.0000       2.574769        70.0630 
 245   0.0000       2.605991        70.9126 
 246   0.0000       2.610345        71.0311 
 247   0.0000       2.613661        71.1213 
 248   0.0000       2.628467        71.5242 
 249   0.0000       2.649625        72.1000 
 250   0.0000       2.659067        72.3569 
 251   0.0000       2.661960        72.4356 
 252   0.0000       2.746069        74.7243 
 253   0.0000       2.746590        74.7385 
 254   0.0000       2.756713        75.0140 
 255   0.0000       2.777671        75.5843 
 256   0.0000       2.807764        76.4031 
 257   0.0000       2.817991        76.6814 
 258   0.0000       2.818198        76.6871 
 259   0.0000       2.834763        77.1378 
 260   0.0000       2.862543        77.8938 
 261   0.0000       2.899793        78.9074 
 262   0.0000       2.931846        79.7796 
 263   0.0000       2.954055        80.3839 
 264   0.0000       2.958363        80.5012 
 265   0.0000       2.990587        81.3780 
 266   0.0000       2.990824        81.3845 
 267   0.0000       3.002330        81.6976 
 268   0.0000       3.005491        81.7836 
 269   0.0000       3.008288        81.8597 
 270   0.0000       3.013932        82.0133 
 271   0.0000       3.018005        82.1241 
 272   0.0000       3.031390        82.4883 
 273   0.0000       3.064499        83.3893 
 274   0.0000       3.069845        83.5347 
 275   0.0000       3.079652        83.8016 
 276   0.0000       3.089054        84.0574 
 277   0.0000       3.092717        84.1571 
 278   0.0000       3.114028        84.7370 
 279   0.0000       3.116952        84.8166 
 280   0.0000       3.167649        86.1961 
 281   0.0000       3.201264        87.1108 
 282   0.0000       3.208864        87.3176 
 283   0.0000       3.321797        90.3907 
 284   0.0000       3.491710        95.0143 
 285   0.0000       3.602769        98.0363 
 286   0.0000       3.631693        98.8234 

                    ********************************
                    * MULLIKEN POPULATION ANALYSIS *
                    ********************************

-----------------------
MULLIKEN ATOMIC CHARGES
-----------------------
   0 N :   -0.154160
   1 C :    0.204047
   2 N :   -0.154151
   3 H :    0.128242
   4 C :    0.065890
   5 C :    0.065909
   6 C :   -0.261559
   7 C :   -0.261610
   8 C :    0.054641
   9 C :    0.054549
  10 C :    0.033210
  11 C :    0.033243
  12 C :    0.053989
  13 C :    0.055148
  14 H :    0.086159
  15 H :    0.086155
  16 H :    0.048730
  17 H :    0.044937
  18 H :    0.052060
  19 H :    0.052752
  20 H :    0.058093
  21 H :    0.052869
  22 H :    0.052122
  23 H :    0.048832
  24 H :    0.044991
  25 H :    0.048732
  26 H :    0.052058
  27 H :    0.044903
  28 H :    0.052853
  29 H :    0.058100
  30 H :    0.052765
  31 H :    0.048619
  32 H :    0.052018
  33 H :    0.044866
Sum of atomic charges:    1.0000000

--------------------------------
MULLIKEN REDUCED ORBITAL CHARGES
--------------------------------
  0 N s       :     3.383142  s :     3.383142
      pz      :     1.314659  p :     3.737747
      px      :     1.156637
      py      :     1.266451
      dz2     :     0.006684  d :     0.033272
      dxz     :     0.007556
      dyz     :     0.003350
      dx2y2   :     0.007305
      dxy     :     0.008377
  1 C s       :     3.102710  s :     3.102710
      pz      :     0.929542  p :     2.626266
      px      :     0.772310
      py      :     0.924414
      dz2     :     0.008071  d :     0.066977
      dxz     :     0.018710
      dyz     :     0.006944
      dx2y2   :     0.013659
      dxy     :     0.019594
  2 N s       :     3.383130  s :     3.383130
      pz      :     1.314781  p :     3.737749
      px      :     1.156622
      py      :     1.266346
      dz2     :     0.006686  d :     0.033272
      dxz     :     0.007550
      dyz     :     0.003351
      dx2y2   :     0.007302
      dxy     :     0.008382
  3 H s       :     0.846417  s :     0.846417
      pz      :     0.010843  p :     0.025341
      px      :     0.001408
      py      :     0.013091
  4 C s       :     3.142922  s :     3.142922
      pz      :     0.937033  p :     2.742610
      px      :     0.905169
      py      :     0.900408
      dz2     :     0.007960  d :     0.048577
      dxz     :     0.009882
      dyz     :     0.009144
      dx2y2   :     0.010834
      dxy     :     0.010758
  5 C s       :     3.142931  s :     3.142931
      pz      :     0.937140  p :     2.742583
      px      :     0.905144
      py      :     0.900299
      dz2     :     0.007956  d :     0.048578
      dxz     :     0.009883
      dyz     :     0.009144
      dx2y2   :     0.010837
      dxy     :     0.010758
  6 C s       :     3.235157  s :     3.235157
      pz      :     1.072260  p :     2.961959
      px      :     0.819891
      py      :     1.069808
      dz2     :     0.014601  d :     0.064444
      dxz     :     0.011144
      dyz     :     0.010547
      dx2y2   :     0.016320
      dxy     :     0.011832
  7 C s       :     3.235141  s :     3.235141
      pz      :     1.072114  p :     2.962025
      px      :     0.819920
      py      :     1.069992
      dz2     :     0.014613  d :     0.064444
      dxz     :     0.011117
      dyz     :     0.010555
      dx2y2   :     0.016297
      dxy     :     0.011861
  8 C s       :     2.980129  s :     2.980129
      pz      :     1.011165  p :     2.939190
      px      :     1.023855
      py      :     0.904171
      dz2     :     0.007309  d :     0.026040
      dxz     :     0.002825
      dyz     :     0.004675
      dx2y2   :     0.006540
      dxy     :     0.004691
  9 C s       :     2.980247  s :     2.980247
      pz      :     0.897076  p :     2.939149
      px      :     1.023769
      py      :     1.018305
      dz2     :     0.007419  d :     0.026055
      dxz     :     0.004008
      dyz     :     0.005086
      dx2y2   :     0.006026
      dxy     :     0.003516
 10 C s       :     2.980512  s :     2.980512
      pz      :     0.992980  p :     2.960284
      px      :     0.982331
      py      :     0.984974
      dz2     :     0.008413  d :     0.025993
      dxz     :     0.003425
      dyz     :     0.003087
      dx2y2   :     0.006828
      dxy     :     0.004241
 11 C s       :     2.980513  s :     2.980513
      pz      :     0.993570  p :     2.960252
      px      :     0.982308
      py      :     0.984373
      dz2     :     0.008422  d :     0.025992
      dxz     :     0.003390
      dyz     :     0.003103
      dx2y2   :     0.006800
      dxy     :     0.004277
 12 C s       :     2.980478  s :     2.980478
      pz      :     0.896913  p :     2.939483
      px      :     1.024060
      py      :     1.018510
      dz2     :     0.007426  d :     0.026050
      dxz     :     0.003965
      dyz     :     0.005122
      dx2y2   :     0.005984
      dxy     :     0.003554
 13 C s       :     2.979957  s :     2.979957
      pz      :     1.010762  p :     2.938854
      px      :     1.023554
      py      :     0.904537
      dz2     :     0.007366  d :     0.026041
      dxz     :     0.002784
      dyz     :     0.004647
      dx2y2   :     0.006503
      dxy     :     0.004742
 14 H s       :     0.888351  s :     0.888351
      pz      :     0.007931  p :     0.025491
      px      :     0.008563
      py      :     0.008997
 15 H s       :     0.888355  s :     0.888355
      pz      :     0.007936  p :     0.025491
      px      :     0.008562
      py      :     0.008993
 16 H s       :     0.927040  s :     0.927040
      pz      :     0.015126  p :     0.024230
      px      :     0.005291
      py      :     0.003813
 17 H s       :     0.930485  s :     0.930485
      pz      :     0.007730  p :     0.024578
      px      :     0.008703
      py      :     0.008145
 18 H s       :     0.923216  s :     0.923216
      pz      :     0.005289  p :     0.024724
      px      :     0.014692
      py      :     0.004744
 19 H s       :     0.922777  s :     0.922777
      pz      :     0.015422  p :     0.024471
      px      :     0.004524
      py      :     0.004526
 20 H s       :     0.917194  s :     0.917194
      pz      :     0.005269  p :     0.024714
      px      :     0.014120
      py      :     0.005324
 21 H s       :     0.922660  s :     0.922660
      pz      :     0.005175  p :     0.024471
      px      :     0.004523
      py      :     0.014773
 22 H s       :     0.923157  s :     0.923157
      pz      :     0.004495  p :     0.024721
      px      :     0.014691
      py      :     0.005535
 23 H s       :     0.926938  s :     0.926938
      pz      :     0.004431  p :     0.024230
      px      :     0.005298
      py      :     0.014500
 24 H s       :     0.930425  s :     0.930425
      pz      :     0.006907  p :     0.024584
      px      :     0.008706
      py      :     0.008970
 25 H s       :     0.927039  s :     0.927039
      pz      :     0.004391  p :     0.024229
      px      :     0.005284
      py      :     0.014554
 26 H s       :     0.923221  s :     0.923221
      pz      :     0.004501  p :     0.024721
      px      :     0.014682
      py      :     0.005538
 27 H s       :     0.930520  s :     0.930520
      pz      :     0.006968  p :     0.024577
      px      :     0.008722
      py      :     0.008887
 28 H s       :     0.922678  s :     0.922678
      pz      :     0.005210  p :     0.024469
      px      :     0.004527
      py      :     0.014733
 29 H s       :     0.917186  s :     0.917186
      pz      :     0.005285  p :     0.024714
      px      :     0.014120
      py      :     0.005308
 30 H s       :     0.922762  s :     0.922762
      pz      :     0.015445  p :     0.024474
      px      :     0.004520
      py      :     0.004508
 31 H s       :     0.927151  s :     0.927151
      pz      :     0.015161  p :     0.024230
      px      :     0.005272
      py      :     0.003797
 32 H s       :     0.923259  s :     0.923259
      pz      :     0.005290  p :     0.024723
      px      :     0.014677
      py      :     0.004756
 33 H s       :     0.930560  s :     0.930560
      pz      :     0.007641  p :     0.024574
      px      :     0.008729
      py      :     0.008204


                     *******************************
                     * LOEWDIN POPULATION ANALYSIS *
                     *******************************

----------------------
LOEWDIN ATOMIC CHARGES
----------------------
   0 N :    0.115621
   1 C :    0.121489
   2 N :    0.115608
   3 H :    0.056384
   4 C :    0.015818
   5 C :    0.015829
   6 C :    0.013150
   7 C :    0.013133
   8 C :   -0.039799
   9 C :   -0.039746
  10 C :   -0.041428
  11 C :   -0.041426
  12 C :   -0.039792
  13 C :   -0.039760
  14 H :    0.053581
  15 H :    0.053582
  16 H :    0.035142
  17 H :    0.032282
  18 H :    0.041197
  19 H :    0.035531
  20 H :    0.045590
  21 H :    0.035553
  22 H :    0.041196
  23 H :    0.035148
  24 H :    0.032323
  25 H :    0.035120
  26 H :    0.041157
  27 H :    0.032299
  28 H :    0.035580
  29 H :    0.045597
  30 H :    0.035502
  31 H :    0.035112
  32 H :    0.041166
  33 H :    0.032261

-------------------------------
LOEWDIN REDUCED ORBITAL CHARGES
-------------------------------
  0 N s       :     3.045969  s :     3.045969
      pz      :     1.297417  p :     3.761192
      px      :     1.192471
      py      :     1.271304
      dz2     :     0.013552  d :     0.077218
      dxz     :     0.017180
      dyz     :     0.008277
      dx2y2   :     0.018105
      dxy     :     0.020103
  1 C s       :     2.826875  s :     2.826875
      pz      :     0.991254  p :     2.894307
      px      :     0.901622
      py      :     1.001432
[...]
     76       0.015583  -0.107289  -0.100208   0.001672  -0.000151   0.000056
     77      -0.003999   0.026184   0.024460  -0.000443   0.000091   0.000004
     78      -0.010149   0.186477   0.175700   0.000932  -0.000881   0.000162
     79       0.002539  -0.048292  -0.045486  -0.000163   0.000120  -0.000035
     80       0.002380  -0.045591  -0.043030  -0.000006   0.000428   0.000087
     81       0.004227   0.034908   0.033074   0.002832  -0.000226   0.000241
     82       0.003883   0.034392   0.032591   0.002779  -0.000262   0.000233
     83       0.003883   0.032156   0.030480   0.002758  -0.000373   0.000206
     84       0.012711   0.008208  -0.008773   0.000060   0.002096  -0.002018
     85       0.261053   0.172801  -0.185011   0.000059   0.007628  -0.006534
     86      -0.069239  -0.046167   0.049455   0.000101  -0.001388   0.001137
     87       0.461568   0.404547  -0.433522   0.000616   0.001566  -0.001720
     88       0.152916   0.133750  -0.143284  -0.000079   0.001182  -0.001117
     89       0.097150   0.083827  -0.089789  -0.000112   0.000982  -0.000924
     90       0.021120   0.026690  -0.028577  -0.000126   0.000402  -0.000470
     91      -0.019347  -0.021224   0.022742   0.000135  -0.000102   0.000143
     92       0.143037   0.173905  -0.186220  -0.000226   0.000843  -0.001012
     93      -0.066206   0.034556  -0.037120   0.001515   0.000068   0.000011
     94       0.049379  -0.026006   0.027937  -0.001018   0.000032  -0.000045
     95      -0.342323   0.178626  -0.191837   0.005058   0.000152  -0.000051
     96      -0.598534   0.320926  -0.344614  -0.003612  -0.001050  -0.000288
     97      -0.174245   0.094351  -0.101381  -0.000736  -0.000561   0.000097
     98      -0.107825   0.057705  -0.061928  -0.000680  -0.000078  -0.000096
     99      -0.113075   0.062528  -0.066560  -0.015214  -0.000038  -0.001014
    100       0.115978  -0.063006   0.067166   0.013086   0.000173   0.000875
    101       0.114027  -0.061702   0.065757   0.013481   0.000068   0.000935


-----------
IR SPECTRUM
-----------

 Mode   freq       eps      Int      T**2         TX        TY        TZ
       cm**-1   L/(mol*cm) km/mol    a.u.
----------------------------------------------------------------------------
  6:     33.82   0.000000    0.00  0.000000  (-0.000347  0.000026 -0.000028)
  7:     43.74   0.000004    0.02  0.000025  (-0.000017 -0.004953  0.000818)
  8:     93.41   0.000014    0.07  0.000048  (-0.000015  0.002248 -0.006581)
  9:    146.02   0.000013    0.07  0.000028  ( 0.000005 -0.004505 -0.002751)
 10:    167.56   0.000000    0.00  0.000000  ( 0.000690  0.000008 -0.000001)
 11:    241.90   0.000001    0.01  0.000002  (-0.001338 -0.000005 -0.000006)
 12:    245.36   0.000001    0.00  0.000001  ( 0.000026 -0.000918 -0.000428)
 13:    276.13   0.000038    0.19  0.000043  ( 0.000037 -0.004715 -0.004570)
 14:    285.83   0.000001    0.00  0.000001  (-0.000913  0.000015  0.000024)
 15:    288.06   0.000036    0.18  0.000039  ( 0.006219  0.000032  0.000038)
 16:    303.70   0.000007    0.03  0.000007  ( 0.000005 -0.002340  0.001157)
 17:    325.24   0.000004    0.02  0.000004  ( 0.002037 -0.000039  0.000009)
 18:    326.17   0.000008    0.04  0.000008  ( 0.000041  0.002564 -0.001215)
 19:    335.42   0.000019    0.09  0.000017  (-0.000005 -0.002007 -0.003644)
 20:    353.08   0.000069    0.35  0.000061  ( 0.000009 -0.005430  0.005636)
 21:    362.00   0.000002    0.01  0.000002  ( 0.001465 -0.000021 -0.000009)
 22:    370.29   0.000001    0.00  0.000001  ( 0.000868 -0.000007  0.000004)
 23:    420.68   0.000006    0.03  0.000005  ( 0.002130  0.000008 -0.000024)
 24:    440.64   0.000008    0.04  0.000006  (-0.000018  0.000899 -0.002192)
 25:    471.41   0.000018    0.09  0.000012  ( 0.000007 -0.003397 -0.000463)
 26:    478.98   0.000037    0.19  0.000024  (-0.004886  0.000006  0.000010)
 27:    522.61   0.000016    0.08  0.000009  (-0.003068 -0.000004  0.000000)
 28:    578.25   0.000150    0.76  0.000081  ( 0.000002 -0.007422 -0.005106)
 29:    636.14   0.001861    9.41  0.000913  ( 0.030218 -0.000017  0.000042)
 30:    683.23   0.000030    0.15  0.000014  (-0.003711  0.000076 -0.000129)
 31:    692.12   0.013559   68.52  0.006113  ( 0.000013  0.042269 -0.065777)
 32:    761.92   0.010631   53.72  0.004354  ( 0.000050  0.036008 -0.055296)
 33:    847.73   0.000016    0.08  0.000006  (-0.000044 -0.000274 -0.002384)
 34:    851.55   0.000268    1.36  0.000098  (-0.009913  0.000004  0.000006)
 35:    908.57   0.004911   24.82  0.001687  (-0.000070 -0.020782  0.035426)
 36:    915.28   0.000011    0.05  0.000004  ( 0.001896 -0.000086  0.000134)
 37:    949.20   0.000017    0.09  0.000006  ( 0.002261  0.000497 -0.000599)
 38:    949.63   0.001229    6.21  0.000404  (-0.000102  0.013103 -0.015233)
 39:    957.22   0.000603    3.05  0.000197  ( 0.013994 -0.000773 -0.000514)
 40:    957.79   0.001076    5.44  0.000351  (-0.000698 -0.015503 -0.010473)
 41:    971.59   0.000009    0.05  0.000003  (-0.001625  0.000353 -0.000369)
 42:    972.04   0.000106    0.53  0.000034  ( 0.000158  0.004174 -0.004060)
 43:   1024.13   0.001456    7.36  0.000444  ( 0.021062 -0.000001  0.000010)
 44:   1039.04   0.000019    0.09  0.000006  (-0.000007 -0.002312 -0.000472)
 45:   1052.61   0.000004    0.02  0.000001  (-0.000330 -0.001053 -0.000200)
 46:   1053.14   0.000062    0.31  0.000018  (-0.004292  0.000057  0.000033)
 47:   1056.45   0.000004    0.02  0.000001  ( 0.001032 -0.000098  0.000152)
 48:   1057.24   0.000188    0.95  0.000056  (-0.000025 -0.004005  0.006285)
 49:   1136.27   0.005751   29.06  0.001580  (-0.000036  0.032923  0.022263)
 50:   1156.24   0.015470   78.18  0.004175  (-0.064616  0.000033 -0.000039)
 51:   1221.57   0.002715   13.72  0.000694  (-0.000097 -0.020334 -0.016735)
 52:   1234.45   0.073018  369.00  0.018459  ( 0.135862 -0.000018  0.000017)
 53:   1273.06   0.003987   20.15  0.000977  ( 0.031259 -0.000217 -0.000137)
 54:   1273.37   0.000608    3.07  0.000149  (-0.000623 -0.010622 -0.005973)
 55:   1279.18   0.000253    1.28  0.000062  ( 0.007846  0.000131 -0.000203)
 56:   1280.20   0.006823   34.48  0.001663  (-0.000108  0.023408 -0.033394)
 57:   1309.01   0.000342    1.73  0.000082  (-0.009030  0.000021 -0.000006)
 58:   1363.56   0.005850   29.56  0.001339  ( 0.000006  0.029763  0.021281)
 59:   1396.19   0.000216    1.09  0.000048  ( 0.003281  0.003694 -0.004894)
 60:   1396.37   0.010418   52.65  0.002328  (-0.000441  0.027615 -0.039566)
 61:   1398.59   0.008735   44.14  0.001949  ( 0.000170 -0.036691 -0.024550)
 62:   1402.13   0.003036   15.34  0.000676  ( 0.025992  0.000232  0.000100)
 63:   1413.49   0.000599    3.03  0.000132  (-0.011303 -0.002074 -0.000312)
 64:   1413.56   0.002048   10.35  0.000452  (-0.021229  0.001165  0.000121)
 65:   1443.86   0.000036    0.18  0.000008  (-0.000089  0.002565 -0.001106)
 66:   1443.91   0.000100    0.50  0.000022  ( 0.000029  0.004266 -0.001819)
 67:   1445.91   0.000080    0.40  0.000017  (-0.004143  0.000035  0.000028)
 68:   1446.46   0.000081    0.41  0.000017  (-0.000039 -0.004143  0.000456)
 69:   1448.98   0.000487    2.46  0.000105  ( 0.010237  0.000000 -0.000037)
 70:   1451.44   0.000739    3.74  0.000159  (-0.000008 -0.009318 -0.008490)
 71:   1453.75   0.000023    0.12  0.000005  (-0.002202  0.000217  0.000156)
 72:   1460.94   0.006168   31.17  0.001318  (-0.000009 -0.031521 -0.017999)
 73:   1470.81   0.000901    4.55  0.000191  ( 0.000357 -0.006705  0.012084)
 74:   1470.85   0.001969    9.95  0.000418  (-0.000423 -0.009977  0.017832)
 75:   1472.55   0.001018    5.15  0.000216  (-0.014687  0.000124 -0.000303)
 76:   1479.78   0.002016   10.19  0.000425  (-0.020618 -0.000187 -0.000300)
 77:   1480.72   0.000978    4.94  0.000206  (-0.000530  0.005169  0.013381)
 78:   1491.38   0.000007    0.04  0.000002  ( 0.000018 -0.001151  0.000458)
 79:   1636.03   0.028896  146.03  0.005512  ( 0.074241 -0.000048 -0.000004)
 80:   1640.50   0.001987   10.04  0.000378  (-0.000156 -0.016726 -0.009905)
 81:   3068.52   0.004984   25.19  0.000507  (-0.000067  0.005008 -0.021949)
 82:   3068.57   0.000906    4.58  0.000092  (-0.000196 -0.002117  0.009360)
 83:   3073.22   0.005658   28.60  0.000575  (-0.001210  0.023460  0.004767)
 84:   3073.26   0.000577    2.92  0.000059  ( 0.005600  0.005109  0.001062)
 85:   3076.55   0.000573    2.90  0.000058  ( 0.003144  0.001405 -0.006801)
 86:   3076.56   0.000444    2.25  0.000045  (-0.005272  0.000878 -0.004061)
 87:   3172.89   0.003549   17.93  0.000349  (-0.001966 -0.018440 -0.002270)
 88:   3172.98   0.001344    6.79  0.000132  (-0.011008  0.003295  0.000384)
 89:   3178.95   0.005012   25.33  0.000492  ( 0.000415  0.012903  0.018038)
 90:   3179.15   0.001237    6.25  0.000121  ( 0.010992 -0.000625 -0.000500)
 91:   3179.77   0.003693   18.66  0.000362  (-0.000046 -0.010403  0.015943)
 92:   3179.79   0.001383    6.99  0.000136  (-0.000146 -0.006514  0.009657)
 93:   3183.26   0.001600    8.08  0.000157  ( 0.010352 -0.004574  0.005362)
 94:   3183.27   0.001954    9.87  0.000192  (-0.005790 -0.008115  0.009599)
 95:   3185.31   0.000600    3.03  0.000059  (-0.005576 -0.005052  0.001469)
 96:   3185.31   0.001075    5.43  0.000105  ( 0.002977 -0.009411  0.002814)
 97:   3189.45   0.008163   41.25  0.000799  (-0.028256  0.000351  0.000350)
 98:   3189.52   0.002131   10.77  0.000208  ( 0.000993  0.010328  0.010041)
 99:   3310.65   0.009640   48.71  0.000909  ( 0.000005  0.025227  0.016500)
100:   3324.29   0.006631   33.51  0.000622  (-0.024949 -0.000000 -0.000015)
101:   3340.94   0.003416   17.26  0.000319  ( 0.000026 -0.014777 -0.010038)

* The epsilon (eps) is given for a Dirac delta lineshape.
** The dipole moment derivative (T) already includes vibrational overlap.

The first frequency considered to be a vibration is 6
The total number of vibrations considered is 96


--------------------------
THERMOCHEMISTRY AT 298.15K
--------------------------

Temperature         ... 298.15 K
Pressure            ... 1.00 atm
Total Mass          ... 181.30 AMU

Throughout the following assumptions are being made:
  (1) The electronic state is orbitally nondegenerate
  (2) There are no thermally accessible electronically excited states
  (3) Hindered rotations indicated by low frequency modes are not
      treated as such but are treated as vibrations and this may
      cause some error
  (4) All equations used are the standard statistical mechanics
      equations for an ideal gas
  (5) All vibrations are strictly harmonic

freq.      33.82  E(vib)   ...       0.55 
freq.      43.74  E(vib)   ...       0.53 
freq.      93.41  E(vib)   ...       0.47 
freq.     146.02  E(vib)   ...       0.41 
freq.     167.56  E(vib)   ...       0.38 
freq.     241.90  E(vib)   ...       0.31 
freq.     245.36  E(vib)   ...       0.31 
freq.     276.13  E(vib)   ...       0.28 
freq.     285.83  E(vib)   ...       0.27 
freq.     288.06  E(vib)   ...       0.27 
freq.     303.70  E(vib)   ...       0.26 
freq.     325.24  E(vib)   ...       0.24 
freq.     326.17  E(vib)   ...       0.24 
freq.     335.42  E(vib)   ...       0.24 
freq.     353.08  E(vib)   ...       0.22 
freq.     362.00  E(vib)   ...       0.22 
freq.     370.29  E(vib)   ...       0.21 
freq.     420.68  E(vib)   ...       0.18 
freq.     440.64  E(vib)   ...       0.17 
freq.     471.41  E(vib)   ...       0.15 
freq.     478.98  E(vib)   ...       0.15 
freq.     522.61  E(vib)   ...       0.13 
freq.     578.25  E(vib)   ...       0.11 
freq.     636.14  E(vib)   ...       0.09 
freq.     683.23  E(vib)   ...       0.08 
freq.     692.12  E(vib)   ...       0.07 
freq.     761.92  E(vib)   ...       0.06 
freq.     847.73  E(vib)   ...       0.04 
freq.     851.55  E(vib)   ...       0.04 
freq.     908.57  E(vib)   ...       0.03 
freq.     915.28  E(vib)   ...       0.03 
freq.     949.20  E(vib)   ...       0.03 
freq.     949.63  E(vib)   ...       0.03 
freq.     957.22  E(vib)   ...       0.03 
freq.     957.79  E(vib)   ...       0.03 
freq.     971.59  E(vib)   ...       0.03 
freq.     972.04  E(vib)   ...       0.03 
freq.    1024.13  E(vib)   ...       0.02 
freq.    1039.04  E(vib)   ...       0.02 
freq.    1052.61  E(vib)   ...       0.02 
freq.    1053.14  E(vib)   ...       0.02 
freq.    1056.45  E(vib)   ...       0.02 
freq.    1057.24  E(vib)   ...       0.02 
freq.    1136.27  E(vib)   ...       0.01 
freq.    1156.24  E(vib)   ...       0.01 
freq.    1221.57  E(vib)   ...       0.01 
freq.    1234.45  E(vib)   ...       0.01 
freq.    1273.06  E(vib)   ...       0.01 
freq.    1273.37  E(vib)   ...       0.01 
freq.    1279.18  E(vib)   ...       0.01 
freq.    1280.20  E(vib)   ...       0.01 
freq.    1309.01  E(vib)   ...       0.01 
freq.    1363.56  E(vib)   ...       0.01 
freq.    1396.19  E(vib)   ...       0.00 
freq.    1396.37  E(vib)   ...       0.00 
freq.    1398.59  E(vib)   ...       0.00 
freq.    1402.13  E(vib)   ...       0.00 
freq.    1413.49  E(vib)   ...       0.00 
freq.    1413.56  E(vib)   ...       0.00 
freq.    1443.86  E(vib)   ...       0.00 
freq.    1443.91  E(vib)   ...       0.00 
freq.    1445.91  E(vib)   ...       0.00 
freq.    1446.46  E(vib)   ...       0.00 
freq.    1448.98  E(vib)   ...       0.00 
freq.    1451.44  E(vib)   ...       0.00 
freq.    1453.75  E(vib)   ...       0.00 
freq.    1460.94  E(vib)   ...       0.00 
freq.    1470.81  E(vib)   ...       0.00 
freq.    1470.85  E(vib)   ...       0.00 
freq.    1472.55  E(vib)   ...       0.00 
freq.    1479.78  E(vib)   ...       0.00 
freq.    1480.72  E(vib)   ...       0.00 
freq.    1491.38  E(vib)   ...       0.00 
freq.    1636.03  E(vib)   ...       0.00 
freq.    1640.50  E(vib)   ...       0.00 
freq.    3068.52  E(vib)   ...       0.00 
freq.    3068.57  E(vib)   ...       0.00 
freq.    3073.22  E(vib)   ...       0.00 
freq.    3073.26  E(vib)   ...       0.00 
freq.    3076.55  E(vib)   ...       0.00 
freq.    3076.56  E(vib)   ...       0.00 
freq.    3172.89  E(vib)   ...       0.00 
freq.    3172.98  E(vib)   ...       0.00 
freq.    3178.95  E(vib)   ...       0.00 
freq.    3179.15  E(vib)   ...       0.00 
freq.    3179.77  E(vib)   ...       0.00 
freq.    3179.79  E(vib)   ...       0.00 
freq.    3183.26  E(vib)   ...       0.00 
freq.    3183.27  E(vib)   ...       0.00 
freq.    3185.31  E(vib)   ...       0.00 
freq.    3185.31  E(vib)   ...       0.00 
freq.    3189.45  E(vib)   ...       0.00 
freq.    3189.52  E(vib)   ...       0.00 
freq.    3310.65  E(vib)   ...       0.00 
freq.    3324.29  E(vib)   ...       0.00 
freq.    3340.94  E(vib)   ...       0.00 

------------
INNER ENERGY
------------

The inner energy is: U= E(el) + E(ZPE) + E(vib) + E(rot) + E(trans)
    E(el)   - is the total energy from the electronic structure calculation
              = E(kin-el) + E(nuc-el) + E(el-el) + E(nuc-nuc)
    E(ZPE)  - the the zero temperature vibrational energy from the frequency calculation
    E(vib)  - the the finite temperature correction to E(ZPE) due to population
              of excited vibrational states
    E(rot)  - is the rotational thermal energy
    E(trans)- is the translational thermal energy

Summary of contributions to the inner energy U:
Electronic energy                ...   -540.69260766 Eh
Zero point energy                ...      0.31148077 Eh     195.46 kcal/mol
Thermal vibrational correction   ...      0.01150277 Eh       7.22 kcal/mol
Thermal rotational correction    ...      0.00141627 Eh       0.89 kcal/mol
Thermal translational correction ...      0.00141627 Eh       0.89 kcal/mol
-----------------------------------------------------------------------
Total thermal energy                   -540.36679159 Eh


Summary of corrections to the electronic energy:
(perhaps to be used in another calculation)
Total thermal correction                  0.01433531 Eh       9.00 kcal/mol
Non-thermal (ZPE) correction              0.31148077 Eh     195.46 kcal/mol
-----------------------------------------------------------------------
Total correction                          0.32581607 Eh     204.45 kcal/mol


--------
ENTHALPY
--------

The enthalpy is H = U + kB*T
                kB is Boltzmann's constant
Total free energy                 ...   -540.36679159 Eh 
Thermal Enthalpy correction       ...      0.00094421 Eh       0.59 kcal/mol
-----------------------------------------------------------------------
Total Enthalpy                    ...   -540.36584738 Eh


Note: Only C1 symmetry has been detected, increase convergence thresholds 
      if your molecule has a higher symmetry. Symmetry factor of 1.0 is   
      used for the rotational entropy correction. 
 

Note: Rotational entropy computed according to Herzberg 
Infrared and Raman Spectra, Chapter V,1, Van Nostrand Reinhold, 1945 
Point Group:  C1, Symmetry Number:   1  
Rotational constants in cm-1:     0.054871     0.014968     0.013941 

Vibrational entropy computed according to the QRRHO of S. Grimme
Chem.Eur.J. 2012 18 9955


-------
ENTROPY
-------

The entropy contributions are T*S = T*(S(el)+S(vib)+S(rot)+S(trans))
     S(el)   - electronic entropy
     S(vib)  - vibrational entropy
     S(rot)  - rotational entropy
     S(trans)- translational entropy
The entropies will be listed as multiplied by the temperature to get
units of energy

Electronic entropy                ...      0.00000000 Eh      0.00 kcal/mol
Vibrational entropy               ...      0.01930280 Eh     12.11 kcal/mol
Rotational entropy                ...      0.01488205 Eh      9.34 kcal/mol
Translational entropy             ...      0.01971392 Eh     12.37 kcal/mol
-----------------------------------------------------------------------
Final entropy term                ...      0.05389877 Eh     33.82 kcal/mol

In case the symmetry of your molecule has not been determined correctly
or in case you have a reason to use a different symmetry number we print 
out the resulting rotational entropy values for sn=1,12 :
 --------------------------------------------------------
|  sn= 1 | S(rot)=       0.01488205 Eh      9.34 kcal/mol|
|  sn= 2 | S(rot)=       0.01422759 Eh      8.93 kcal/mol|
|  sn= 3 | S(rot)=       0.01384476 Eh      8.69 kcal/mol|
|  sn= 4 | S(rot)=       0.01357314 Eh      8.52 kcal/mol|
|  sn= 5 | S(rot)=       0.01336245 Eh      8.39 kcal/mol|
|  sn= 6 | S(rot)=       0.01319030 Eh      8.28 kcal/mol|
|  sn= 7 | S(rot)=       0.01304476 Eh      8.19 kcal/mol|
|  sn= 8 | S(rot)=       0.01291868 Eh      8.11 kcal/mol|
|  sn= 9 | S(rot)=       0.01280747 Eh      8.04 kcal/mol|
|  sn=10 | S(rot)=       0.01270799 Eh      7.97 kcal/mol|
|  sn=11 | S(rot)=       0.01261800 Eh      7.92 kcal/mol|
|  sn=12 | S(rot)=       0.01253585 Eh      7.87 kcal/mol|
 --------------------------------------------------------


-------------------
GIBBS FREE ENERGY
-------------------

The Gibbs free energy is G = H - T*S

Total enthalpy                    ...   -540.36584738 Eh 
Total entropy correction          ...     -0.05389877 Eh    -33.82 kcal/mol
-----------------------------------------------------------------------
Final Gibbs free energy         ...   -540.41974615 Eh

For completeness - the Gibbs free energy minus the electronic energy
G-E(el)                           ...      0.27286151 Eh    171.22 kcal/mol


Timings for individual modules:

Sum of individual times         ...     8979.810 sec (= 149.663 min)
GTO integral calculation        ...        4.716 sec (=   0.079 min)   0.1 %
SCF iterations                  ...     4804.068 sec (=  80.068 min)  53.5 %
SCF Gradient evaluation         ...     1328.493 sec (=  22.142 min)  14.8 %
Geometry relaxation             ...        0.917 sec (=   0.015 min)   0.0 %
Analytical frequency calculation...     2841.615 sec (=  47.360 min)  31.6 %
                             ****ORCA TERMINATED NORMALLY****
TOTAL RUN TIME: 0 days 2 hours 29 minutes 41 seconds 573 msec
