
                                 *****************
                                 * O   R   C   A *
                                 *****************

                                            #,                                       
                                            ###                                      
                                            ####                                     
                                            #####                                    
                                            ######                                   
                                           ########,                                 
                                     ,,################,,,,,                         
                               ,,#################################,,                 
                          ,,##########################################,,             
                       ,#########################################, ''#####,          
                    ,#############################################,,   '####,        
                  ,##################################################,,,,####,       
                ,###########''''           ''''###############################       
              ,#####''   ,,,,##########,,,,          '''####'''          '####       
            ,##' ,,,,###########################,,,                        '##       
           ' ,,###''''                  '''############,,,                           
         ,,##''                                '''############,,,,        ,,,,,,###''
      ,#''                                            '''#######################'''  
     '                                                          ''''####''''         
             ,#######,   #######,   ,#######,      ##                                
            ,#'     '#,  ##    ##  ,#'     '#,    #''#        ######   ,####,        
            ##       ##  ##   ,#'  ##            #'  '#       #        #'  '#        
            ##       ##  #######   ##           ,######,      #####,   #    #        
            '#,     ,#'  ##    ##  '#,     ,#' ,#      #,         ##   #,  ,#        
             '#######'   ##     ##  '#######'  #'      '#     #####' # '####'        



                  #######################################################
                  #                        -***-                        #
                  #          Department of theory and spectroscopy      #
                  #    Directorship and core code : Frank Neese         #
                  #        Max Planck Institute fuer Kohlenforschung    #
                  #                Kaiser Wilhelm Platz 1               #
                  #                 D-45470 Muelheim/Ruhr               #
                  #                      Germany                        #
                  #                                                     #
                  #                  All rights reserved                #
                  #                        -***-                        #
                  #######################################################


                         Program Version 5.0.4 -  RELEASE  -


 With contributions from (in alphabetic order):
   Daniel Aravena         : Magnetic Suceptibility
   Michael Atanasov       : Ab Initio Ligand Field Theory (pilot matlab implementation)
   Alexander A. Auer      : GIAO ZORA, VPT2 properties, NMR spectrum
   Ute Becker             : Parallelization
   Giovanni Bistoni       : ED, misc. LED, open-shell LED, HFLD
   Martin Brehm           : Molecular dynamics
   Dmytro Bykov           : SCF Hessian
   Vijay G. Chilkuri      : MRCI spin determinant printing, contributions to CSF-ICE
   Dipayan Datta          : RHF DLPNO-CCSD density
   Achintya Kumar Dutta   : EOM-CC, STEOM-CC
   Dmitry Ganyushin       : Spin-Orbit,Spin-Spin,Magnetic field MRCI
   Miquel Garcia          : C-PCM and meta-GGA Hessian, CC/C-PCM, Gaussian charge scheme
   Yang Guo               : DLPNO-NEVPT2, F12-NEVPT2, CIM, IAO-localization
   Andreas Hansen         : Spin unrestricted coupled pair/coupled cluster methods
   Benjamin Helmich-Paris : MC-RPA, TRAH-SCF, COSX integrals
   Lee Huntington         : MR-EOM, pCC
   Robert Izsak           : Overlap fitted RIJCOSX, COSX-SCS-MP3, EOM
   Marcus Kettner         : VPT2
   Christian Kollmar      : KDIIS, OOCD, Brueckner-CCSD(T), CCSD density, CASPT2, CASPT2-K
   Simone Kossmann        : Meta GGA functionals, TD-DFT gradient, OOMP2, MP2 Hessian
   Martin Krupicka        : Initial AUTO-CI
   Lucas Lang             : DCDCAS
   Marvin Lechner         : AUTO-CI (C++ implementation), FIC-MRCC
   Dagmar Lenk            : GEPOL surface, SMD
   Dimitrios Liakos       : Extrapolation schemes; Compound Job, initial MDCI parallelization
   Dimitrios Manganas     : Further ROCIS development; embedding schemes
   Dimitrios Pantazis     : SARC Basis sets
   Anastasios Papadopoulos: AUTO-CI, single reference methods and gradients
   Taras Petrenko         : DFT Hessian,TD-DFT gradient, ASA, ECA, R-Raman, ABS, FL, XAS/XES, NRVS
   Peter Pinski           : DLPNO-MP2, DLPNO-MP2 Gradient
   Christoph Reimann      : Effective Core Potentials
   Marius Retegan         : Local ZFS, SOC
   Christoph Riplinger    : Optimizer, TS searches, QM/MM, DLPNO-CCSD(T), (RO)-DLPNO pert. Triples
   Tobias Risthaus        : Range-separated hybrids, TD-DFT gradient, RPA, STAB
   Michael Roemelt        : Original ROCIS implementation
   Masaaki Saitow         : Open-shell DLPNO-CCSD energy and density
   Barbara Sandhoefer     : DKH picture change effects
   Avijit Sen             : IP-ROCIS
   Kantharuban Sivalingam : CASSCF convergence, NEVPT2, FIC-MRCI
   Bernardo de Souza      : ESD, SOC TD-DFT
   Georgi Stoychev        : AutoAux, RI-MP2 NMR, DLPNO-MP2 response
   Willem Van den Heuvel  : Paramagnetic NMR
   Boris Wezisla          : Elementary symmetry handling
   Frank Wennmohs         : Technical directorship


 We gratefully acknowledge several colleagues who have allowed us to
 interface, adapt or use parts of their codes:
   Stefan Grimme, W. Hujo, H. Kruse, P. Pracht,  : VdW corrections, initial TS optimization,
                  C. Bannwarth, S. Ehlert          DFT functionals, gCP, sTDA/sTD-DF
   Ed Valeev, F. Pavosevic, A. Kumar             : LibInt (2-el integral package), F12 methods
   Garnet Chan, S. Sharma, J. Yang, R. Olivares  : DMRG
   Ulf Ekstrom                                   : XCFun DFT Library
   Mihaly Kallay                                 : mrcc  (arbitrary order and MRCC methods)
   Jiri Pittner, Ondrej Demel                    : Mk-CCSD
   Frank Weinhold                                : gennbo (NPA and NBO analysis)
   Christopher J. Cramer and Donald G. Truhlar   : smd solvation model
   Lars Goerigk                                  : TD-DFT with DH, B97 family of functionals
   V. Asgeirsson, H. Jonsson                     : NEB implementation
   FAccTs GmbH                                   : IRC, NEB, NEB-TS, DLPNO-Multilevel, CI-OPT
                                                   MM, QMMM, 2- and 3-layer-ONIOM, Crystal-QMMM,
                                                   LR-CPCM, SF, NACMEs, symmetry and pop. for TD-DFT,
                                                   nearIR, NL-DFT gradient (VV10), updates on ESD,
                                                   ML-optimized integration grids
   S Lehtola, MJT Oliveira, MAL Marques          : LibXC Library
   Liviu Ungur et al                             : ANISO software


 Your calculation uses the libint2 library for the computation of 2-el integrals
 For citations please refer to: http://libint.valeyev.net

 Your ORCA version has been built with support for libXC version: 5.1.0
 For citations please refer to: https://tddft.org/programs/libxc/

 This ORCA versions uses:
   CBLAS   interface :  Fast vector & matrix operations
   LAPACKE interface :  Fast linear algebra routines
   SCALAPACK package :  Parallel linear algebra routines
   Shared memory     :  Shared parallel matrices
   BLAS/LAPACK       :  OpenBLAS 0.3.15  USE64BITINT DYNAMIC_ARCH NO_AFFINITY SkylakeX SINGLE_THREADED
        Core in use  :  SkylakeX
   Copyright (c) 2011-2014, The OpenBLAS Project




***************************************
The coordinates will be read from file: 5_prot_aq_1.xyz
***************************************


Your calculation utilizes the atom-pairwise dispersion correction
based on tight binding partial charges (D4)
Cite in your paper:
E.Caldeweyher, C.Bannwarth, S.Grimme, J.Chem.Phys., (2017), 147, 034112.
E.Caldeweyher, S.Ehlert, A.Hansen, H.Neugebauer, S.Grimme, J.Chem.Phys., (2018), in progress.
   

XCFun DFT library Copyright 2009-2010 Ulf Ekstrom and contributors.
See http://admol.org/xcfun for more information.
This is free software; see the source code for copying conditions.
There is ABSOLUTELY NO WARRANTY; not even for MERCHANTABILITY or FITNESS FOR A PARTICULAR PURPOSE.
For details see the documentation.
Scientific users of this library should cite U. Ekstrom, L. Visscher, R. Bast, A. J. Thorvaldsen and K. Ruud;
J.Chem.Theor.Comp. 2010, DOI: 10.1021/ct100117s
XCFun Version 0.99 

================================================================================

----- Orbital basis set information -----
Your calculation utilizes the basis: def2-SVP
   F. Weigend and R. Ahlrichs, Phys. Chem. Chem. Phys. 7, 3297 (2005).

----- AuxJ basis set information -----
Your calculation utilizes the auxiliary basis: def2/J
   F. Weigend, Phys. Chem. Chem. Phys. 8, 1057 (2006).

================================================================================
                                        WARNINGS
                       Please study these warnings very carefully!
================================================================================


WARNING: Geometry Optimization
  ===> : Switching off AutoStart
         For restart on a previous wavefunction, please use MOREAD

INFO   : the flag for use of the SHARK integral package has been found!

================================================================================
                                       INPUT FILE
================================================================================
NAME = 5_prot_aq_1.inp
|  1> # ORCA 5.0.4 - /users/bwb16179/postgrad/2024_03/DFT_Crest_Conformers/Opt/prot/5_prot_aq_1.inp # write input file
|  2> # Basic Mode
|  3> #
|  4> ! Opt Freq wB97X Def2-SVP D4 SlowConv TightSCF Defgrid2 Def2/J RIJCOSX CPCM(Water)
|  5> 
|  6> 
|  7> 
|  8> %maxcore 4500
|  9> 
| 10> %geom
| 11> Maxiter 150
| 12> END
| 13> 
| 14> * xyzfile 1 1 5_prot_aq_1.xyz
| 15> 
| 16>                          ****END OF INPUT****
================================================================================

                       *****************************
                       * Geometry Optimization Run *
                       *****************************

Geometry optimization settings:
Update method            Update   .... BFGS
Choice of coordinates    CoordSys .... Z-matrix Internals
Initial Hessian          InHess   .... Almoef's Model

Convergence Tolerances:
Energy Change            TolE     ....  5.0000e-06 Eh
Max. Gradient            TolMAXG  ....  3.0000e-04 Eh/bohr
RMS Gradient             TolRMSG  ....  1.0000e-04 Eh/bohr
Max. Displacement        TolMAXD  ....  4.0000e-03 bohr
RMS Displacement         TolRMSD  ....  2.0000e-03 bohr
Strict Convergence                ....  False
------------------------------------------------------------------------------
                        ORCA OPTIMIZATION COORDINATE SETUP
------------------------------------------------------------------------------

The optimization will be done in new redundant internal coordinates
Making redundant internal coordinates   ...  (new redundants) done
Evaluating the initial hessian          ...  (Almloef) done
Evaluating the coordinates              ...  done
Calculating the B-matrix                .... done
Calculating the G-matrix                .... done
Diagonalizing the G-matrix              .... done
Small eigenvalue found = 9.779e-03
Small eigenvalue found = 2.498e-02
The first mode is                       ....   87
The number of degrees of freedom        ....   96

    -----------------------------------------------------------------
                    Redundant Internal Coordinates


    -----------------------------------------------------------------
         Definition                    Initial Value    Approx d2E/dq
    -----------------------------------------------------------------
      1. B(C   1,N   0)                  1.3299         0.697833   
      2. B(N   2,C   1)                  1.3299         0.697863   
      3. B(H   3,C   1)                  1.0692         0.388631   
      4. B(C   4,N   2)                  1.3627         0.618606   
      5. B(C   5,C   4)                  1.3589         0.700452   
      6. B(C   5,N   0)                  1.3627         0.618607   
      7. B(C   6,N   0)                  1.4737         0.411478   
      8. B(C   7,N   2)                  1.4737         0.411473   
      9. B(C   8,C   6)                  1.5256         0.379653   
     10. B(C   9,C   6)                  1.5297         0.373930   
     11. B(C  10,C   6)                  1.5298         0.373904   
     12. B(C  11,C   7)                  1.5298         0.373911   
     13. B(C  12,C   7)                  1.5298         0.373914   
     14. B(C  13,C   7)                  1.5256         0.379644   
     15. B(H  14,C   4)                  1.0695         0.388311   
     16. B(H  15,C   5)                  1.0695         0.388311   
     17. B(H  16,C   8)                  1.0875         0.363486   
     18. B(H  17,C   8)                  1.0861         0.365277   
     19. B(H  18,C   8)                  1.0874         0.363500   
     20. B(H  19,C  10)                  1.0863         0.365054   
     21. B(H  20,C  10)                  1.0877         0.363157   
     22. B(H  21,C  10)                  1.0857         0.365785   
     23. B(H  22,C  12)                  1.0863         0.365061   
     24. B(H  23,C  12)                  1.0877         0.363174   
     25. B(H  24,C  12)                  1.0857         0.365805   
     26. B(H  25,C   9)                  1.0862         0.365104   
     27. B(H  26,C   9)                  1.0857         0.365779   
     28. B(H  27,C   9)                  1.0877         0.363161   
     29. B(H  28,C  11)                  1.0857         0.365806   
     30. B(H  29,C  11)                  1.0877         0.363182   
     31. B(H  30,C  11)                  1.0863         0.365081   
     32. B(H  31,C  13)                  1.0861         0.365286   
     33. B(H  32,C  13)                  1.0874         0.363492   
     34. B(H  33,C  13)                  1.0874         0.363493   
     35. A(C   1,N   0,C   5)          107.5013         0.437441   
     36. A(C   1,N   0,C   6)          127.8967         0.406725   
     37. A(C   5,N   0,C   6)          124.6019         0.398176   
     38. A(N   0,C   1,H   3)          125.0037         0.362518   
     39. A(N   0,C   1,N   2)          109.9884         0.447079   
     40. A(N   2,C   1,H   3)          125.0079         0.362520   
     41. A(C   1,N   2,C   4)          107.5019         0.437444   
     42. A(C   1,N   2,C   7)          127.8974         0.406728   
     43. A(C   4,N   2,C   7)          124.6007         0.398175   
     44. A(C   5,C   4,H  14)          129.1985         0.364969   
     45. A(N   2,C   4,H  14)          123.2975         0.355108   
     46. A(N   2,C   4,C   5)          107.5040         0.440630   
     47. A(N   0,C   5,H  15)          123.2972         0.355108   
     48. A(C   4,C   5,H  15)          129.1984         0.364969   
     49. A(N   0,C   5,C   4)          107.5044         0.440630   
     50. A(N   0,C   6,C  10)          107.8148         0.367166   
     51. A(N   0,C   6,C   9)          107.8442         0.367171   
     52. A(C   8,C   6,C   9)          110.0249         0.364415   
     53. A(N   0,C   6,C   8)          109.9386         0.368129   
     54. A(C   9,C   6,C  10)          111.1249         0.363465   
     55. A(C   8,C   6,C  10)          110.0379         0.364410   
     56. A(C  12,C   7,C  13)          110.0380         0.364411   
     57. A(C  11,C   7,C  13)          110.0317         0.364410   
     58. A(N   2,C   7,C  13)          109.9343         0.368127   
     59. A(C  11,C   7,C  12)          111.1278         0.363464   
     60. A(N   2,C   7,C  12)          107.8259         0.367167   
     61. A(N   2,C   7,C  11)          107.8272         0.367167   
     62. A(C   6,C   8,H  18)          111.4870         0.325683   
     63. A(H  16,C   8,H  17)          107.5808         0.291922   
     64. A(C   6,C   8,H  17)          108.8167         0.325944   
     65. A(C   6,C   8,H  16)          111.4766         0.325681   
     66. A(H  17,C   8,H  18)          107.5741         0.291924   
     67. A(H  16,C   8,H  18)          109.7438         0.291698   
     68. A(H  26,C   9,H  27)          108.1992         0.291944   
     69. A(H  25,C   9,H  27)          108.7104         0.291859   
     70. A(C   6,C   9,H  27)          110.7691         0.324821   
     71. A(H  25,C   9,H  26)          107.9405         0.292189   
     72. A(C   6,C   9,H  26)          109.4360         0.325205   
     73. A(C   6,C   9,H  25)          111.6804         0.325106   
     74. A(H  20,C  10,H  21)          108.2010         0.291944   
     75. A(H  19,C  10,H  21)          107.9545         0.292184   
     76. A(C   6,C  10,H  21)          109.4445         0.325202   
     77. A(H  19,C  10,H  20)          108.7045         0.291852   
     78. A(C   6,C  10,H  20)          110.7671         0.324816   
     79. A(C   6,C  10,H  19)          111.6648         0.325095   
     80. A(H  29,C  11,H  30)          108.7064         0.291859   
     81. A(H  28,C  11,H  30)          107.9464         0.292190   
     82. A(C   7,C  11,H  30)          111.6767         0.325100   
     83. A(H  28,C  11,H  29)          108.2010         0.291950   
     84. A(C   7,C  11,H  29)          110.7681         0.324821   
     85. A(C   7,C  11,H  28)          109.4374         0.325206   
     86. A(H  23,C  12,H  24)          108.2002         0.291949   
     87. A(H  22,C  12,H  24)          107.9498         0.292187   
     88. A(C   7,C  12,H  24)          109.4391         0.325206   
     89. A(H  22,C  12,H  23)          108.7064         0.291855   
     90. A(C   7,C  12,H  23)          110.7682         0.324820   
     91. A(C   7,C  12,H  22)          111.6725         0.325097   
     92. A(H  31,C  13,H  33)          107.5786         0.291924   
     93. A(C   7,C  13,H  33)          111.4809         0.325681   
     94. A(H  31,C  13,H  32)          107.5759         0.291924   
     95. A(C   7,C  13,H  32)          111.4852         0.325681   
     96. A(H  32,C  13,H  33)          109.7442         0.291698   
     97. A(C   7,C  13,H  31)          108.8140         0.325944   
     98. D(H   3,C   1,N   0,C   6)      0.0820         0.040273   
     99. D(N   2,C   1,N   0,C   6)   -179.9255         0.040273   
    100. D(N   2,C   1,N   0,C   5)     -0.0040         0.040273   
    101. D(H   3,C   1,N   0,C   5)   -179.9964         0.040273   
    102. D(C   7,N   2,C   1,N   0)    179.9923         0.040277   
    103. D(C   4,N   2,C   1,N   0)     -0.0013         0.040277   
    104. D(C   4,N   2,C   1,H   3)    179.9911         0.040277   
    105. D(C   7,N   2,C   1,H   3)     -0.0152         0.040277   
    106. D(H  14,C   4,N   2,C   1)   -179.9922         0.030976   
    107. D(C   5,C   4,N   2,C   1)      0.0061         0.030976   
    108. D(H  14,C   4,N   2,C   7)      0.0139         0.030976   
    109. D(C   5,C   4,N   2,C   7)   -179.9878         0.030976   
    110. D(H  15,C   5,N   0,C   1)   -179.9940         0.030976   
    111. D(C   4,C   5,N   0,C   6)    179.9325         0.030976   
    112. D(C   4,C   5,N   0,C   1)      0.0077         0.030976   
    113. D(H  15,C   5,C   4,H  14)     -0.0084         0.034559   
    114. D(N   0,C   5,C   4,H  14)    179.9897         0.034559   
    115. D(N   0,C   5,C   4,N   2)     -0.0085         0.034559   
    116. D(H  15,C   5,C   4,N   2)    179.9934         0.034559   
    117. D(H  15,C   5,N   0,C   6)     -0.0692         0.030976   
    118. D(C  10,C   6,N   0,C   5)    -60.2247         0.014443   
    119. D(C  10,C   6,N   0,C   1)    119.6844         0.014443   
    120. D(C   9,C   6,N   0,C   5)     59.8503         0.014443   
    121. D(C   9,C   6,N   0,C   1)   -120.2406         0.014443   
    122. D(C   8,C   6,N   0,C   5)    179.8138         0.014443   
    123. D(C   8,C   6,N   0,C   1)     -0.2771         0.014443   
    124. D(C  12,C   7,N   2,C   4)    -60.1025         0.014442   
    125. D(C  11,C   7,N   2,C   4)     59.9726         0.014442   
    126. D(C  11,C   7,N   2,C   1)   -120.0200         0.014442   
    127. D(C  13,C   7,N   2,C   1)     -0.0610         0.014442   
    128. D(C  12,C   7,N   2,C   1)    119.9048         0.014442   
    129. D(C  13,C   7,N   2,C   4)    179.9316         0.014442   
    130. D(H  18,C   8,C   6,C  10)    -57.0042         0.011489   
    131. D(H  18,C   8,C   6,C   9)   -179.7720         0.011489   
    132. D(H  18,C   8,C   6,N   0)     61.5978         0.011489   
    133. D(H  17,C   8,C   6,C   9)    -61.2856         0.011489   
    134. D(H  17,C   8,C   6,C  10)     61.4821         0.011489   
    135. D(H  17,C   8,C   6,N   0)   -179.9158         0.011489   
    136. D(H  16,C   8,C   6,C  10)    179.9704         0.011489   
    137. D(H  16,C   8,C   6,C   9)     57.2026         0.011489   
    138. D(H  16,C   8,C   6,N   0)    -61.4276         0.011489   
    139. D(H  27,C   9,C   6,C  10)    176.8569         0.011164   
    140. D(H  27,C   9,C   6,C   8)    -61.0174         0.011164   
    141. D(H  27,C   9,C   6,N   0)     58.8917         0.011164   
    142. D(H  26,C   9,C   6,C  10)    -63.9316         0.011164   
    143. D(H  26,C   9,C   6,C   8)     58.1942         0.011164   
    144. D(H  26,C   9,C   6,N   0)    178.1032         0.011164   
    145. D(H  25,C   9,C   6,C  10)     55.5268         0.011164   
    146. D(H  25,C   9,C   6,N   0)    -62.4384         0.011164   
    147. D(H  25,C   9,C   6,C   8)    177.6525         0.011164   
    148. D(H  21,C  10,C   6,C   8)    -58.2890         0.011162   
    149. D(H  21,C  10,C   6,N   0)   -178.1878         0.011162   
    150. D(H  20,C  10,C   6,C   9)   -176.9529         0.011162   
    151. D(H  20,C  10,C   6,C   8)     60.9289         0.011162   
    152. D(H  20,C  10,C   6,N   0)    -58.9699         0.011162   
    153. D(H  19,C  10,C   6,C   9)    -55.6424         0.011162   
    154. D(H  19,C  10,C   6,C   8)   -177.7606         0.011162   
    155. D(H  21,C  10,C   6,C   9)     63.8292         0.011162   
    156. D(H  19,C  10,C   6,N   0)     62.3406         0.011162   
    157. D(H  29,C  11,C   7,N   2)     58.9356         0.011163   
    158. D(H  28,C  11,C   7,C  13)     58.2522         0.011163   
    159. D(H  28,C  11,C   7,C  12)    -63.8803         0.011163   
    160. D(H  28,C  11,C   7,N   2)    178.1497         0.011163   
    161. D(H  30,C  11,C   7,C  13)    177.7164         0.011163   
    162. D(H  30,C  11,C   7,C  12)     55.5839         0.011163   
    163. D(H  30,C  11,C   7,N   2)    -62.3861         0.011163   
    164. D(H  29,C  11,C   7,C  13)    -60.9619         0.011163   
    165. D(H  29,C  11,C   7,C  12)    176.9057         0.011163   
    166. D(H  24,C  12,C   7,C  13)    -58.2007         0.011163   
    167. D(H  24,C  12,C   7,C  11)     63.9281         0.011163   
    168. D(H  24,C  12,C   7,N   2)   -178.1011         0.011163   
    169. D(H  23,C  12,C   7,C  13)     61.0134         0.011163   
    170. D(H  23,C  12,C   7,C  11)   -176.8578         0.011163   
    171. D(H  23,C  12,C   7,N   2)    -58.8870         0.011163   
    172. D(H  22,C  12,C   7,C  13)   -177.6677         0.011163   
    173. D(H  22,C  12,C   7,C  11)    -55.5389         0.011163   
    174. D(H  22,C  12,C   7,N   2)     62.4319         0.011163   
    175. D(H  33,C  13,C   7,C  12)    179.8810         0.011488   
    176. D(H  33,C  13,C   7,C  11)     57.1049         0.011488   
    177. D(H  33,C  13,C   7,N   2)    -61.5059         0.011488   
    178. D(H  32,C  13,C   7,C  12)    -57.0913         0.011488   
    179. D(H  32,C  13,C   7,C  11)   -179.8673         0.011488   
    180. D(H  32,C  13,C   7,N   2)     61.5218         0.011488   
    181. D(H  31,C  13,C   7,C  12)     61.3945         0.011488   
    182. D(H  31,C  13,C   7,C  11)    -61.3816         0.011488   
    183. D(H  31,C  13,C   7,N   2)   -179.9924         0.011488   
    -----------------------------------------------------------------

Number of atoms                         .... 34
Number of degrees of freedom            .... 183

         *************************************************************
         *                GEOMETRY OPTIMIZATION CYCLE   1            *
         *************************************************************
---------------------------------
CARTESIAN COORDINATES (ANGSTROEM)
---------------------------------
  N     -1.089294   -0.209517    0.000926
  C      0.000017    0.553406    0.000865
  N      1.089332   -0.209491    0.000365
  H     -0.000030    1.622650    0.001289
  C      0.679479   -1.509107    0.000125
  C     -0.679407   -1.509121    0.000356
  C     -2.497863    0.223736   -0.000098
  C      2.497902    0.223768   -0.000028
  C     -2.573502    1.747455    0.005617
  C     -3.162122   -0.338433    1.258009
  C     -3.156619   -0.329028   -1.265270
  C      3.159316   -0.334713   -1.261289
  C      3.159383   -0.332754    1.262062
  C      2.573412    1.747510   -0.001309
  H      1.355401   -2.337897   -0.000160
  H     -1.355311   -2.337925    0.000178
  H     -2.111551    2.165676    0.896822
  H     -3.617674    2.046369    0.006283
  H     -2.110842    2.172564   -0.881940
  H     -3.152267   -1.415227   -1.277864
  H     -2.646111    0.032174   -2.155216
  H     -4.189717    0.002057   -1.309028
  H      3.156655   -1.418991    1.270752
  H      2.649844    0.024517    2.154132
  H      4.192073   -0.000387    1.305335
  H     -3.159745   -1.424667    1.261826
  H     -4.194876   -0.006100    1.300520
  H     -2.654501    0.014742    2.152811
  H      4.192241   -0.003094   -1.304672
  H      2.650251    0.021843   -2.153908
  H      3.155924   -1.420943   -1.268733
  H      3.617566    2.046463   -0.001718
  H      2.111245    2.169940    0.887790
  H      2.110944    2.168383   -0.890989

----------------------------
CARTESIAN COORDINATES (A.U.)
----------------------------
  NO LB      ZA    FRAG     MASS         X           Y           Z
   0 N     7.0000    0    14.007   -2.058468   -0.395929    0.001750
   1 C     6.0000    0    12.011    0.000033    1.045786    0.001635
   2 N     7.0000    0    14.007    2.058539   -0.395882    0.000689
   3 H     1.0000    0     1.008   -0.000058    3.066364    0.002436
   4 C     6.0000    0    12.011    1.284030   -2.851799    0.000237
   5 C     6.0000    0    12.011   -1.283893   -2.851825    0.000672
   6 C     6.0000    0    12.011   -4.720277    0.422799   -0.000185
   7 C     6.0000    0    12.011    4.720350    0.422860   -0.000053
   8 C     6.0000    0    12.011   -4.863214    3.302212    0.010616
   9 C     6.0000    0    12.011   -5.975545   -0.639545    2.377293
  10 C     6.0000    0    12.011   -5.965145   -0.621773   -2.391014
  11 C     6.0000    0    12.011    5.970242   -0.632517   -2.383491
  12 C     6.0000    0    12.011    5.970368   -0.628814    2.384951
  13 C     6.0000    0    12.011    4.863044    3.302316   -0.002474
  14 H     1.0000    0     1.008    2.561337   -4.417985   -0.000302
  15 H     1.0000    0     1.008   -2.561167   -4.418038    0.000336
  16 H     1.0000    0     1.008   -3.990254    4.092535    1.694749
  17 H     1.0000    0     1.008   -6.836413    3.867077    0.011873
  18 H     1.0000    0     1.008   -3.988913    4.105552   -1.666625
  19 H     1.0000    0     1.008   -5.956921   -2.674392   -2.414813
  20 H     1.0000    0     1.008   -5.000426    0.060801   -4.072769
  21 H     1.0000    0     1.008   -7.917417    0.003886   -2.473704
  22 H     1.0000    0     1.008    5.965214   -2.681504    2.401374
  23 H     1.0000    0     1.008    5.007480    0.046329    4.070720
  24 H     1.0000    0     1.008    7.921870   -0.000731    2.466726
  25 H     1.0000    0     1.008   -5.971053   -2.692231    2.384505
  26 H     1.0000    0     1.008   -7.927167   -0.011527    2.457626
  27 H     1.0000    0     1.008   -5.016280    0.027858    4.068223
  28 H     1.0000    0     1.008    7.922188   -0.005846   -2.465473
  29 H     1.0000    0     1.008    5.008249    0.041278   -4.070296
  30 H     1.0000    0     1.008    5.963831   -2.685193   -2.397559
  31 H     1.0000    0     1.008    6.836209    3.867255   -0.003247
  32 H     1.0000    0     1.008    3.989675    4.100592    1.677680
  33 H     1.0000    0     1.008    3.989105    4.097650   -1.683726

--------------------------------
INTERNAL COORDINATES (ANGSTROEM)
--------------------------------
 N      0   0   0     0.000000000000     0.00000000     0.00000000
 C      1   0   0     1.329906074433     0.00000000     0.00000000
 N      2   1   0     1.329894346823   109.98835539     0.00000000
 H      2   1   3     1.069244165045   125.00374125   180.00756737
 C      3   2   1     1.362710364955   107.50192767     0.00000000
 C      5   3   2     1.358886279577   107.50398382     0.00000000
 C      1   2   3     1.473694308612   127.89666120   180.07446760
 C      3   2   1     1.473697280101   127.89738703   179.99234989
 C      7   1   2     1.525606646782   109.93860674   359.72291897
 C      7   1   2     1.529740941507   107.84419067   239.75939015
 C      7   1   2     1.529760455771   107.81475248   119.68443185
 C      8   3   2     1.529754766236   107.82719661   239.97996397
 C      8   3   2     1.529752918520   107.82589840   119.90482420
 C      8   3   2     1.525612876733   109.93429715   359.93895003
 H      5   3   2     1.069468549202   123.29752452   180.00776759
 H      6   5   3     1.069468875342   129.19840503   179.99339562
 H      9   7   1     1.087452708127   111.47658327   298.57243906
 H      9   7   1     1.086114513797   108.81665790   180.08415539
 H      9   7   1     1.087442245997   111.48701378    61.59781917
 H     11   7   1     1.086280747405   111.66482478    62.34061381
 H     11   7   1     1.087699085413   110.76709544   301.03011190
 H     11   7   1     1.085736446077   109.44450327   181.81219260
 H     13   8   3     1.086275068949   111.67249967    62.43193327
 H     13   8   3     1.087686139358   110.76816512   301.11304566
 H     13   8   3     1.085720882133   109.43908647   181.89894500
 H     10   7   1     1.086243664680   111.68039951   297.56161531
 H     10   7   1     1.085740572560   109.43601575   178.10323270
 H     10   7   1     1.087695716348   110.76909840    58.89171526
 H     12   8   3     1.085720112647   109.43742192   178.14966795
 H     12   8   3     1.087680025742   110.76814760    58.93564145
 H     12   8   3     1.086260435569   111.67667624   297.61390614
 H     14   8   3     1.086107778937   108.81402119   180.00757747
 H     14   8   3     1.087447762351   111.48522335    61.52183084
 H     14   8   3     1.087447256231   111.48090335   298.49408802

---------------------------
INTERNAL COORDINATES (A.U.)
---------------------------
 N      0   0   0     0.000000000000     0.00000000     0.00000000
 C      1   0   0     2.513158264516     0.00000000     0.00000000
 N      2   1   0     2.513136102546   109.98835539     0.00000000
 H      2   1   3     2.020578642227   125.00374125   180.00756737
 C      3   2   1     2.575149389620   107.50192767     0.00000000
 C      5   3   2     2.567922915545   107.50398382     0.00000000
 C      1   2   3     2.784878648394   127.89666120   180.07446760
 C      3   2   1     2.784884263695   127.89738703   179.99234989
 C      7   1   2     2.882978750508   109.93860674   359.72291897
 C      7   1   2     2.890791435296   107.84419067   239.75939015
 C      7   1   2     2.890828311909   107.81475248   119.68443185
 C      8   3   2     2.890817560246   107.82719661   239.97996397
 C      8   3   2     2.890814068569   107.82589840   119.90482420
 C      8   3   2     2.882990523409   109.93429715   359.93895003
 H      5   3   2     2.021002666834   123.29752452   180.00776759
 H      6   5   3     2.021003283149   129.19840503   179.99339562
 H      9   7   1     2.054987801950   111.47658327   298.57243906
 H      9   7   1     2.052458981153   108.81665790   180.08415539
 H      9   7   1     2.054968031390   111.48701378    61.59781917
 H     11   7   1     2.052773117148   111.66482478    62.34061381
 H     11   7   1     2.055453387547   110.76709544   301.03011190
 H     11   7   1     2.051744536703   109.44450327   181.81219260
 H     13   8   3     2.052762386420   111.67249967    62.43193327
 H     13   8   3     2.055428923048   110.76816512   301.11304566
 H     13   8   3     2.051715125112   109.43908647   181.89894500
 H     10   7   1     2.052703040952   111.68039951   297.56161531
 H     10   7   1     2.051752334625   109.43601575   178.10323270
 H     10   7   1     2.055447020937   110.76909840    58.89171526
 H     12   8   3     2.051713670993   109.43742192   178.14966795
 H     12   8   3     2.055417369988   110.76814760    58.93564145
 H     12   8   3     2.052734733340   111.67667624   297.61390614
 H     14   8   3     2.052446254113   108.81402119   180.00757747
 H     14   8   3     2.054978455789   111.48522335    61.52183084
 H     14   8   3     2.054977499362   111.48090335   298.49408802

---------------------
BASIS SET INFORMATION
---------------------
There are 3 groups of distinct atoms

 Group   1 Type N   : 7s4p1d contracted to 3s2p1d pattern {511/31/1}
 Group   2 Type C   : 7s4p1d contracted to 3s2p1d pattern {511/31/1}
 Group   3 Type H   : 4s1p contracted to 2s1p pattern {31/1}

Atom   0N    basis set group =>   1
Atom   1C    basis set group =>   2
Atom   2N    basis set group =>   1
Atom   3H    basis set group =>   3
Atom   4C    basis set group =>   2
Atom   5C    basis set group =>   2
Atom   6C    basis set group =>   2
Atom   7C    basis set group =>   2
Atom   8C    basis set group =>   2
Atom   9C    basis set group =>   2
Atom  10C    basis set group =>   2
Atom  11C    basis set group =>   2
Atom  12C    basis set group =>   2
Atom  13C    basis set group =>   2
Atom  14H    basis set group =>   3
Atom  15H    basis set group =>   3
Atom  16H    basis set group =>   3
Atom  17H    basis set group =>   3
Atom  18H    basis set group =>   3
Atom  19H    basis set group =>   3
Atom  20H    basis set group =>   3
Atom  21H    basis set group =>   3
Atom  22H    basis set group =>   3
Atom  23H    basis set group =>   3
Atom  24H    basis set group =>   3
Atom  25H    basis set group =>   3
Atom  26H    basis set group =>   3
Atom  27H    basis set group =>   3
Atom  28H    basis set group =>   3
Atom  29H    basis set group =>   3
Atom  30H    basis set group =>   3
Atom  31H    basis set group =>   3
Atom  32H    basis set group =>   3
Atom  33H    basis set group =>   3
---------------------------------
AUXILIARY/J BASIS SET INFORMATION
---------------------------------
There are 3 groups of distinct atoms

 Group   1 Type N   : 12s5p4d2f1g contracted to 6s4p3d1f1g pattern {711111/2111/211/2/1}
 Group   2 Type C   : 12s5p4d2f1g contracted to 6s4p3d1f1g pattern {711111/2111/211/2/1}
 Group   3 Type H   : 5s2p1d contracted to 3s1p1d pattern {311/2/1}

Atom   0N    basis set group =>   1
Atom   1C    basis set group =>   2
Atom   2N    basis set group =>   1
Atom   3H    basis set group =>   3
Atom   4C    basis set group =>   2
Atom   5C    basis set group =>   2
Atom   6C    basis set group =>   2
Atom   7C    basis set group =>   2
Atom   8C    basis set group =>   2
Atom   9C    basis set group =>   2
Atom  10C    basis set group =>   2
Atom  11C    basis set group =>   2
Atom  12C    basis set group =>   2
Atom  13C    basis set group =>   2
Atom  14H    basis set group =>   3
Atom  15H    basis set group =>   3
Atom  16H    basis set group =>   3
Atom  17H    basis set group =>   3
Atom  18H    basis set group =>   3
Atom  19H    basis set group =>   3
Atom  20H    basis set group =>   3
Atom  21H    basis set group =>   3
Atom  22H    basis set group =>   3
Atom  23H    basis set group =>   3
Atom  24H    basis set group =>   3
Atom  25H    basis set group =>   3
Atom  26H    basis set group =>   3
Atom  27H    basis set group =>   3
Atom  28H    basis set group =>   3
Atom  29H    basis set group =>   3
Atom  30H    basis set group =>   3
Atom  31H    basis set group =>   3
Atom  32H    basis set group =>   3
Atom  33H    basis set group =>   3
------------------------------------------------------------------------------
                           ORCA GTO INTEGRAL CALCULATION
                           -- RI-GTO INTEGRALS CHOSEN --
------------------------------------------------------------------------------
------------------------------------------------------------------------------
                   ___                                                        
                  /   \      - P O W E R E D   B Y -                         
                 /     \                                                     
                 |  |  |   _    _      __       _____    __    __             
                 |  |  |  | |  | |    /  \     |  _  \  |  |  /  |          
                  \  \/   | |  | |   /    \    | | | |  |  | /  /          
                 / \  \   | |__| |  /  /\  \   | |_| |  |  |/  /          
                |  |  |   |  __  | /  /__\  \  |    /   |      \           
                |  |  |   | |  | | |   __   |  |    \   |  |\   \          
                \     /   | |  | | |  |  |  |  | |\  \  |  | \   \       
                 \___/    |_|  |_| |__|  |__|  |_| \__\ |__|  \__/        
                                                                              
                      - O R C A' S   B I G   F R I E N D -                    
                                      &                                       
                       - I N T E G R A L  F E E D E R -                       
                                                                              
 v1 FN, 2020, v2 2021                                                         
------------------------------------------------------------------------------


Reading SHARK input file 5_prot_aq_1.SHARKINP.tmp ... ok
----------------------
SHARK INTEGRAL PACKAGE
----------------------

Number of atoms                             ...     34
Number of basis functions                   ...    287
Number of shells                            ...    141
Maximum angular momentum                    ...      2
Integral batch strategy                     ... SHARK/LIBINT Hybrid
RI-J (if used) integral strategy            ... SPLIT-RIJ (Revised 2003 algorithm where possible)
Printlevel                                  ...      1
Contraction scheme used                     ... SEGMENTED contraction
Coulomb Range Separation                    ... NOT USED
Exchange Range Separation                   ... Long Range
   Mu parameter                             ...  0.300000
   Scaling (regular/separated)              ...  0.157706  0.842294
Finite Nucleus Model                        ... NOT USED
Auxiliary Coulomb fitting basis             ... AVAILABLE
   # of basis functions in Aux-J            ...    868
   # of shells in Aux-J                     ...    300
   Maximum angular momentum in Aux-J        ...      4
Auxiliary J/K fitting basis                 ... NOT available
Auxiliary Correlation fitting basis         ... NOT available
Auxiliary 'external' fitting basis          ... NOT available
Integral threshold                          ...     2.500000e-11
Primitive cut-off                           ...     2.500000e-12
Primitive pair pre-selection threshold      ...     2.500000e-12

Calculating pre-screening integrals         ... done (  0.1 sec) Dimension = 141
Organizing shell pair data                  ... done (  0.1 sec)
Shell pair information
Total number of shell pairs                 ...     10011
Shell pairs after pre-screening             ...      8579
Total number of primitive shell pairs       ...     34423
Primitive shell pairs kept                  ...     20620
          la=0 lb=0:   2944 shell pairs
          la=1 lb=0:   3251 shell pairs
          la=1 lb=1:    933 shell pairs
          la=2 lb=0:    887 shell pairs
          la=2 lb=1:    489 shell pairs
          la=2 lb=2:     75 shell pairs

Calculating one electron integrals          ... done (  0.1 sec)
Calculating RI/J V-Matrix + Cholesky decomp.... done (  0.1 sec)
Calculating Nuclear repulsion               ... done (  0.0 sec) ENN=    877.330036546260 Eh

SHARK setup successfully completed in   0.4 seconds

Maximum memory used throughout the entire GTOINT-calculation: 48.6 MB
-------------------------------------------------------------------------------
                                 ORCA SCF
-------------------------------------------------------------------------------

------------
SCF SETTINGS
------------
Hamiltonian:
 Density Functional     Method          .... DFT(GTOs)
 Exchange Functional    Exchange        .... WB97X
 Correlation Functional Correlation     .... WB97X
 Gradients option       PostSCFGGA      .... off
 Hybrid DFT is turned on
   Fraction HF Exchange ScalHFX         ....  0.157706
   Scaling of DF-GGA-X  ScalDFX         ....  0.000000
   Scaling of DF-GGA-C  ScalDFC         ....  1.000000
   Scaling of DF-LDA-C  ScalLDAC        ....  1.000000
   Perturbative correction              ....  0.000000
   Density functional embedding theory  .... OFF
 Long-range corrected/Screened/Range-Separated Hybrid DFT is turned on
   Amount of maximum screened exact exchange              ....  0.842294
   Range separation parameter mu (erf(mu*r12)/r12)        ....  0.300000
 RI-approximation to the Coulomb term is turned on
   Number of AuxJ basis functions       .... 868
   RIJ-COSX (HFX calculated with COS-X)).... on


General Settings:
 Integral files         IntName         .... 5_prot_aq_1
 Hartree-Fock type      HFTyp           .... RHF
 Total Charge           Charge          ....    1
 Multiplicity           Mult            ....    1
 Number of Electrons    NEL             ....  100
 Basis Dimension        Dim             ....  287
 Nuclear Repulsion      ENuc            ....    877.3300365463 Eh

Convergence Acceleration:
 DIIS                   CNVDIIS         .... on
   Start iteration      DIISMaxIt       ....     0
   Startup error        DIISStart       ....  0.200000
   # of expansion vecs  DIISMaxEq       ....     5
   Bias factor          DIISBfac        ....   1.050
   Max. coefficient     DIISMaxC        ....  10.000
 Trust-Rad. Augm. Hess. CNVTRAH         .... auto
   Auto Start mean grad. ratio tolernc. ....  1.125000
   Auto Start start iteration           ....    20
   Auto Start num. interpolation iter.  ....    10
   Max. Number of Micro iterations      ....    16
   Max. Number of Macro iterations      .... Maxiter - #DIIS iter
   Number of Davidson start vectors     ....     2
   Converg. threshold I  (grad. norm)   ....   1.000e-05
   Converg. threshold II (energy diff.) ....   1.000e-08
   Grad. Scal. Fac. for Micro threshold ....   0.100
   Minimum threshold for Micro iter.    ....   0.010
   NR start threshold (gradient norm)   ....   0.001
   Initial trust radius                 ....   0.400
   Minimum AH scaling param. (alpha)    ....   1.000
   Maximum AH scaling param. (alpha)    .... 1000.000
   Orbital update algorithm             .... Taylor
   White noise on init. David. guess    .... on
   Maximum white noise                  ....   0.010
   Quad. conv. algorithm                .... NR
 SOSCF                  CNVSOSCF        .... on
   Start iteration      SOSCFMaxIt      ....   150
   Startup grad/error   SOSCFStart      ....  0.001000
 Level Shifting         CNVShift        .... on
   Level shift para.    LevelShift      ....    0.2500
   Turn off err/grad.   ShiftErr        ....    0.0000
 Zerner damping         CNVZerner       .... off
 Static damping         CNVDamp         .... on
   Fraction old density DampFac         ....    0.8500
   Max. Damping (<1)    DampMax         ....    0.9800
   Min. Damping (>=0)   DampMin         ....    0.0000
   Turn off err/grad.   DampErr         ....    0.0300
 Fernandez-Rico         CNVRico         .... off

SCF Procedure:
 Maximum # iterations   MaxIter         ....   125
 SCF integral mode      SCFMode         .... Direct
   Integral package                     .... SHARK and LIBINT hybrid scheme
 Reset frequency        DirectResetFreq ....    20
 Integral Threshold     Thresh          ....  2.500e-11 Eh
 Primitive CutOff       TCut            ....  2.500e-12 Eh

Convergence Tolerance:
 Convergence Check Mode ConvCheckMode   .... Total+1el-Energy
 Convergence forced     ConvForced      .... 0
 Energy Change          TolE            ....  1.000e-08 Eh
 1-El. energy change                    ....  1.000e-05 Eh
 Orbital Gradient       TolG            ....  1.000e-05
 Orbital Rotation angle TolX            ....  1.000e-05
 DIIS Error             TolErr          ....  5.000e-07


Diagonalization of the overlap matrix:
Smallest eigenvalue                        ... 1.000e-03
Time for diagonalization                   ...    0.014 sec
Threshold for overlap eigenvalues          ... 1.000e-08
Number of eigenvalues below threshold      ... 0
Time for construction of square roots      ...    0.007 sec
Total time needed                          ...    0.022 sec

Time for model grid setup =    0.697 sec

------------------------------
INITIAL GUESS: MODEL POTENTIAL
------------------------------
Loading Hartree-Fock densities                     ... done
Calculating cut-offs                               ... done
Initializing the effective Hamiltonian             ... done
Setting up the integral package (SHARK)            ... done
Starting the Coulomb interaction                   ... done (   0.8 sec)
Reading the grid                                   ... done
Mapping shells                                     ... done
Starting the XC term evaluation                    ... done (   0.8 sec)
  promolecular density results
     # of electrons  =    100.985069779
     EX              =    -75.694260156
     EC              =     -3.362872736
     EX+EC           =    -79.057132892
Transforming the Hamiltonian                       ... done (   0.0 sec)
Diagonalizing the Hamiltonian                      ... done (   0.0 sec)
Back transforming the eigenvectors                 ... done (   0.0 sec)
Now organizing SCF variables                       ... done
                      ------------------
                      INITIAL GUESS DONE (   2.3 sec)
                      ------------------
-------------------
DFT GRID GENERATION
-------------------

General Integration Accuracy     IntAcc      ... 4.388
Radial Grid Type                 RadialGrid  ... OptM3 with GC (2021)
Angular Grid (max. ang.)         AngularGrid ... 4 (Lebedev-302)
Angular grid pruning method      GridPruning ... 4 (adaptive)
Weight generation scheme         WeightScheme... Becke
Basis function cutoff            BFCut       ... 1.0000e-11
Integration weight cutoff        WCut        ... 1.0000e-14
Angular grids for H and He will be reduced by one unit
Partially contracted basis set               ... off
Rotationally invariant grid construction     ... off

Total number of grid points                  ...   144088
Total number of batches                      ...     2263
Average number of points per batch           ...       63
Average number of grid points per atom       ...     4238
Time for grid setup =    2.572 sec

--------------------
COSX GRID GENERATION
--------------------

GRIDX 1
-------
General Integration Accuracy     IntAcc      ... 3.816
Radial Grid Type                 RadialGrid  ... OptM3 with GC (2021)
Angular Grid (max. ang.)         AngularGrid ... 1 (Lebedev-50)
Angular grid pruning method      GridPruning ... 4 (adaptive)
Weight generation scheme         WeightScheme... Becke
Basis function cutoff            BFCut       ... 1.0000e-11
Integration weight cutoff        WCut        ... 1.0000e-14
Angular grids for H and He will be reduced by one unit
Partially contracted basis set               ... on
Rotationally invariant grid construction     ... off

Total number of grid points                  ...    18382
Total number of batches                      ...      304
Average number of points per batch           ...       60
Average number of grid points per atom       ...      541
UseSFitting                                  ... on

GRIDX 2
-------
General Integration Accuracy     IntAcc      ... 4.020
Radial Grid Type                 RadialGrid  ... OptM3 with GC (2021)
Angular Grid (max. ang.)         AngularGrid ... 2 (Lebedev-110)
Angular grid pruning method      GridPruning ... 4 (adaptive)
Weight generation scheme         WeightScheme... Becke
Basis function cutoff            BFCut       ... 1.0000e-11
Integration weight cutoff        WCut        ... 1.0000e-14
Angular grids for H and He will be reduced by one unit
Partially contracted basis set               ... on
Rotationally invariant grid construction     ... off

Total number of grid points                  ...    38099
Total number of batches                      ...      612
Average number of points per batch           ...       62
Average number of grid points per atom       ...     1121
UseSFitting                                  ... on

GRIDX 3
-------
General Integration Accuracy     IntAcc      ... 4.338
Radial Grid Type                 RadialGrid  ... OptM3 with GC (2021)
Angular Grid (max. ang.)         AngularGrid ... 3 (Lebedev-194)
Angular grid pruning method      GridPruning ... 4 (adaptive)
Weight generation scheme         WeightScheme... Becke
Basis function cutoff            BFCut       ... 1.0000e-11
Integration weight cutoff        WCut        ... 1.0000e-14
Angular grids for H and He will be reduced by one unit
Partially contracted basis set               ... on
Rotationally invariant grid construction     ... off

Total number of grid points                  ...    82848
Total number of batches                      ...     1314
Average number of points per batch           ...       63
Average number of grid points per atom       ...     2437
UseSFitting                                  ... on

Time for X-Grid setup             =    3.421 sec


--------------------
CPCM SOLVATION MODEL
--------------------
CPCM parameters:
  Epsilon                                         ...      80.4000
  Refrac                                          ...       1.3300
  Rsolv                                           ...       1.3000
  Surface type                                    ... GAUSSIAN VDW
  Epsilon function type                           ...         CPCM
Radii:
 Radius for N  used is    3.5149 Bohr (=   1.8600 Ang.)
 Radius for C  used is    3.8550 Bohr (=   2.0400 Ang.)
 Radius for H  used is    2.4944 Bohr (=   1.3200 Ang.)
Calculating surface                               ...        done! (  0.0s)
GEPOL surface points                              ...         1770
GEPOL Volume                                      ...    1664.5174
GEPOL Surface-area                                ...     892.1065
Calculating surface distance matrix               ...        done! (  0.0s)
Performing Cholesky decomposition & store         ...        done! (  0.1s)
Overall time for CPCM initialization              ...                 0.1s
--------------
SCF ITERATIONS
--------------
ITER       Energy         Delta-E        Max-DP      RMS-DP      [F,P]     Damp
               ***  Starting incremental Fock matrix formation  ***
  0   -540.3940143706   0.000000000000 0.03391634  0.00063156  0.1479900 0.8500
  1   -540.4550165403  -0.061002169692 0.03045596  0.00059036  0.1192537 0.8500
                               ***Turning on DIIS***
  2   -540.5011423596  -0.046125819256 0.02388423  0.00047985  0.0916338 0.8500
  3   -540.5351988249  -0.034056465317 0.01504698  0.00033955  0.0695386 0.8500
  4   -540.5613149973  -0.026116172404 0.01020569  0.00026050  0.0553856 0.8500
  5   -540.5817838620  -0.020468864671 0.00779028  0.00021413  0.0457685 0.8500
  6   -540.5983589516  -0.016575089664 0.00631387  0.00018084  0.0384640 0.8500
  7   -540.6120346957  -0.013675744112 0.00536421  0.00015564  0.0325553 0.8500
  8   -540.6234455623  -0.011410866555 0.03045640  0.00089254  0.0275338 0.0000
  9   -540.6844708557  -0.061025293432 0.00134173  0.00003232  0.0011998 0.0000
                      *** Initiating the SOSCF procedure ***
                           *** Shutting down DIIS ***
                      *** Re-Reading the Fockian *** 
                      *** Removing any level shift *** 
ITER      Energy       Delta-E        Grad      Rot      Max-DP    RMS-DP
 10   -540.68449390  -0.0000230420  0.000151  0.000151  0.000645  0.000013
               *** Restarting incremental Fock matrix formation ***
 11   -540.68459694  -0.0001030456  0.000067  0.000130  0.000315  0.000008
 12   -540.68459729  -0.0000003481  0.000055  0.000117  0.000159  0.000004
 13   -540.68459734  -0.0000000519  0.000017  0.000018  0.000030  0.000001
 14   -540.68459737  -0.0000000255  0.000003  0.000006  0.000006  0.000000
                  ***Gradient check signals convergence***
              ***Rediagonalizing the Fockian in SOSCF/NRSCF***

               *****************************************************
               *                     SUCCESS                       *
               *           SCF CONVERGED AFTER  15 CYCLES          *
               *****************************************************

Old exchange energy                            =    -25.379454452 Eh
New exchange energy                            =    -25.379451080 Eh
Exchange energy change after final integration =      0.000003372 Eh
Total energy after final integration           =   -540.684594013 Eh
Final COS-X integration done in                =    94.314 sec

----------------
TOTAL SCF ENERGY
----------------

Total Energy       :         -540.68459401 Eh          -14712.77579 eV

Components:
Nuclear Repulsion  :          877.33003655 Eh           23873.36399 eV
Electronic Energy  :        -1418.01463056 Eh          -38586.13978 eV
One Electron Energy:        -2452.62933800 Eh          -66739.43725 eV
Two Electron Energy:         1034.61470744 Eh           28153.29748 eV
Max COSX asymmetry :            0.00000268 Eh               0.00007 eV
CPCM Dielectric    :           -0.07491963 Eh              -2.03867 eV

Virial components:
Potential Energy   :        -1075.06971859 Eh          -29254.13429 eV
Kinetic Energy     :          534.38512458 Eh           14541.35851 eV
Virial Ratio       :            2.01178826


DFT components:
N(Alpha)           :       49.999638528323 electrons
N(Beta)            :       49.999638528323 electrons
N(Total)           :       99.999277056647 electrons
E(XC)              :      -55.663249552883 Eh       
DFET-embed. en.    :        0.000000000000 Eh       
CPCM Solvation Model Properties:
Surface-charge          :           -1.02392570
Charge-correction       :            0.00315521 Eh               0.08586 eV
Free-energy (cav+disp)  :  This term is not implemented in the current solvation scheme

---------------
SCF CONVERGENCE
---------------

  Last Energy change         ...   -1.5862e-08  Tolerance :   1.0000e-08
  Last MAX-Density change    ...    3.1210e-15  Tolerance :   1.0000e-07
  Last RMS-Density change    ...    3.7859e-17  Tolerance :   5.0000e-09
  Last Orbital Gradient      ...    1.2760e-06  Tolerance :   1.0000e-05
  Last Orbital Rotation      ...    2.7223e-06  Tolerance :   1.0000e-05

             **** THE GBW FILE WAS UPDATED (5_prot_aq_1.gbw) ****
             **** DENSITY 5_prot_aq_1.scfp WAS UPDATED ****
             **** ENERGY FILE WAS UPDATED (5_prot_aq_1.en.tmp) ****
             **** THE GBW FILE WAS UPDATED (5_prot_aq_1.gbw) ****
             **** DENSITY 5_prot_aq_1.scfp WAS UPDATED ****
----------------
ORBITAL ENERGIES
----------------

  NO   OCC          E(Eh)            E(eV) 
   0   2.0000     -14.509124      -394.8133 
   1   2.0000     -14.509073      -394.8119 
   2   2.0000     -10.381436      -282.4932 
   3   2.0000     -10.343486      -281.4606 
   4   2.0000     -10.343459      -281.4598 
   5   2.0000     -10.329557      -281.0815 
   6   2.0000     -10.328973      -281.0656 
   7   2.0000     -10.272199      -279.5208 
   8   2.0000     -10.272187      -279.5204 
   9   2.0000     -10.269550      -279.4487 
  10   2.0000     -10.269544      -279.4485 
  11   2.0000     -10.269531      -279.4482 
  12   2.0000     -10.269527      -279.4480 
  13   2.0000      -1.221150       -33.2292 
  14   2.0000      -1.104964       -30.0676 
  15   2.0000      -0.984188       -26.7811 
  16   2.0000      -0.934744       -25.4357 
  17   2.0000      -0.923932       -25.1415 
  18   2.0000      -0.836648       -22.7664 
  19   2.0000      -0.829110       -22.5612 
  20   2.0000      -0.826970       -22.5030 
  21   2.0000      -0.826248       -22.4834 
  22   2.0000      -0.799155       -21.7461 
  23   2.0000      -0.770104       -20.9556 
  24   2.0000      -0.729765       -19.8579 
  25   2.0000      -0.709790       -19.3144 
  26   2.0000      -0.646292       -17.5865 
  27   2.0000      -0.633577       -17.2405 
  28   2.0000      -0.608452       -16.5568 
  29   2.0000      -0.591037       -16.0829 
  30   2.0000      -0.587517       -15.9872 
  31   2.0000      -0.580617       -15.7994 
  32   2.0000      -0.578176       -15.7330 
  33   2.0000      -0.557547       -15.1716 
  34   2.0000      -0.556584       -15.1454 
  35   2.0000      -0.547417       -14.8960 
  36   2.0000      -0.523317       -14.2402 
  37   2.0000      -0.504136       -13.7182 
  38   2.0000      -0.501848       -13.6560 
  39   2.0000      -0.500050       -13.6071 
  40   2.0000      -0.498874       -13.5750 
  41   2.0000      -0.491420       -13.3722 
  42   2.0000      -0.483245       -13.1498 
  43   2.0000      -0.483026       -13.1438 
  44   2.0000      -0.470066       -12.7911 
  45   2.0000      -0.454478       -12.3670 
  46   2.0000      -0.453331       -12.3358 
  47   2.0000      -0.451072       -12.2743 
  48   2.0000      -0.410622       -11.1736 
  49   2.0000      -0.373967       -10.1762 
  50   0.0000       0.062962         1.7133 
  51   0.0000       0.094929         2.5832 
  52   0.0000       0.133054         3.6206 
  53   0.0000       0.145500         3.9593 
  54   0.0000       0.167855         4.5676 
  55   0.0000       0.175695         4.7809 
  56   0.0000       0.176888         4.8134 
  57   0.0000       0.182176         4.9573 
  58   0.0000       0.195511         5.3201 
  59   0.0000       0.198894         5.4122 
  60   0.0000       0.210257         5.7214 
  61   0.0000       0.213991         5.8230 
  62   0.0000       0.222074         6.0429 
  63   0.0000       0.222153         6.0451 
  64   0.0000       0.225428         6.1342 
  65   0.0000       0.249213         6.7814 
  66   0.0000       0.252200         6.8627 
  67   0.0000       0.255620         6.9558 
  68   0.0000       0.264480         7.1969 
  69   0.0000       0.265613         7.2277 
  70   0.0000       0.266353         7.2478 
  71   0.0000       0.271469         7.3870 
  72   0.0000       0.276576         7.5260 
  73   0.0000       0.276883         7.5344 
  74   0.0000       0.281674         7.6647 
  75   0.0000       0.290839         7.9141 
  76   0.0000       0.292361         7.9556 
  77   0.0000       0.297935         8.1072 
  78   0.0000       0.316699         8.6178 
  79   0.0000       0.317282         8.6337 
  80   0.0000       0.319441         8.6924 
  81   0.0000       0.336522         9.1572 
  82   0.0000       0.338215         9.2033 
  83   0.0000       0.354275         9.6403 
  84   0.0000       0.401528        10.9261 
  85   0.0000       0.419255        11.4085 
  86   0.0000       0.452181        12.3045 
  87   0.0000       0.471033        12.8174 
  88   0.0000       0.474196        12.9035 
  89   0.0000       0.481578        13.1044 
  90   0.0000       0.496961        13.5230 
  91   0.0000       0.510784        13.8991 
  92   0.0000       0.511414        13.9163 
  93   0.0000       0.547659        14.9026 
  94   0.0000       0.549611        14.9557 
  95   0.0000       0.553367        15.0579 
  96   0.0000       0.595080        16.1929 
  97   0.0000       0.598860        16.2958 
  98   0.0000       0.609405        16.5828 
  99   0.0000       0.622264        16.9327 
 100   0.0000       0.637478        17.3467 
 101   0.0000       0.649258        17.6672 
 102   0.0000       0.651987        17.7415 
 103   0.0000       0.665296        18.1036 
 104   0.0000       0.681708        18.5502 
 105   0.0000       0.685511        18.6537 
 106   0.0000       0.716880        19.5073 
 107   0.0000       0.720593        19.6083 
 108   0.0000       0.734533        19.9877 
 109   0.0000       0.737067        20.0566 
 110   0.0000       0.741364        20.1735 
 111   0.0000       0.742986        20.2177 
 112   0.0000       0.747740        20.3470 
 113   0.0000       0.749125        20.3847 
 114   0.0000       0.753581        20.5060 
 115   0.0000       0.759806        20.6754 
 116   0.0000       0.772574        21.0228 
 117   0.0000       0.773028        21.0352 
 118   0.0000       0.776753        21.1365 
 119   0.0000       0.779899        21.2221 
 120   0.0000       0.784580        21.3495 
 121   0.0000       0.786991        21.4151 
 122   0.0000       0.805131        21.9087 
 123   0.0000       0.805144        21.9091 
 124   0.0000       0.808110        21.9898 
 125   0.0000       0.816202        22.2100 
 126   0.0000       0.816549        22.2194 
 127   0.0000       0.822210        22.3735 
 128   0.0000       0.829359        22.5680 
 129   0.0000       0.830045        22.5867 
 130   0.0000       0.835917        22.7465 
 131   0.0000       0.835969        22.7479 
 132   0.0000       0.838875        22.8270 
 133   0.0000       0.846425        23.0324 
 134   0.0000       0.847966        23.0743 
 135   0.0000       0.853040        23.2124 
 136   0.0000       0.865395        23.5486 
 137   0.0000       0.876719        23.8567 
 138   0.0000       0.889030        24.1917 
 139   0.0000       0.890951        24.2440 
 140   0.0000       0.987276        26.8651 
 141   0.0000       0.990763        26.9600 
 142   0.0000       1.032603        28.0986 
 143   0.0000       1.044875        28.4325 
 144   0.0000       1.054167        28.6853 
 145   0.0000       1.055900        28.7325 
 146   0.0000       1.069501        29.1026 
 147   0.0000       1.104425        30.0529 
 148   0.0000       1.108516        30.1643 
 149   0.0000       1.161957        31.6184 
 150   0.0000       1.188306        32.3354 
 151   0.0000       1.193992        32.4902 
 152   0.0000       1.218588        33.1595 
 153   0.0000       1.228056        33.4171 
 154   0.0000       1.258410        34.2431 
 155   0.0000       1.288060        35.0499 
 156   0.0000       1.298179        35.3252 
 157   0.0000       1.328605        36.1532 
 158   0.0000       1.345924        36.6245 
 159   0.0000       1.349976        36.7347 
 160   0.0000       1.364513        37.1303 
 161   0.0000       1.365357        37.1533 
 162   0.0000       1.384027        37.6613 
 163   0.0000       1.399248        38.0755 
 164   0.0000       1.408360        38.3234 
 165   0.0000       1.438384        39.1404 
 166   0.0000       1.444622        39.3102 
 167   0.0000       1.473995        40.1095 
 168   0.0000       1.549402        42.1614 
 169   0.0000       1.623784        44.1854 
 170   0.0000       1.634908        44.4881 
 171   0.0000       1.641238        44.6603 
 172   0.0000       1.649490        44.8849 
 173   0.0000       1.651231        44.9323 
 174   0.0000       1.653123        44.9838 
 175   0.0000       1.655831        45.0574 
 176   0.0000       1.657048        45.0906 
 177   0.0000       1.663012        45.2529 
 178   0.0000       1.668032        45.3895 
 179   0.0000       1.683231        45.8030 
 180   0.0000       1.714604        46.6567 
 181   0.0000       1.764343        48.0102 
 182   0.0000       1.782198        48.4961 
 183   0.0000       1.784615        48.5618 
 184   0.0000       1.807146        49.1749 
 185   0.0000       1.808653        49.2159 
 186   0.0000       1.833265        49.8857 
 187   0.0000       1.837941        50.0129 
 188   0.0000       1.853754        50.4432 
 189   0.0000       1.860022        50.6138 
 190   0.0000       1.861589        50.6564 
 191   0.0000       1.883119        51.2423 
 192   0.0000       1.888009        51.3753 
 193   0.0000       1.897423        51.6315 
 194   0.0000       1.924288        52.3625 
 195   0.0000       1.931504        52.5589 
 196   0.0000       1.935465        52.6667 
 197   0.0000       1.938304        52.7439 
 198   0.0000       1.948220        53.0138 
 199   0.0000       1.953591        53.1599 
 200   0.0000       1.956138        53.2292 
 201   0.0000       1.957220        53.2587 
 202   0.0000       1.958649        53.2975 
 203   0.0000       1.969416        53.5905 
 204   0.0000       1.975533        53.7570 
 205   0.0000       1.977340        53.8062 
 206   0.0000       1.997692        54.3600 
 207   0.0000       1.997800        54.3629 
 208   0.0000       2.017363        54.8952 
 209   0.0000       2.020054        54.9685 
 210   0.0000       2.042204        55.5712 
 211   0.0000       2.047668        55.7199 
 212   0.0000       2.054391        55.9028 
 213   0.0000       2.058213        56.0068 
 214   0.0000       2.065412        56.2027 
 215   0.0000       2.072605        56.3984 
 216   0.0000       2.085180        56.7406 
 217   0.0000       2.091350        56.9085 
 218   0.0000       2.097472        57.0751 
 219   0.0000       2.120416        57.6995 
 220   0.0000       2.123695        57.7887 
 221   0.0000       2.168121        58.9976 
 222   0.0000       2.171781        59.0972 
 223   0.0000       2.246504        61.1305 
 224   0.0000       2.262985        61.5790 
 225   0.0000       2.263917        61.6043 
 226   0.0000       2.270193        61.7751 
 227   0.0000       2.293520        62.4098 
 228   0.0000       2.304827        62.7175 
 229   0.0000       2.310156        62.8625 
 230   0.0000       2.312610        62.9293 
 231   0.0000       2.321170        63.1623 
 232   0.0000       2.336424        63.5773 
 233   0.0000       2.448651        66.6312 
 234   0.0000       2.457638        66.8757 
 235   0.0000       2.469360        67.1947 
 236   0.0000       2.485853        67.6435 
 237   0.0000       2.504444        68.1494 
 238   0.0000       2.509219        68.2793 
 239   0.0000       2.513162        68.3866 
 240   0.0000       2.527759        68.7838 
 241   0.0000       2.537448        69.0475 
 242   0.0000       2.551431        69.4280 
 243   0.0000       2.572633        70.0049 
 244   0.0000       2.574744        70.0623 
 245   0.0000       2.601796        70.7985 
 246   0.0000       2.602367        70.8140 
 247   0.0000       2.615019        71.1583 
 248   0.0000       2.634656        71.6926 
 249   0.0000       2.637677        71.7748 
 250   0.0000       2.651736        72.1574 
 251   0.0000       2.674757        72.7838 
 252   0.0000       2.740774        74.5803 
 253   0.0000       2.749592        74.8202 
 254   0.0000       2.759010        75.0765 
 255   0.0000       2.770733        75.3955 
 256   0.0000       2.816016        76.6277 
 257   0.0000       2.817554        76.6695 
 258   0.0000       2.820272        76.7435 
 259   0.0000       2.830821        77.0306 
 260   0.0000       2.857672        77.7612 
 261   0.0000       2.900213        78.9188 
 262   0.0000       2.939340        79.9835 
 263   0.0000       2.954564        80.3978 
 264   0.0000       2.968094        80.7659 
 265   0.0000       2.981952        81.1430 
 266   0.0000       2.984194        81.2041 
 267   0.0000       2.996075        81.5274 
 268   0.0000       3.001568        81.6768 
 269   0.0000       3.006548        81.8123 
 270   0.0000       3.010178        81.9111 
 271   0.0000       3.015614        82.0590 
 272   0.0000       3.036935        82.6392 
 273   0.0000       3.062109        83.3242 
 274   0.0000       3.070538        83.5536 
 275   0.0000       3.080247        83.8178 
 276   0.0000       3.087580        84.0173 
 277   0.0000       3.095056        84.2208 
 278   0.0000       3.124644        85.0259 
 279   0.0000       3.135629        85.3248 
 280   0.0000       3.166617        86.1680 
 281   0.0000       3.201989        87.1306 
 282   0.0000       3.206515        87.2537 
 283   0.0000       3.315731        90.2256 
 284   0.0000       3.491099        94.9976 
 285   0.0000       3.603030        98.0434 
 286   0.0000       3.633079        98.8611 

                    ********************************
                    * MULLIKEN POPULATION ANALYSIS *
                    ********************************

-----------------------
MULLIKEN ATOMIC CHARGES
-----------------------
   0 N :   -0.155581
   1 C :    0.220194
   2 N :   -0.155577
   3 H :    0.114055
   4 C :    0.063181
   5 C :    0.063182
   6 C :   -0.261786
   7 C :   -0.261806
   8 C :    0.024015
   9 C :    0.056752
  10 C :    0.057249
  11 C :    0.056964
  12 C :    0.057069
  13 C :    0.024016
  14 H :    0.091994
  15 H :    0.091999
  16 H :    0.054644
  17 H :    0.058856
  18 H :    0.054638
  19 H :    0.044476
  20 H :    0.047524
  21 H :    0.052352
  22 H :    0.044506
  23 H :    0.047566
  24 H :    0.052365
  25 H :    0.044517
  26 H :    0.052397
  27 H :    0.047629
  28 H :    0.052375
  29 H :    0.047586
  30 H :    0.044505
  31 H :    0.058854
  32 H :    0.054652
  33 H :    0.054640
Sum of atomic charges:    1.0000000

--------------------------------
MULLIKEN REDUCED ORBITAL CHARGES
--------------------------------
  0 N s       :     3.377437  s :     3.377437
      pz      :     1.454209  p :     3.745026
      px      :     1.151991
      py      :     1.138826
      dz2     :     0.002379  d :     0.033118
      dxz     :     0.005709
      dyz     :     0.006501
      dx2y2   :     0.008313
      dxy     :     0.010216
  1 C s       :     3.095430  s :     3.095430
      pz      :     0.935785  p :     2.616591
      px      :     0.779529
      py      :     0.901277
      dz2     :     0.005174  d :     0.067785
      dxz     :     0.016855
      dyz     :     0.006400
      dx2y2   :     0.017190
      dxy     :     0.022166
  2 N s       :     3.377439  s :     3.377439
      pz      :     1.454196  p :     3.745018
      px      :     1.151994
      py      :     1.138827
      dz2     :     0.002379  d :     0.033119
      dxz     :     0.005710
      dyz     :     0.006501
      dx2y2   :     0.008314
      dxy     :     0.010216
  3 H s       :     0.860461  s :     0.860461
      pz      :     0.004576  p :     0.025484
      px      :     0.001735
      py      :     0.019172
  4 C s       :     3.143595  s :     3.143595
      pz      :     1.034561  p :     2.744845
      px      :     0.914941
      py      :     0.795343
      dz2     :     0.004106  d :     0.048379
      dxz     :     0.007553
      dyz     :     0.008032
      dx2y2   :     0.015629
      dxy     :     0.013059
  5 C s       :     3.143598  s :     3.143598
      pz      :     1.034552  p :     2.744841
      px      :     0.914941
      py      :     0.795348
      dz2     :     0.004106  d :     0.048379
      dxz     :     0.007553
      dyz     :     0.008032
      dx2y2   :     0.015628
      dxy     :     0.013060
  6 C s       :     3.233747  s :     3.233747
      pz      :     1.080304  p :     2.963387
      px      :     0.798664
      py      :     1.084419
      dz2     :     0.014676  d :     0.064652
      dxz     :     0.011663
      dyz     :     0.010706
      dx2y2   :     0.016909
      dxy     :     0.010698
  7 C s       :     3.233768  s :     3.233768
      pz      :     1.080317  p :     2.963386
      px      :     0.798644
      py      :     1.084426
      dz2     :     0.014676  d :     0.064652
      dxz     :     0.011663
      dyz     :     0.010706
      dx2y2   :     0.016909
      dxy     :     0.010698
  8 C s       :     2.985858  s :     2.985858
      pz      :     1.014765  p :     2.964173
      px      :     1.036543
      py      :     0.912865
      dz2     :     0.005605  d :     0.025953
      dxz     :     0.004165
      dyz     :     0.005766
      dx2y2   :     0.007319
      dxy     :     0.003099
  9 C s       :     2.978556  s :     2.978556
      pz      :     0.934759  p :     2.938682
      px      :     0.998394
      py      :     1.005528
      dz2     :     0.007174  d :     0.026010
      dxz     :     0.005150
      dyz     :     0.003635
      dx2y2   :     0.007419
      dxy     :     0.002632
 10 C s       :     2.978379  s :     2.978379
      pz      :     0.933768  p :     2.938360
      px      :     0.998642
      py      :     1.005950
      dz2     :     0.007161  d :     0.026013
      dxz     :     0.005149
      dyz     :     0.003671
      dx2y2   :     0.007415
      dxy     :     0.002618
 11 C s       :     2.978460  s :     2.978460
      pz      :     0.934315  p :     2.938564
      px      :     0.998558
      py      :     1.005692
      dz2     :     0.007169  d :     0.026011
      dxz     :     0.005149
      dyz     :     0.003651
      dx2y2   :     0.007418
      dxy     :     0.002624
 12 C s       :     2.978435  s :     2.978435
      pz      :     0.934189  p :     2.938485
      px      :     0.998513
      py      :     1.005784
      dz2     :     0.007166  d :     0.026011
      dxz     :     0.005154
      dyz     :     0.003651
      dx2y2   :     0.007412
      dxy     :     0.002628
 13 C s       :     2.985850  s :     2.985850
      pz      :     1.014763  p :     2.964181
      px      :     1.036552
      py      :     0.912866
      dz2     :     0.005604  d :     0.025953
      dxz     :     0.004165
      dyz     :     0.005765
      dx2y2   :     0.007319
      dxy     :     0.003099
 14 H s       :     0.882568  s :     0.882568
      pz      :     0.004941  p :     0.025438
      px      :     0.008708
      py      :     0.011789
 15 H s       :     0.882564  s :     0.882564
      pz      :     0.004941  p :     0.025438
      px      :     0.008707
      py      :     0.011789
 16 H s       :     0.920887  s :     0.920887
      pz      :     0.012195  p :     0.024469
      px      :     0.006866
      py      :     0.005408
 17 H s       :     0.916407  s :     0.916407
      pz      :     0.005136  p :     0.024737
      px      :     0.014963
      py      :     0.004637
 18 H s       :     0.920890  s :     0.920890
      pz      :     0.012133  p :     0.024472
      px      :     0.006872
      py      :     0.005467
 19 H s       :     0.930908  s :     0.930908
      pz      :     0.004013  p :     0.024616
      px      :     0.004879
      py      :     0.015724
 20 H s       :     0.928253  s :     0.928253
      pz      :     0.011388  p :     0.024223
      px      :     0.006942
      py      :     0.005893
 21 H s       :     0.922922  s :     0.922922
      pz      :     0.004174  p :     0.024726
      px      :     0.014694
      py      :     0.005859
 22 H s       :     0.930877  s :     0.930877
      pz      :     0.004014  p :     0.024617
      px      :     0.004878
      py      :     0.015724
 23 H s       :     0.928211  s :     0.928211
      pz      :     0.011427  p :     0.024224
      px      :     0.006930
      py      :     0.005866
 24 H s       :     0.922907  s :     0.922907
      pz      :     0.004178  p :     0.024728
      px      :     0.014685
      py      :     0.005864
 25 H s       :     0.930861  s :     0.930861
      pz      :     0.004018  p :     0.024622
      px      :     0.004879
      py      :     0.015724
 26 H s       :     0.922875  s :     0.922875
      pz      :     0.004183  p :     0.024727
      px      :     0.014685
      py      :     0.005860
 27 H s       :     0.928149  s :     0.928149
      pz      :     0.011477  p :     0.024223
      px      :     0.006910
      py      :     0.005836
 28 H s       :     0.922897  s :     0.922897
      pz      :     0.004179  p :     0.024728
      px      :     0.014690
      py      :     0.005858
 29 H s       :     0.928190  s :     0.928190
      pz      :     0.011437  p :     0.024224
      px      :     0.006926
      py      :     0.005860
 30 H s       :     0.930876  s :     0.930876
      pz      :     0.004015  p :     0.024620
      px      :     0.004879
      py      :     0.015725
 31 H s       :     0.916409  s :     0.916409
      pz      :     0.005136  p :     0.024737
      px      :     0.014963
      py      :     0.004638
 32 H s       :     0.920877  s :     0.920877
      pz      :     0.012159  p :     0.024471
      px      :     0.006868
      py      :     0.005444
 33 H s       :     0.920890  s :     0.920890
      pz      :     0.012169  p :     0.024470
      px      :     0.006870
      py      :     0.005431


                     *******************************
                     * LOEWDIN POPULATION ANALYSIS *
                     *******************************

----------------------
LOEWDIN ATOMIC CHARGES
----------------------
   0 N :    0.110433
   1 C :    0.122187
   2 N :    0.110438
   3 H :    0.056041
   4 C :    0.020192
   5 C :    0.020195
   6 C :    0.013300
   7 C :    0.013308
   8 C :   -0.042869
   9 C :   -0.039218
  10 C :   -0.039190
  11 C :   -0.039201
  12 C :   -0.039205
  13 C :   -0.042870
  14 H :    0.053451
  15 H :    0.053451
  16 H :    0.035744
  17 H :    0.046360
  18 H :    0.035716
  19 H :    0.032293
  20 H :    0.034908
  21 H :    0.041240
  22 H :    0.032299
  23 H :    0.034923
  24 H :    0.041253
  25 H :    0.032288
  26 H :    0.041283
  27 H :    0.034945
  28 H :    0.041264
  29 H :    0.034930
  30 H :    0.032292
  31 H :    0.046356
  32 H :    0.035731
  33 H :    0.035736

-------------------------------
LOEWDIN REDUCED ORBITAL CHARGES
-------------------------------
  0 N s       :     3.045157  s :     3.045157
      pz      :     1.377160  p :     3.767510
      px      :     1.191221
      py      :     1.199129
      dz2     :     0.004574  d :     0.076900
      dxz     :     0.009533
      dyz     :     0.012660
      dx2y2   :     0.022885
      dxy     :     0.027248
  1 C s       :     2.827013  s :     2.827013
      pz      :     0.960444  p :     2.891741
      px      :     0.901736
      py      :     1.029562
[...]
     76      -0.167709   0.130357   0.128854   0.011707   0.010074   0.001381
     77       0.000628  -0.000070  -0.000082   0.000223   0.000299   0.000138
     78       0.266983  -0.302132  -0.299243  -0.001652  -0.001791  -0.000031
     79      -0.084403   0.095627   0.094664   0.000854   0.000792   0.000119
     80      -0.005903   0.007770   0.007784  -0.000125  -0.000053  -0.000193
     81       0.037856  -0.066651  -0.065780   0.001481   0.001206   0.000013
     82       0.031454  -0.052622  -0.051945   0.001055   0.000824   0.000024
     83       0.069588  -0.121298  -0.119733   0.002660   0.002118   0.000066
     84      -0.265774  -0.299994   0.299703  -0.001593   0.001746   0.000026
     85      -0.083929  -0.094855   0.094715  -0.000837   0.000779   0.000117
     86       0.006028   0.007895  -0.007976  -0.000125   0.000053   0.000193
     87      -0.037449  -0.066289   0.065987   0.001455  -0.001185  -0.000011
     88       0.031283   0.052578  -0.052349  -0.001047   0.000819   0.000024
     89      -0.068540  -0.120088   0.119561   0.002604  -0.002073  -0.000060
     90       0.000695   0.000792  -0.000806  -0.000158   0.000180   0.000067
     91      -0.167748  -0.129650   0.129273  -0.011347   0.009764   0.001331
     92      -0.001113  -0.000441   0.000453   0.000167  -0.000248  -0.000131
     93       0.437435  -0.395432   0.400048   0.001234  -0.000799   0.005179
     94       0.126969  -0.115964   0.117354   0.000686  -0.000346   0.000450
     95       0.000021  -0.000018   0.000019   0.000001   0.000000  -0.000001
     96       0.071875  -0.064469   0.065191   0.000001  -0.000805   0.005218
     97      -0.066659   0.059420  -0.060147  -0.000147   0.000582  -0.003382
     98      -0.144747   0.128523  -0.130139  -0.000062   0.001050  -0.007311
     99       0.071835  -0.064427   0.065150   0.000001  -0.000814   0.005264
    100      -0.066840   0.059568  -0.060297  -0.000147   0.000589  -0.003424
    101       0.144404  -0.128195   0.129810   0.000063  -0.001058   0.007361


-----------
IR SPECTRUM
-----------

 Mode   freq       eps      Int      T**2         TX        TY        TZ
       cm**-1   L/(mol*cm) km/mol    a.u.
----------------------------------------------------------------------------
  6:     26.23   0.000000    0.00  0.000000  ( 0.000019 -0.000012  0.000003)
  7:     38.65   0.000005    0.02  0.000038  ( 0.000007 -0.000020  0.006136)
  8:    120.25   0.000012    0.06  0.000032  ( 0.000009 -0.000042 -0.005630)
  9:    146.44   0.000028    0.14  0.000059  (-0.000001  0.007667 -0.000009)
 10:    148.79   0.000000    0.00  0.000000  (-0.000020 -0.000038  0.000000)
 11:    223.75   0.000006    0.03  0.000008  (-0.000008 -0.000047  0.002829)
 12:    229.82   0.000000    0.00  0.000000  (-0.000004 -0.000029  0.000003)
 13:    256.47   0.000011    0.06  0.000014  (-0.003699 -0.000005  0.000008)
 14:    262.39   0.000018    0.09  0.000021  ( 0.000003 -0.004617 -0.000002)
 15:    271.06   0.000009    0.04  0.000010  ( 0.000001 -0.003137 -0.000014)
 16:    278.70   0.000002    0.01  0.000002  ( 0.001335 -0.000001  0.000004)
 17:    330.16   0.000000    0.00  0.000000  ( 0.000003 -0.000002  0.000005)
 18:    332.33   0.000004    0.02  0.000003  (-0.000000 -0.000015 -0.001828)
 19:    344.21   0.000115    0.58  0.000104  (-0.000019 -0.000060  0.010219)
 20:    354.39   0.000026    0.13  0.000023  ( 0.000000  0.004802  0.000015)
 21:    365.81   0.000000    0.00  0.000000  (-0.000029 -0.000023 -0.000003)
 22:    371.56   0.000003    0.01  0.000002  (-0.001512 -0.000002 -0.000045)
 23:    401.19   0.000002    0.01  0.000001  (-0.001173  0.000000 -0.000006)
 24:    443.61   0.000011    0.05  0.000007  ( 0.000026  0.000010 -0.002736)
 25:    468.55   0.000000    0.00  0.000000  ( 0.000055  0.000131  0.000002)
 26:    469.90   0.000025    0.13  0.000017  (-0.000002  0.004099  0.000044)
 27:    520.27   0.000093    0.47  0.000056  (-0.007472 -0.000000  0.000014)
 28:    578.05   0.000159    0.80  0.000086  ( 0.000000 -0.009253 -0.000021)
 29:    639.38   0.001368    6.92  0.000668  (-0.025843 -0.000000  0.000034)
 30:    678.70   0.013809   69.79  0.006349  ( 0.000027  0.000038 -0.079683)
 31:    692.06   0.000000    0.00  0.000000  (-0.000051  0.000019  0.000003)
 32:    774.75   0.008580   43.36  0.003456  ( 0.000008 -0.000015 -0.058789)
 33:    845.55   0.000019    0.10  0.000007  ( 0.000000  0.002647 -0.000046)
 34:    849.41   0.000142    0.72  0.000052  (-0.007226  0.000000 -0.000028)
 35:    891.59   0.006172   31.19  0.002160  ( 0.000045 -0.000039  0.046480)
 36:    923.39   0.000000    0.00  0.000000  ( 0.000021  0.000007 -0.000005)
 37:    948.44   0.001062    5.36  0.000349  (-0.000014 -0.000045  0.018689)
 38:    948.55   0.000000    0.00  0.000000  ( 0.000018  0.000020 -0.000193)
 39:    959.04   0.001447    7.31  0.000471  (-0.000001 -0.021699 -0.000098)
 40:    959.69   0.000022    0.11  0.000007  (-0.002658 -0.000002  0.000045)
 41:    968.05   0.000036    0.18  0.000012  ( 0.000022  0.000101 -0.003423)
 42:    968.39   0.000000    0.00  0.000000  (-0.000021  0.000013  0.000006)
 43:   1023.17   0.001367    6.91  0.000417  ( 0.020418 -0.000002  0.000010)
 44:   1040.51   0.000128    0.65  0.000038  (-0.000001  0.006190  0.000011)
 45:   1049.85   0.000033    0.17  0.000010  ( 0.000003 -0.003129 -0.000040)
 46:   1050.67   0.000116    0.58  0.000034  (-0.005860 -0.000001 -0.000010)
 47:   1054.06   0.000000    0.00  0.000000  ( 0.000027 -0.000007  0.000007)
 48:   1054.71   0.000204    1.03  0.000060  (-0.000026  0.000003  0.007763)
 49:   1126.35   0.004495   22.71  0.001245  ( 0.000021 -0.035288 -0.000006)
 50:   1151.16   0.018503   93.50  0.005016  ( 0.070822  0.000011  0.000009)
 51:   1222.80   0.001352    6.83  0.000345  (-0.000003  0.018574 -0.000038)
 52:   1236.26   0.080776  408.21  0.020390  (-0.142793 -0.000002 -0.000049)
 53:   1266.05   0.000017    0.08  0.000004  ( 0.002021  0.000004 -0.000004)
 54:   1269.85   0.000660    3.34  0.000162  ( 0.000002 -0.012736  0.000063)
 55:   1277.58   0.000000    0.00  0.000000  (-0.000129  0.000043 -0.000011)
 56:   1279.68   0.006459   32.64  0.001575  ( 0.000074 -0.000012 -0.039686)
 57:   1304.25   0.000027    0.14  0.000007  (-0.002558  0.000000  0.000009)
 58:   1356.15   0.004192   21.18  0.000965  (-0.000000 -0.031058 -0.000011)
 59:   1396.08   0.000000    0.00  0.000000  (-0.000068 -0.000072 -0.000050)
 60:   1396.30   0.010705   54.10  0.002392  ( 0.000072 -0.000025 -0.048913)
 61:   1401.35   0.000169    0.85  0.000038  ( 0.006128 -0.000030  0.000093)
 62:   1401.65   0.013541   68.43  0.003015  (-0.000005 -0.054907 -0.000007)
 63:   1413.50   0.002341   11.83  0.000517  ( 0.022736 -0.000017  0.000046)
 64:   1413.71   0.000234    1.18  0.000052  ( 0.000043  0.007190 -0.000038)
 65:   1441.71   0.000000    0.00  0.000000  (-0.000043 -0.000036 -0.000059)
 66:   1441.71   0.000070    0.35  0.000015  ( 0.000039  0.000079 -0.003895)
 67:   1442.45   0.000162    0.82  0.000035  ( 0.005918  0.000000  0.000014)
 68:   1448.15   0.000000    0.00  0.000000  ( 0.000096  0.000110 -0.000011)
 69:   1448.23   0.000074    0.38  0.000016  (-0.000046 -0.000242 -0.003995)
 70:   1449.68   0.000293    1.48  0.000063  ( 0.000005 -0.007948  0.000068)
 71:   1453.95   0.001185    5.99  0.000254  ( 0.015945 -0.000002  0.000002)
 72:   1462.19   0.004221   21.33  0.000901  (-0.000000 -0.030016  0.000078)
 73:   1472.00   0.000000    0.00  0.000000  (-0.000077  0.000068 -0.000014)
 74:   1472.16   0.003542   17.90  0.000751  ( 0.000046 -0.000102 -0.027400)
 75:   1476.38   0.000046    0.23  0.000010  (-0.003103 -0.000006 -0.000053)
 76:   1478.28   0.001008    5.09  0.000213  ( 0.000031  0.014588 -0.000071)
 77:   1478.65   0.001941    9.81  0.000410  (-0.020239  0.000021 -0.000081)
 78:   1489.29   0.000040    0.20  0.000008  (-0.000001  0.002884 -0.000032)
 79:   1636.60   0.037442  189.22  0.007139  ( 0.084495  0.000002  0.000017)
 80:   1654.19   0.002871   14.51  0.000542  ( 0.000004 -0.023272 -0.000024)
 81:   3071.29   0.001079    5.45  0.000110  ( 0.010467 -0.000315  0.000049)
 82:   3071.31   0.004631   23.40  0.000471  ( 0.000153  0.021691  0.000086)
 83:   3072.82   0.000075    0.38  0.000008  ( 0.000037  0.000051 -0.002761)
 84:   3072.83   0.006532   33.01  0.000663  ( 0.000018  0.000078 -0.025755)
 85:   3076.45   0.000519    2.62  0.000053  (-0.007255 -0.000043  0.000034)
 86:   3076.51   0.000227    1.15  0.000023  ( 0.000069 -0.004800  0.000031)
 87:   3174.82   0.003857   19.49  0.000379  (-0.000011 -0.000016  0.019471)
 88:   3174.94   0.000000    0.00  0.000000  (-0.000019 -0.000007  0.000133)
 89:   3179.27   0.003270   16.53  0.000321  (-0.000036 -0.000223  0.017915)
 90:   3179.28   0.000006    0.03  0.000001  (-0.000061 -0.000087 -0.000779)
 91:   3180.27   0.000560    2.83  0.000055  ( 0.007372  0.000742  0.000068)
 92:   3180.29   0.007888   39.86  0.000774  (-0.000198  0.027819  0.000150)
 93:   3184.71   0.001814    9.17  0.000178  ( 0.000019 -0.000043 -0.013333)
 94:   3184.72   0.000004    0.02  0.000000  (-0.000045 -0.000008 -0.000594)
 95:   3185.25   0.000032    0.16  0.000003  (-0.001784  0.000015  0.000020)
 96:   3185.29   0.002103   10.63  0.000206  (-0.000000  0.014353 -0.000005)
 97:   3189.94   0.009642   48.73  0.000943  ( 0.030713 -0.000017  0.000020)
 98:   3190.05   0.000775    3.92  0.000076  (-0.000066 -0.008707  0.000030)
 99:   3306.58   0.004746   23.98  0.000448  ( 0.021163  0.000001  0.000003)
100:   3323.61   0.007143   36.10  0.000671  (-0.000002  0.025897  0.000024)
101:   3335.77   0.007762   39.22  0.000726  ( 0.000000 -0.026946 -0.000026)

* The epsilon (eps) is given for a Dirac delta lineshape.
** The dipole moment derivative (T) already includes vibrational overlap.

The first frequency considered to be a vibration is 6
The total number of vibrations considered is 96


--------------------------
THERMOCHEMISTRY AT 298.15K
--------------------------

Temperature         ... 298.15 K
Pressure            ... 1.00 atm
Total Mass          ... 181.30 AMU

Throughout the following assumptions are being made:
  (1) The electronic state is orbitally nondegenerate
  (2) There are no thermally accessible electronically excited states
  (3) Hindered rotations indicated by low frequency modes are not
      treated as such but are treated as vibrations and this may
      cause some error
  (4) All equations used are the standard statistical mechanics
      equations for an ideal gas
  (5) All vibrations are strictly harmonic

freq.      26.23  E(vib)   ...       0.56 
freq.      38.65  E(vib)   ...       0.54 
freq.     120.25  E(vib)   ...       0.44 
freq.     146.44  E(vib)   ...       0.41 
freq.     148.79  E(vib)   ...       0.41 
freq.     223.75  E(vib)   ...       0.33 
freq.     229.82  E(vib)   ...       0.32 
freq.     256.47  E(vib)   ...       0.30 
freq.     262.39  E(vib)   ...       0.29 
freq.     271.06  E(vib)   ...       0.29 
freq.     278.70  E(vib)   ...       0.28 
freq.     330.16  E(vib)   ...       0.24 
freq.     332.33  E(vib)   ...       0.24 
freq.     344.21  E(vib)   ...       0.23 
freq.     354.39  E(vib)   ...       0.22 
freq.     365.81  E(vib)   ...       0.22 
freq.     371.56  E(vib)   ...       0.21 
freq.     401.19  E(vib)   ...       0.19 
freq.     443.61  E(vib)   ...       0.17 
freq.     468.55  E(vib)   ...       0.16 
freq.     469.90  E(vib)   ...       0.16 
freq.     520.27  E(vib)   ...       0.13 
freq.     578.05  E(vib)   ...       0.11 
freq.     639.38  E(vib)   ...       0.09 
freq.     678.70  E(vib)   ...       0.08 
freq.     692.06  E(vib)   ...       0.07 
freq.     774.75  E(vib)   ...       0.05 
freq.     845.55  E(vib)   ...       0.04 
freq.     849.41  E(vib)   ...       0.04 
freq.     891.59  E(vib)   ...       0.03 
freq.     923.39  E(vib)   ...       0.03 
freq.     948.44  E(vib)   ...       0.03 
freq.     948.55  E(vib)   ...       0.03 
freq.     959.04  E(vib)   ...       0.03 
freq.     959.69  E(vib)   ...       0.03 
freq.     968.05  E(vib)   ...       0.03 
freq.     968.39  E(vib)   ...       0.03 
freq.    1023.17  E(vib)   ...       0.02 
freq.    1040.51  E(vib)   ...       0.02 
freq.    1049.85  E(vib)   ...       0.02 
freq.    1050.67  E(vib)   ...       0.02 
freq.    1054.06  E(vib)   ...       0.02 
freq.    1054.71  E(vib)   ...       0.02 
freq.    1126.35  E(vib)   ...       0.01 
freq.    1151.16  E(vib)   ...       0.01 
freq.    1222.80  E(vib)   ...       0.01 
freq.    1236.26  E(vib)   ...       0.01 
freq.    1266.05  E(vib)   ...       0.01 
freq.    1269.85  E(vib)   ...       0.01 
freq.    1277.58  E(vib)   ...       0.01 
freq.    1279.68  E(vib)   ...       0.01 
freq.    1304.25  E(vib)   ...       0.01 
freq.    1356.15  E(vib)   ...       0.01 
freq.    1396.08  E(vib)   ...       0.00 
freq.    1396.30  E(vib)   ...       0.00 
freq.    1401.35  E(vib)   ...       0.00 
freq.    1401.65  E(vib)   ...       0.00 
freq.    1413.50  E(vib)   ...       0.00 
freq.    1413.71  E(vib)   ...       0.00 
freq.    1441.71  E(vib)   ...       0.00 
freq.    1441.71  E(vib)   ...       0.00 
freq.    1442.45  E(vib)   ...       0.00 
freq.    1448.15  E(vib)   ...       0.00 
freq.    1448.23  E(vib)   ...       0.00 
freq.    1449.68  E(vib)   ...       0.00 
freq.    1453.95  E(vib)   ...       0.00 
freq.    1462.19  E(vib)   ...       0.00 
freq.    1472.00  E(vib)   ...       0.00 
freq.    1472.16  E(vib)   ...       0.00 
freq.    1476.38  E(vib)   ...       0.00 
freq.    1478.28  E(vib)   ...       0.00 
freq.    1478.65  E(vib)   ...       0.00 
freq.    1489.29  E(vib)   ...       0.00 
freq.    1636.60  E(vib)   ...       0.00 
freq.    1654.19  E(vib)   ...       0.00 
freq.    3071.29  E(vib)   ...       0.00 
freq.    3071.31  E(vib)   ...       0.00 
freq.    3072.82  E(vib)   ...       0.00 
freq.    3072.83  E(vib)   ...       0.00 
freq.    3076.45  E(vib)   ...       0.00 
freq.    3076.51  E(vib)   ...       0.00 
freq.    3174.82  E(vib)   ...       0.00 
freq.    3174.94  E(vib)   ...       0.00 
freq.    3179.27  E(vib)   ...       0.00 
freq.    3179.28  E(vib)   ...       0.00 
freq.    3180.27  E(vib)   ...       0.00 
freq.    3180.29  E(vib)   ...       0.00 
freq.    3184.71  E(vib)   ...       0.00 
freq.    3184.72  E(vib)   ...       0.00 
freq.    3185.25  E(vib)   ...       0.00 
freq.    3185.29  E(vib)   ...       0.00 
freq.    3189.94  E(vib)   ...       0.00 
freq.    3190.05  E(vib)   ...       0.00 
freq.    3306.58  E(vib)   ...       0.00 
freq.    3323.61  E(vib)   ...       0.00 
freq.    3335.77  E(vib)   ...       0.00 

------------
INNER ENERGY
------------

The inner energy is: U= E(el) + E(ZPE) + E(vib) + E(rot) + E(trans)
    E(el)   - is the total energy from the electronic structure calculation
              = E(kin-el) + E(nuc-el) + E(el-el) + E(nuc-nuc)
    E(ZPE)  - the the zero temperature vibrational energy from the frequency calculation
    E(vib)  - the the finite temperature correction to E(ZPE) due to population
              of excited vibrational states
    E(rot)  - is the rotational thermal energy
    E(trans)- is the translational thermal energy

Summary of contributions to the inner energy U:
Electronic energy                ...   -540.69432740 Eh
Zero point energy                ...      0.31109953 Eh     195.22 kcal/mol
Thermal vibrational correction   ...      0.01167229 Eh       7.32 kcal/mol
Thermal rotational correction    ...      0.00141627 Eh       0.89 kcal/mol
Thermal translational correction ...      0.00141627 Eh       0.89 kcal/mol
-----------------------------------------------------------------------
Total thermal energy                   -540.36872304 Eh


Summary of corrections to the electronic energy:
(perhaps to be used in another calculation)
Total thermal correction                  0.01450483 Eh       9.10 kcal/mol
Non-thermal (ZPE) correction              0.31109953 Eh     195.22 kcal/mol
-----------------------------------------------------------------------
Total correction                          0.32560436 Eh     204.32 kcal/mol


--------
ENTHALPY
--------

The enthalpy is H = U + kB*T
                kB is Boltzmann's constant
Total free energy                 ...   -540.36872304 Eh 
Thermal Enthalpy correction       ...      0.00094421 Eh       0.59 kcal/mol
-----------------------------------------------------------------------
Total Enthalpy                    ...   -540.36777883 Eh


Note: Only C1 symmetry has been detected, increase convergence thresholds 
      if your molecule has a higher symmetry. Symmetry factor of 1.0 is   
      used for the rotational entropy correction. 
 

Note: Rotational entropy computed according to Herzberg 
Infrared and Raman Spectra, Chapter V,1, Van Nostrand Reinhold, 1945 
Point Group:  C1, Symmetry Number:   1  
Rotational constants in cm-1:     0.055421     0.014781     0.013815 

Vibrational entropy computed according to the QRRHO of S. Grimme
Chem.Eur.J. 2012 18 9955


-------
ENTROPY
-------

The entropy contributions are T*S = T*(S(el)+S(vib)+S(rot)+S(trans))
     S(el)   - electronic entropy
     S(vib)  - vibrational entropy
     S(rot)  - rotational entropy
     S(trans)- translational entropy
The entropies will be listed as multiplied by the temperature to get
units of energy

Electronic entropy                ...      0.00000000 Eh      0.00 kcal/mol
Vibrational entropy               ...      0.01980470 Eh     12.43 kcal/mol
Rotational entropy                ...      0.01488755 Eh      9.34 kcal/mol
Translational entropy             ...      0.01971392 Eh     12.37 kcal/mol
-----------------------------------------------------------------------
Final entropy term                ...      0.05440617 Eh     34.14 kcal/mol

In case the symmetry of your molecule has not been determined correctly
or in case you have a reason to use a different symmetry number we print 
out the resulting rotational entropy values for sn=1,12 :
 --------------------------------------------------------
|  sn= 1 | S(rot)=       0.01488755 Eh      9.34 kcal/mol|
|  sn= 2 | S(rot)=       0.01423309 Eh      8.93 kcal/mol|
|  sn= 3 | S(rot)=       0.01385026 Eh      8.69 kcal/mol|
|  sn= 4 | S(rot)=       0.01357863 Eh      8.52 kcal/mol|
|  sn= 5 | S(rot)=       0.01336794 Eh      8.39 kcal/mol|
|  sn= 6 | S(rot)=       0.01319580 Eh      8.28 kcal/mol|
|  sn= 7 | S(rot)=       0.01305025 Eh      8.19 kcal/mol|
|  sn= 8 | S(rot)=       0.01292418 Eh      8.11 kcal/mol|
|  sn= 9 | S(rot)=       0.01281297 Eh      8.04 kcal/mol|
|  sn=10 | S(rot)=       0.01271349 Eh      7.98 kcal/mol|
|  sn=11 | S(rot)=       0.01262350 Eh      7.92 kcal/mol|
|  sn=12 | S(rot)=       0.01254134 Eh      7.87 kcal/mol|
 --------------------------------------------------------


-------------------
GIBBS FREE ENERGY
-------------------

The Gibbs free energy is G = H - T*S

Total enthalpy                    ...   -540.36777883 Eh 
Total entropy correction          ...     -0.05440617 Eh    -34.14 kcal/mol
-----------------------------------------------------------------------
Final Gibbs free energy         ...   -540.42218500 Eh

For completeness - the Gibbs free energy minus the electronic energy
G-E(el)                           ...      0.27214239 Eh    170.77 kcal/mol


Timings for individual modules:

Sum of individual times         ...     5648.248 sec (=  94.137 min)
GTO integral calculation        ...        2.476 sec (=   0.041 min)   0.0 %
SCF iterations                  ...     2475.972 sec (=  41.266 min)  43.8 %
SCF Gradient evaluation         ...      642.643 sec (=  10.711 min)  11.4 %
Geometry relaxation             ...        0.462 sec (=   0.008 min)   0.0 %
Analytical frequency calculation...     2526.696 sec (=  42.112 min)  44.7 %
                             ****ORCA TERMINATED NORMALLY****
TOTAL RUN TIME: 0 days 1 hours 34 minutes 9 seconds 231 msec
