
                                 *****************
                                 * O   R   C   A *
                                 *****************

                                            #,                                       
                                            ###                                      
                                            ####                                     
                                            #####                                    
                                            ######                                   
                                           ########,                                 
                                     ,,################,,,,,                         
                               ,,#################################,,                 
                          ,,##########################################,,             
                       ,#########################################, ''#####,          
                    ,#############################################,,   '####,        
                  ,##################################################,,,,####,       
                ,###########''''           ''''###############################       
              ,#####''   ,,,,##########,,,,          '''####'''          '####       
            ,##' ,,,,###########################,,,                        '##       
           ' ,,###''''                  '''############,,,                           
         ,,##''                                '''############,,,,        ,,,,,,###''
      ,#''                                            '''#######################'''  
     '                                                          ''''####''''         
             ,#######,   #######,   ,#######,      ##                                
            ,#'     '#,  ##    ##  ,#'     '#,    #''#        ######   ,####,        
            ##       ##  ##   ,#'  ##            #'  '#       #        #'  '#        
            ##       ##  #######   ##           ,######,      #####,   #    #        
            '#,     ,#'  ##    ##  '#,     ,#' ,#      #,         ##   #,  ,#        
             '#######'   ##     ##  '#######'  #'      '#     #####' # '####'        



                  #######################################################
                  #                        -***-                        #
                  #          Department of theory and spectroscopy      #
                  #    Directorship and core code : Frank Neese         #
                  #        Max Planck Institute fuer Kohlenforschung    #
                  #                Kaiser Wilhelm Platz 1               #
                  #                 D-45470 Muelheim/Ruhr               #
                  #                      Germany                        #
                  #                                                     #
                  #                  All rights reserved                #
                  #                        -***-                        #
                  #######################################################


                         Program Version 5.0.4 -  RELEASE  -


 With contributions from (in alphabetic order):
   Daniel Aravena         : Magnetic Suceptibility
   Michael Atanasov       : Ab Initio Ligand Field Theory (pilot matlab implementation)
   Alexander A. Auer      : GIAO ZORA, VPT2 properties, NMR spectrum
   Ute Becker             : Parallelization
   Giovanni Bistoni       : ED, misc. LED, open-shell LED, HFLD
   Martin Brehm           : Molecular dynamics
   Dmytro Bykov           : SCF Hessian
   Vijay G. Chilkuri      : MRCI spin determinant printing, contributions to CSF-ICE
   Dipayan Datta          : RHF DLPNO-CCSD density
   Achintya Kumar Dutta   : EOM-CC, STEOM-CC
   Dmitry Ganyushin       : Spin-Orbit,Spin-Spin,Magnetic field MRCI
   Miquel Garcia          : C-PCM and meta-GGA Hessian, CC/C-PCM, Gaussian charge scheme
   Yang Guo               : DLPNO-NEVPT2, F12-NEVPT2, CIM, IAO-localization
   Andreas Hansen         : Spin unrestricted coupled pair/coupled cluster methods
   Benjamin Helmich-Paris : MC-RPA, TRAH-SCF, COSX integrals
   Lee Huntington         : MR-EOM, pCC
   Robert Izsak           : Overlap fitted RIJCOSX, COSX-SCS-MP3, EOM
   Marcus Kettner         : VPT2
   Christian Kollmar      : KDIIS, OOCD, Brueckner-CCSD(T), CCSD density, CASPT2, CASPT2-K
   Simone Kossmann        : Meta GGA functionals, TD-DFT gradient, OOMP2, MP2 Hessian
   Martin Krupicka        : Initial AUTO-CI
   Lucas Lang             : DCDCAS
   Marvin Lechner         : AUTO-CI (C++ implementation), FIC-MRCC
   Dagmar Lenk            : GEPOL surface, SMD
   Dimitrios Liakos       : Extrapolation schemes; Compound Job, initial MDCI parallelization
   Dimitrios Manganas     : Further ROCIS development; embedding schemes
   Dimitrios Pantazis     : SARC Basis sets
   Anastasios Papadopoulos: AUTO-CI, single reference methods and gradients
   Taras Petrenko         : DFT Hessian,TD-DFT gradient, ASA, ECA, R-Raman, ABS, FL, XAS/XES, NRVS
   Peter Pinski           : DLPNO-MP2, DLPNO-MP2 Gradient
   Christoph Reimann      : Effective Core Potentials
   Marius Retegan         : Local ZFS, SOC
   Christoph Riplinger    : Optimizer, TS searches, QM/MM, DLPNO-CCSD(T), (RO)-DLPNO pert. Triples
   Tobias Risthaus        : Range-separated hybrids, TD-DFT gradient, RPA, STAB
   Michael Roemelt        : Original ROCIS implementation
   Masaaki Saitow         : Open-shell DLPNO-CCSD energy and density
   Barbara Sandhoefer     : DKH picture change effects
   Avijit Sen             : IP-ROCIS
   Kantharuban Sivalingam : CASSCF convergence, NEVPT2, FIC-MRCI
   Bernardo de Souza      : ESD, SOC TD-DFT
   Georgi Stoychev        : AutoAux, RI-MP2 NMR, DLPNO-MP2 response
   Willem Van den Heuvel  : Paramagnetic NMR
   Boris Wezisla          : Elementary symmetry handling
   Frank Wennmohs         : Technical directorship


 We gratefully acknowledge several colleagues who have allowed us to
 interface, adapt or use parts of their codes:
   Stefan Grimme, W. Hujo, H. Kruse, P. Pracht,  : VdW corrections, initial TS optimization,
                  C. Bannwarth, S. Ehlert          DFT functionals, gCP, sTDA/sTD-DF
   Ed Valeev, F. Pavosevic, A. Kumar             : LibInt (2-el integral package), F12 methods
   Garnet Chan, S. Sharma, J. Yang, R. Olivares  : DMRG
   Ulf Ekstrom                                   : XCFun DFT Library
   Mihaly Kallay                                 : mrcc  (arbitrary order and MRCC methods)
   Jiri Pittner, Ondrej Demel                    : Mk-CCSD
   Frank Weinhold                                : gennbo (NPA and NBO analysis)
   Christopher J. Cramer and Donald G. Truhlar   : smd solvation model
   Lars Goerigk                                  : TD-DFT with DH, B97 family of functionals
   V. Asgeirsson, H. Jonsson                     : NEB implementation
   FAccTs GmbH                                   : IRC, NEB, NEB-TS, DLPNO-Multilevel, CI-OPT
                                                   MM, QMMM, 2- and 3-layer-ONIOM, Crystal-QMMM,
                                                   LR-CPCM, SF, NACMEs, symmetry and pop. for TD-DFT,
                                                   nearIR, NL-DFT gradient (VV10), updates on ESD,
                                                   ML-optimized integration grids
   S Lehtola, MJT Oliveira, MAL Marques          : LibXC Library
   Liviu Ungur et al                             : ANISO software


 Your calculation uses the libint2 library for the computation of 2-el integrals
 For citations please refer to: http://libint.valeyev.net

 Your ORCA version has been built with support for libXC version: 5.1.0
 For citations please refer to: https://tddft.org/programs/libxc/

 This ORCA versions uses:
   CBLAS   interface :  Fast vector & matrix operations
   LAPACKE interface :  Fast linear algebra routines
   SCALAPACK package :  Parallel linear algebra routines
   Shared memory     :  Shared parallel matrices
   BLAS/LAPACK       :  OpenBLAS 0.3.15  USE64BITINT DYNAMIC_ARCH NO_AFFINITY SkylakeX SINGLE_THREADED
        Core in use  :  SkylakeX
   Copyright (c) 2011-2014, The OpenBLAS Project




***************************************
The coordinates will be read from file: 5_prot_aq_4.xyz
***************************************


Your calculation utilizes the atom-pairwise dispersion correction
based on tight binding partial charges (D4)
Cite in your paper:
E.Caldeweyher, C.Bannwarth, S.Grimme, J.Chem.Phys., (2017), 147, 034112.
E.Caldeweyher, S.Ehlert, A.Hansen, H.Neugebauer, S.Grimme, J.Chem.Phys., (2018), in progress.
   

XCFun DFT library Copyright 2009-2010 Ulf Ekstrom and contributors.
See http://admol.org/xcfun for more information.
This is free software; see the source code for copying conditions.
There is ABSOLUTELY NO WARRANTY; not even for MERCHANTABILITY or FITNESS FOR A PARTICULAR PURPOSE.
For details see the documentation.
Scientific users of this library should cite U. Ekstrom, L. Visscher, R. Bast, A. J. Thorvaldsen and K. Ruud;
J.Chem.Theor.Comp. 2010, DOI: 10.1021/ct100117s
XCFun Version 0.99 

================================================================================

----- Orbital basis set information -----
Your calculation utilizes the basis: def2-SVP
   F. Weigend and R. Ahlrichs, Phys. Chem. Chem. Phys. 7, 3297 (2005).

----- AuxJ basis set information -----
Your calculation utilizes the auxiliary basis: def2/J
   F. Weigend, Phys. Chem. Chem. Phys. 8, 1057 (2006).

================================================================================
                                        WARNINGS
                       Please study these warnings very carefully!
================================================================================


WARNING: Geometry Optimization
  ===> : Switching off AutoStart
         For restart on a previous wavefunction, please use MOREAD

INFO   : the flag for use of the SHARK integral package has been found!

================================================================================
                                       INPUT FILE
================================================================================
NAME = 5_prot_aq_4.inp
|  1> # ORCA 5.0.4 - /users/bwb16179/postgrad/2024_03/DFT_Crest_Conformers/Opt/prot/5_prot_aq_4.inp # write input file
|  2> # Basic Mode
|  3> #
|  4> ! Opt Freq wB97X Def2-SVP D4 SlowConv TightSCF Defgrid2 Def2/J RIJCOSX CPCM(Water)
|  5> 
|  6> 
|  7> 
|  8> %maxcore 4500
|  9> 
| 10> %geom
| 11> Maxiter 150
| 12> END
| 13> 
| 14> * xyzfile 1 1 5_prot_aq_4.xyz
| 15> 
| 16>                          ****END OF INPUT****
================================================================================

                       *****************************
                       * Geometry Optimization Run *
                       *****************************

Geometry optimization settings:
Update method            Update   .... BFGS
Choice of coordinates    CoordSys .... Z-matrix Internals
Initial Hessian          InHess   .... Almoef's Model

Convergence Tolerances:
Energy Change            TolE     ....  5.0000e-06 Eh
Max. Gradient            TolMAXG  ....  3.0000e-04 Eh/bohr
RMS Gradient             TolRMSG  ....  1.0000e-04 Eh/bohr
Max. Displacement        TolMAXD  ....  4.0000e-03 bohr
RMS Displacement         TolRMSD  ....  2.0000e-03 bohr
Strict Convergence                ....  False
------------------------------------------------------------------------------
                        ORCA OPTIMIZATION COORDINATE SETUP
------------------------------------------------------------------------------

The optimization will be done in new redundant internal coordinates
Making redundant internal coordinates   ...  (new redundants) done
Evaluating the initial hessian          ...  (Almloef) done
Evaluating the coordinates              ...  done
Calculating the B-matrix                .... done
Calculating the G-matrix                .... done
Diagonalizing the G-matrix              .... done
Small eigenvalue found = 9.678e-03
Small eigenvalue found = 2.484e-02
The first mode is                       ....   87
The number of degrees of freedom        ....   96

    -----------------------------------------------------------------
                    Redundant Internal Coordinates


    -----------------------------------------------------------------
         Definition                    Initial Value    Approx d2E/dq
    -----------------------------------------------------------------
      1. B(C   1,N   0)                  1.3289         0.700461   
      2. B(N   2,C   1)                  1.3312         0.694591   
      3. B(H   3,C   1)                  1.0694         0.388455   
      4. B(C   4,N   2)                  1.3617         0.620795   
      5. B(C   5,C   4)                  1.3598         0.698217   
      6. B(C   5,N   0)                  1.3624         0.619269   
      7. B(C   6,N   0)                  1.4736         0.411614   
      8. B(C   7,N   2)                  1.4750         0.409484   
      9. B(C   8,C   6)                  1.5256         0.379677   
     10. B(C   9,C   6)                  1.5296         0.374086   
     11. B(C  10,C   6)                  1.5299         0.373773   
     12. B(C  11,C   7)                  1.5305         0.372930   
     13. B(C  12,C   7)                  1.5275         0.376994   
     14. B(C  13,C   7)                  1.5286         0.375536   
     15. B(H  14,C   4)                  1.0689         0.389084   
     16. B(H  15,C   5)                  1.0694         0.388341   
     17. B(H  16,C   8)                  1.0875         0.363469   
     18. B(H  17,C   8)                  1.0861         0.365292   
     19. B(H  18,C   8)                  1.0875         0.363456   
     20. B(H  19,C  10)                  1.0863         0.365055   
     21. B(H  20,C  10)                  1.0877         0.363143   
     22. B(H  21,C  10)                  1.0857         0.365824   
     23. B(H  22,C  12)                  1.0875         0.363459   
     24. B(H  23,C  12)                  1.0859         0.365569   
     25. B(H  24,C  12)                  1.0864         0.364950   
     26. B(H  25,C   9)                  1.0863         0.365057   
     27. B(H  26,C   9)                  1.0857         0.365770   
     28. B(H  27,C   9)                  1.0877         0.363179   
     29. B(H  28,C  11)                  1.0857         0.365858   
     30. B(H  29,C  11)                  1.0876         0.363253   
     31. B(H  30,C  11)                  1.0875         0.363371   
     32. B(H  31,C  13)                  1.0866         0.364666   
     33. B(H  32,C  13)                  1.0859         0.365574   
     34. B(H  33,C  13)                  1.0876         0.363257   
     35. A(C   1,N   0,C   5)          107.4435         0.437822   
     36. A(C   1,N   0,C   6)          127.9198         0.407019   
     37. A(C   5,N   0,C   6)          124.6363         0.398274   
     38. A(N   0,C   1,H   3)          125.1588         0.362722   
     39. A(N   0,C   1,N   2)          110.0592         0.447003   
     40. A(N   2,C   1,H   3)          124.7816         0.362201   
     41. A(C   1,N   2,C   4)          107.4587         0.437352   
     42. A(C   1,N   2,C   7)          125.9465         0.406042   
     43. A(C   4,N   2,C   7)          126.4875         0.398083   
     44. A(C   5,C   4,H  14)          129.0431         0.364894   
     45. A(N   2,C   4,H  14)          123.4788         0.355441   
     46. A(N   2,C   4,C   5)          107.4777         0.440656   
     47. A(N   0,C   5,H  15)          123.3083         0.355178   
     48. A(C   4,C   5,H  15)          129.1322         0.364775   
     49. A(N   0,C   5,C   4)          107.5595         0.440460   
     50. A(N   0,C   6,C  10)          107.7511         0.367165   
     51. A(N   0,C   6,C   9)          107.8958         0.367218   
     52. A(C   8,C   6,C   9)          110.0336         0.364445   
     53. A(N   0,C   6,C   8)          109.9221         0.368154   
     54. A(C   9,C   6,C  10)          111.1302         0.363469   
     55. A(C   8,C   6,C  10)          110.0514         0.364393   
     56. A(C  12,C   7,C  13)          109.8581         0.364244   
     57. A(C  11,C   7,C  13)          110.7613         0.363569   
     58. A(N   2,C   7,C  13)          109.1272         0.367135   
     59. A(C  11,C   7,C  12)          110.5887         0.363810   
     60. A(N   2,C   7,C  12)          109.1221         0.367379   
     61. A(N   2,C   7,C  11)          107.3234         0.366697   
     62. A(C   6,C   8,H  18)          111.4740         0.325680   
     63. A(H  16,C   8,H  17)          107.5898         0.291922   
     64. A(C   6,C   8,H  17)          108.8249         0.325950   
     65. A(C   6,C   8,H  16)          111.4718         0.325682   
     66. A(H  17,C   8,H  18)          107.5717         0.291920   
     67. A(H  16,C   8,H  18)          109.7477         0.291690   
     68. A(H  26,C   9,H  27)          108.2015         0.291945   
     69. A(H  25,C   9,H  27)          108.7141         0.291855   
     70. A(C   6,C   9,H  27)          110.7719         0.324846   
     71. A(H  25,C   9,H  26)          107.9400         0.292182   
     72. A(C   6,C   9,H  26)          109.4222         0.325225   
     73. A(C   6,C   9,H  25)          111.6858         0.325121   
     74. A(H  20,C  10,H  21)          108.2027         0.291947   
     75. A(H  19,C  10,H  21)          107.9584         0.292189   
     76. A(C   6,C  10,H  21)          109.4485         0.325189   
     77. A(H  19,C  10,H  20)          108.7041         0.291851   
     78. A(C   6,C  10,H  20)          110.7660         0.324796   
     79. A(C   6,C  10,H  19)          111.6571         0.325076   
     80. A(H  29,C  11,H  30)          108.6842         0.291652   
     81. A(H  28,C  11,H  30)          108.2732         0.291980   
     82. A(C   7,C  11,H  30)          110.9121         0.324709   
     83. A(H  28,C  11,H  29)          108.2955         0.291966   
     84. A(C   7,C  11,H  29)          111.0496         0.324691   
     85. A(C   7,C  11,H  28)          109.5444         0.325073   
     86. A(H  23,C  12,H  24)          107.3180         0.292143   
     87. A(H  22,C  12,H  24)          109.3669         0.291877   
     88. A(C   7,C  12,H  24)          111.8149         0.325520   
     89. A(H  22,C  12,H  23)          108.0171         0.291955   
     90. A(C   7,C  12,H  23)          109.1446         0.325610   
     91. A(C   7,C  12,H  22)          111.0359         0.325301   
     92. A(H  31,C  13,H  33)          109.3536         0.291816   
     93. A(C   7,C  13,H  33)          110.9513         0.325064   
     94. A(H  31,C  13,H  32)          107.2577         0.292108   
     95. A(C   7,C  13,H  32)          109.1537         0.325404   
     96. A(H  32,C  13,H  33)          107.9564         0.291930   
     97. A(C   7,C  13,H  31)          112.0167         0.325271   
     98. D(H   3,C   1,N   0,C   6)      0.2166         0.040607   
     99. D(N   2,C   1,N   0,C   6)   -179.9919         0.040607   
    100. D(N   2,C   1,N   0,C   5)     -0.2089         0.040607   
    101. D(H   3,C   1,N   0,C   5)    179.9996         0.040607   
    102. D(C   7,N   2,C   1,N   0)    176.7828         0.039863   
    103. D(C   4,N   2,C   1,N   0)      0.3609         0.039863   
    104. D(C   4,N   2,C   1,H   3)   -179.8466         0.039863   
    105. D(C   7,N   2,C   1,H   3)     -3.4248         0.039863   
    106. D(H  14,C   4,N   2,C   1)    179.8576         0.031213   
    107. D(C   5,C   4,N   2,C   1)     -0.3689         0.031213   
    108. D(H  14,C   4,N   2,C   7)      3.4606         0.031213   
    109. D(C   5,C   4,N   2,C   7)   -176.7659         0.031213   
    110. D(H  15,C   5,N   0,C   1)    179.9189         0.031048   
    111. D(C   4,C   5,N   0,C   6)    179.7654         0.031048   
    112. D(C   4,C   5,N   0,C   1)     -0.0266         0.031048   
    113. D(H  15,C   5,C   4,H  14)      0.0591         0.034320   
    114. D(N   0,C   5,C   4,H  14)   -179.9996         0.034320   
    115. D(N   0,C   5,C   4,N   2)      0.2436         0.034320   
    116. D(H  15,C   5,C   4,N   2)   -179.6976         0.034320   
    117. D(H  15,C   5,N   0,C   6)     -0.2891         0.031048   
    118. D(C  10,C   6,N   0,C   5)    -60.1691         0.014452   
    119. D(C  10,C   6,N   0,C   1)    119.5794         0.014452   
    120. D(C   9,C   6,N   0,C   5)     59.9053         0.014452   
    121. D(C   9,C   6,N   0,C   1)   -120.3462         0.014452   
    122. D(C   8,C   6,N   0,C   5)    179.9010         0.014452   
    123. D(C   8,C   6,N   0,C   1)     -0.3505         0.014452   
    124. D(C  12,C   7,N   2,C   4)    -29.6032         0.014305   
    125. D(C  11,C   7,N   2,C   4)     90.2661         0.014305   
    126. D(C  11,C   7,N   2,C   1)    -85.4873         0.014305   
    127. D(C  13,C   7,N   2,C   1)     34.5916         0.014305   
    128. D(C  12,C   7,N   2,C   1)    154.6434         0.014305   
    129. D(C  13,C   7,N   2,C   4)   -149.6551         0.014305   
    130. D(H  18,C   8,C   6,C  10)    -56.8597         0.011490   
    131. D(H  18,C   8,C   6,C   9)   -179.6489         0.011490   
    132. D(H  18,C   8,C   6,N   0)     61.6624         0.011490   
    133. D(H  17,C   8,C   6,C   9)    -61.1681         0.011490   
    134. D(H  17,C   8,C   6,C  10)     61.6211         0.011490   
    135. D(H  17,C   8,C   6,N   0)   -179.8569         0.011490   
    136. D(H  16,C   8,C   6,C  10)   -179.8773         0.011490   
    137. D(H  16,C   8,C   6,C   9)     57.3335         0.011490   
    138. D(H  16,C   8,C   6,N   0)    -61.3553         0.011490   
    139. D(H  27,C   9,C   6,C  10)    177.0524         0.011172   
    140. D(H  27,C   9,C   6,C   8)    -60.7953         0.011172   
    141. D(H  27,C   9,C   6,N   0)     59.1301         0.011172   
    142. D(H  26,C   9,C   6,C  10)    -63.7402         0.011172   
    143. D(H  26,C   9,C   6,C   8)     58.4121         0.011172   
    144. D(H  26,C   9,C   6,N   0)    178.3375         0.011172   
    145. D(H  25,C   9,C   6,C  10)     55.7119         0.011172   
    146. D(H  25,C   9,C   6,N   0)    -62.2105         0.011172   
    147. D(H  25,C   9,C   6,C   8)    177.8642         0.011172   
    148. D(H  21,C  10,C   6,C   8)    -58.0790         0.011155   
    149. D(H  21,C  10,C   6,N   0)   -177.9271         0.011155   
    150. D(H  20,C  10,C   6,C   9)   -176.7152         0.011155   
    151. D(H  20,C  10,C   6,C   8)     61.1429         0.011155   
    152. D(H  20,C  10,C   6,N   0)    -58.7052         0.011155   
    153. D(H  19,C  10,C   6,C   9)    -55.4113         0.011155   
    154. D(H  19,C  10,C   6,C   8)   -177.5533         0.011155   
    155. D(H  21,C  10,C   6,C   9)     64.0630         0.011155   
    156. D(H  19,C  10,C   6,N   0)     62.5987         0.011155   
    157. D(H  29,C  11,C   7,N   2)     61.2730         0.011107   
    158. D(H  28,C  11,C   7,C  13)     61.8139         0.011107   
    159. D(H  28,C  11,C   7,C  12)    -60.2236         0.011107   
    160. D(H  28,C  11,C   7,N   2)   -179.1529         0.011107   
    161. D(H  30,C  11,C   7,C  13)   -178.7255         0.011107   
    162. D(H  30,C  11,C   7,C  12)     59.2370         0.011107   
    163. D(H  30,C  11,C   7,N   2)    -59.6923         0.011107   
    164. D(H  29,C  11,C   7,C  13)    -57.7602         0.011107   
    165. D(H  29,C  11,C   7,C  12)   -179.7977         0.011107   
    166. D(H  24,C  12,C   7,C  13)   -171.0658         0.011337   
    167. D(H  24,C  12,C   7,C  11)    -48.4997         0.011337   
    168. D(H  24,C  12,C   7,N   2)     69.3336         0.011337   
    169. D(H  23,C  12,C   7,C  13)    -52.4873         0.011337   
    170. D(H  23,C  12,C   7,C  11)     70.0789         0.011337   
    171. D(H  23,C  12,C   7,N   2)   -172.0878         0.011337   
    172. D(H  22,C  12,C   7,C  13)     66.4791         0.011337   
    173. D(H  22,C  12,C   7,C  11)   -170.9547         0.011337   
    174. D(H  22,C  12,C   7,N   2)    -53.1215         0.011337   
    175. D(H  33,C  13,C   7,C  12)    -66.7396         0.011254   
    176. D(H  33,C  13,C   7,C  11)    170.7963         0.011254   
    177. D(H  33,C  13,C   7,N   2)     52.8578         0.011254   
    178. D(H  32,C  13,C   7,C  12)     52.1062         0.011254   
    179. D(H  32,C  13,C   7,C  11)    -70.3579         0.011254   
    180. D(H  32,C  13,C   7,N   2)    171.7036         0.011254   
    181. D(H  31,C  13,C   7,C  12)    170.7399         0.011254   
    182. D(H  31,C  13,C   7,C  11)     48.2759         0.011254   
    183. D(H  31,C  13,C   7,N   2)    -69.6626         0.011254   
    -----------------------------------------------------------------

Number of atoms                         .... 34
Number of degrees of freedom            .... 183

         *************************************************************
         *                GEOMETRY OPTIMIZATION CYCLE   1            *
         *************************************************************
---------------------------------
CARTESIAN COORDINATES (ANGSTROEM)
---------------------------------
  N     -1.086036   -0.213912    0.036611
  C      0.011193    0.528744   -0.065771
  N      1.092644   -0.228598    0.104288
  H      0.027000    1.581371   -0.253582
  C      0.668315   -1.505181    0.315571
  C     -0.690852   -1.495453    0.276751
  C     -2.488697    0.221249   -0.084580
  C      2.492361    0.223785   -0.004401
  C     -2.546127    1.722356   -0.350670
  C     -3.197456   -0.105209    1.231036
  C     -3.114843   -0.542858   -1.252715
  C      2.883627    0.144093   -1.481866
  C      3.380650   -0.691063    0.836618
  C      2.595451    1.660697    0.506674
  H      1.331328   -2.327209    0.480771
  H     -1.375535   -2.307049    0.404188
  H     -2.104355    2.288560    0.465926
  H     -3.586172    2.023932   -0.434211
  H     -2.053465    1.980134   -1.285248
  H     -3.126289   -1.613785   -1.071091
  H     -2.570660   -0.351250   -2.174813
  H     -4.140902   -0.215655   -1.390194
  H      3.011494   -0.763263    1.856965
  H      4.384753   -0.279044    0.871086
  H      3.454250   -1.686929    0.408824
  H     -3.205000   -1.173341    1.428618
  H     -4.228011    0.232642    1.179453
  H     -2.715450    0.400503    2.064689
  H      3.916574    0.456243   -1.601386
  H      2.257795    0.795692   -2.087410
  H      2.789671   -0.873479   -1.853968
  H      2.107710    2.366252   -0.160359
  H      3.642166    1.943713    0.565440
  H      2.167280    1.750980    1.502388

----------------------------
CARTESIAN COORDINATES (A.U.)
----------------------------
  NO LB      ZA    FRAG     MASS         X           Y           Z
   0 N     7.0000    0    14.007   -2.052310   -0.404235    0.069185
   1 C     6.0000    0    12.011    0.021151    0.999181   -0.124290
   2 N     7.0000    0    14.007    2.064797   -0.431988    0.197077
   3 H     1.0000    0     1.008    0.051023    2.988359   -0.479200
   4 C     6.0000    0    12.011    1.262932   -2.844381    0.596342
   5 C     6.0000    0    12.011   -1.305522   -2.825997    0.522983
   6 C     6.0000    0    12.011   -4.702955    0.418101   -0.159834
   7 C     6.0000    0    12.011    4.709881    0.422892   -0.008318
   8 C     6.0000    0    12.011   -4.811483    3.254781   -0.662671
   9 C     6.0000    0    12.011   -6.042316   -0.198817    2.326320
  10 C     6.0000    0    12.011   -5.886200   -1.025852   -2.367289
  11 C     6.0000    0    12.011    5.449265    0.272295   -2.800320
  12 C     6.0000    0    12.011    6.388502   -1.305920    1.580979
  13 C     6.0000    0    12.011    4.904692    3.138262    0.957476
  14 H     1.0000    0     1.008    2.515844   -4.397788    0.908526
  15 H     1.0000    0     1.008   -2.599384   -4.359691    0.763805
  16 H     1.0000    0     1.008   -3.976654    4.324752    0.880473
  17 H     1.0000    0     1.008   -6.776883    3.824677   -0.820540
  18 H     1.0000    0     1.008   -3.880486    3.741911   -2.428766
  19 H     1.0000    0     1.008   -5.907831   -3.049612   -2.024069
  20 H     1.0000    0     1.008   -4.857844   -0.663766   -4.109801
  21 H     1.0000    0     1.008   -7.825170   -0.407529   -2.627085
  22 H     1.0000    0     1.008    5.690899   -1.442359    3.509156
  23 H     1.0000    0     1.008    8.285983   -0.527316    1.646114
  24 H     1.0000    0     1.008    6.527586   -3.187833    0.772566
  25 H     1.0000    0     1.008   -6.056572   -2.217294    2.699696
  26 H     1.0000    0     1.008   -7.989783    0.439630    2.228842
  27 H     1.0000    0     1.008   -5.131456    0.756842    3.901697
  28 H     1.0000    0     1.008    7.401253    0.862175   -3.026182
  29 H     1.0000    0     1.008    4.266613    1.503640   -3.944634
  30 H     1.0000    0     1.008    5.271714   -1.650636   -3.503492
  31 H     1.0000    0     1.008    3.982995    4.471569   -0.303035
  32 H     1.0000    0     1.008    6.882697    3.673085    1.068526
  33 H     1.0000    0     1.008    4.095566    3.308872    2.839101

--------------------------------
INTERNAL COORDINATES (ANGSTROEM)
--------------------------------
 N      0   0   0     0.000000000000     0.00000000     0.00000000
 C      1   0   0     1.328882789958     0.00000000     0.00000000
 N      2   1   0     1.331173842275   110.05923972     0.00000000
 H      2   1   3     1.069367627534   125.15881929   180.20850765
 C      3   2   1     1.361748759540   107.45869440     0.36094694
 C      5   3   2     1.359756458937   107.47767445   359.63108557
 C      1   2   3     1.473604559292   127.91980723   180.00806028
 C      3   2   1     1.475016619702   125.94645614   176.78277907
 C      7   1   2     1.525589173240   109.92205805   359.64945906
 C      7   1   2     1.529627640357   107.89581992   239.65379555
 C      7   1   2     1.529855441291   107.75113660   119.57935306
 C      8   3   2     1.530470456346   107.32339530   274.51274170
 C      8   3   2     1.527519590141   109.12207372   154.64339921
 C      8   3   2     1.528574791678   109.12724483    34.59155666
 H      5   3   2     1.068927583601   123.47875312   179.85757879
 H      6   5   3     1.069447590116   129.13218495   180.30236714
 H      9   7   1     1.087465059301   111.47175375   298.64474728
 H      9   7   1     1.086103533608   108.82485429   180.14309733
 H      9   7   1     1.087474483026   111.47404533    61.66236261
 H     11   7   1     1.086279971056   111.65714360    62.59866608
 H     11   7   1     1.087709501809   110.76597763   301.29481471
 H     11   7   1     1.085706717160   109.44854397   182.07293573
 H     13   8   3     1.087472704097   111.03585174   306.87853051
 H     13   8   3     1.085896886553   109.14462511   187.91215360
 H     13   8   3     1.086357887105   111.81490951    69.33358389
 H     10   7   1     1.086278736841   111.68581408   297.78954534
 H     10   7   1     1.085747544434   109.42223535   178.33746812
 H     10   7   1     1.087682676522   110.77193884    59.13006448
 H     12   8   3     1.085681467102   109.54438795   180.84709975
 H     12   8   3     1.087626602165   111.04957030    61.27296187
 H     12   8   3     1.087538630314   110.91209614   300.30769442
 H     14   8   3     1.086569824598   112.01674271   290.33735163
 H     14   8   3     1.085893499419   109.15369945   171.70360737
 H     14   8   3     1.087624248765   110.95133425    52.85779664

---------------------------
INTERNAL COORDINATES (A.U.)
---------------------------
 N      0   0   0     0.000000000000     0.00000000     0.00000000
 C      1   0   0     2.511224537101     0.00000000     0.00000000
 N      2   1   0     2.515553998539   110.05923972     0.00000000
 H      2   1   3     2.020811952519   125.15881929   180.20850765
 C      3   2   1     2.573332218737   107.45869440     0.36094694
 C      5   3   2     2.569567316221   107.47767445   359.63108557
 C      1   2   3     2.784709046760   127.91980723   180.00806028
 C      3   2   1     2.787377454220   125.94645614   176.78277907
 C      7   1   2     2.882945730300   109.92205805   359.64945906
 C      7   1   2     2.890577327150   107.89581992   239.65379555
 C      7   1   2     2.891007808530   107.75113660   119.57935306
 C      8   3   2     2.892170018550   107.32339530   274.51274170
 C      8   3   2     2.886593689566   109.12207372   154.64339921
 C      8   3   2     2.888587731488   109.12724483    34.59155666
 H      5   3   2     2.019980389999   123.47875312   179.85757879
 H      6   5   3     2.020963059902   129.13218495   180.30236714
 H      9   7   1     2.055011142287   111.47175375   298.64474728
 H      9   7   1     2.052438231603   108.82485429   180.14309733
 H      9   7   1     2.055028950546   111.47404533    61.66236261
 H     11   7   1     2.052771650060   111.65714360    62.59866608
 H     11   7   1     2.055473071682   110.76597763   301.29481471
 H     11   7   1     2.051688357190   109.44854397   182.07293573
 H     13   8   3     2.055025588859   111.03585174   306.87853051
 H     13   8   3     2.052047725263   109.14462511   187.91215360
 H     13   8   3     2.052918890053   111.81490951    69.33358389
 H     10   7   1     2.052769317731   111.68581408   297.78954534
 H     10   7   1     2.051765509557   109.42223535   178.33746812
 H     10   7   1     2.055422379237   110.77193884    59.13006448
 H     12   8   3     2.051640641496   109.54438795   180.84709975
 H     12   8   3     2.055316414060   111.04957030    61.27296187
 H     12   8   3     2.055150171353   110.91209614   300.30769442
 H     14   8   3     2.053319393873   112.01674271   290.33735163
 H     14   8   3     2.052041324507   109.15369945   171.70360737
 H     14   8   3     2.055311966778   110.95133425    52.85779664

---------------------
BASIS SET INFORMATION
---------------------
There are 3 groups of distinct atoms

 Group   1 Type N   : 7s4p1d contracted to 3s2p1d pattern {511/31/1}
 Group   2 Type C   : 7s4p1d contracted to 3s2p1d pattern {511/31/1}
 Group   3 Type H   : 4s1p contracted to 2s1p pattern {31/1}

Atom   0N    basis set group =>   1
Atom   1C    basis set group =>   2
Atom   2N    basis set group =>   1
Atom   3H    basis set group =>   3
Atom   4C    basis set group =>   2
Atom   5C    basis set group =>   2
Atom   6C    basis set group =>   2
Atom   7C    basis set group =>   2
Atom   8C    basis set group =>   2
Atom   9C    basis set group =>   2
Atom  10C    basis set group =>   2
Atom  11C    basis set group =>   2
Atom  12C    basis set group =>   2
Atom  13C    basis set group =>   2
Atom  14H    basis set group =>   3
Atom  15H    basis set group =>   3
Atom  16H    basis set group =>   3
Atom  17H    basis set group =>   3
Atom  18H    basis set group =>   3
Atom  19H    basis set group =>   3
Atom  20H    basis set group =>   3
Atom  21H    basis set group =>   3
Atom  22H    basis set group =>   3
Atom  23H    basis set group =>   3
Atom  24H    basis set group =>   3
Atom  25H    basis set group =>   3
Atom  26H    basis set group =>   3
Atom  27H    basis set group =>   3
Atom  28H    basis set group =>   3
Atom  29H    basis set group =>   3
Atom  30H    basis set group =>   3
Atom  31H    basis set group =>   3
Atom  32H    basis set group =>   3
Atom  33H    basis set group =>   3
---------------------------------
AUXILIARY/J BASIS SET INFORMATION
---------------------------------
There are 3 groups of distinct atoms

 Group   1 Type N   : 12s5p4d2f1g contracted to 6s4p3d1f1g pattern {711111/2111/211/2/1}
 Group   2 Type C   : 12s5p4d2f1g contracted to 6s4p3d1f1g pattern {711111/2111/211/2/1}
 Group   3 Type H   : 5s2p1d contracted to 3s1p1d pattern {311/2/1}

Atom   0N    basis set group =>   1
Atom   1C    basis set group =>   2
Atom   2N    basis set group =>   1
Atom   3H    basis set group =>   3
Atom   4C    basis set group =>   2
Atom   5C    basis set group =>   2
Atom   6C    basis set group =>   2
Atom   7C    basis set group =>   2
Atom   8C    basis set group =>   2
Atom   9C    basis set group =>   2
Atom  10C    basis set group =>   2
Atom  11C    basis set group =>   2
Atom  12C    basis set group =>   2
Atom  13C    basis set group =>   2
Atom  14H    basis set group =>   3
Atom  15H    basis set group =>   3
Atom  16H    basis set group =>   3
Atom  17H    basis set group =>   3
Atom  18H    basis set group =>   3
Atom  19H    basis set group =>   3
Atom  20H    basis set group =>   3
Atom  21H    basis set group =>   3
Atom  22H    basis set group =>   3
Atom  23H    basis set group =>   3
Atom  24H    basis set group =>   3
Atom  25H    basis set group =>   3
Atom  26H    basis set group =>   3
Atom  27H    basis set group =>   3
Atom  28H    basis set group =>   3
Atom  29H    basis set group =>   3
Atom  30H    basis set group =>   3
Atom  31H    basis set group =>   3
Atom  32H    basis set group =>   3
Atom  33H    basis set group =>   3
------------------------------------------------------------------------------
                           ORCA GTO INTEGRAL CALCULATION
                           -- RI-GTO INTEGRALS CHOSEN --
------------------------------------------------------------------------------
------------------------------------------------------------------------------
                   ___                                                        
                  /   \      - P O W E R E D   B Y -                         
                 /     \                                                     
                 |  |  |   _    _      __       _____    __    __             
                 |  |  |  | |  | |    /  \     |  _  \  |  |  /  |          
                  \  \/   | |  | |   /    \    | | | |  |  | /  /          
                 / \  \   | |__| |  /  /\  \   | |_| |  |  |/  /          
                |  |  |   |  __  | /  /__\  \  |    /   |      \           
                |  |  |   | |  | | |   __   |  |    \   |  |\   \          
                \     /   | |  | | |  |  |  |  | |\  \  |  | \   \       
                 \___/    |_|  |_| |__|  |__|  |_| \__\ |__|  \__/        
                                                                              
                      - O R C A' S   B I G   F R I E N D -                    
                                      &                                       
                       - I N T E G R A L  F E E D E R -                       
                                                                              
 v1 FN, 2020, v2 2021                                                         
------------------------------------------------------------------------------


Reading SHARK input file 5_prot_aq_4.SHARKINP.tmp ... ok
----------------------
SHARK INTEGRAL PACKAGE
----------------------

Number of atoms                             ...     34
Number of basis functions                   ...    287
Number of shells                            ...    141
Maximum angular momentum                    ...      2
Integral batch strategy                     ... SHARK/LIBINT Hybrid
RI-J (if used) integral strategy            ... SPLIT-RIJ (Revised 2003 algorithm where possible)
Printlevel                                  ...      1
Contraction scheme used                     ... SEGMENTED contraction
Coulomb Range Separation                    ... NOT USED
Exchange Range Separation                   ... Long Range
   Mu parameter                             ...  0.300000
   Scaling (regular/separated)              ...  0.157706  0.842294
Finite Nucleus Model                        ... NOT USED
Auxiliary Coulomb fitting basis             ... AVAILABLE
   # of basis functions in Aux-J            ...    868
   # of shells in Aux-J                     ...    300
   Maximum angular momentum in Aux-J        ...      4
Auxiliary J/K fitting basis                 ... NOT available
Auxiliary Correlation fitting basis         ... NOT available
Auxiliary 'external' fitting basis          ... NOT available
Integral threshold                          ...     2.500000e-11
Primitive cut-off                           ...     2.500000e-12
Primitive pair pre-selection threshold      ...     2.500000e-12

Calculating pre-screening integrals         ... done (  0.1 sec) Dimension = 141
Organizing shell pair data                  ... done (  0.1 sec)
Shell pair information
Total number of shell pairs                 ...     10011
Shell pairs after pre-screening             ...      8601
Total number of primitive shell pairs       ...     34423
Primitive shell pairs kept                  ...     20682
          la=0 lb=0:   2954 shell pairs
          la=1 lb=0:   3262 shell pairs
          la=1 lb=1:    931 shell pairs
          la=2 lb=0:    889 shell pairs
          la=2 lb=1:    490 shell pairs
          la=2 lb=2:     75 shell pairs

Calculating one electron integrals          ... done (  0.1 sec)
Calculating RI/J V-Matrix + Cholesky decomp.... done (  0.1 sec)
Calculating Nuclear repulsion               ... done (  0.0 sec) ENN=    877.612503798176 Eh

SHARK setup successfully completed in   0.4 seconds

Maximum memory used throughout the entire GTOINT-calculation: 48.8 MB
-------------------------------------------------------------------------------
                                 ORCA SCF
-------------------------------------------------------------------------------

------------
SCF SETTINGS
------------
Hamiltonian:
 Density Functional     Method          .... DFT(GTOs)
 Exchange Functional    Exchange        .... WB97X
 Correlation Functional Correlation     .... WB97X
 Gradients option       PostSCFGGA      .... off
 Hybrid DFT is turned on
   Fraction HF Exchange ScalHFX         ....  0.157706
   Scaling of DF-GGA-X  ScalDFX         ....  0.000000
   Scaling of DF-GGA-C  ScalDFC         ....  1.000000
   Scaling of DF-LDA-C  ScalLDAC        ....  1.000000
   Perturbative correction              ....  0.000000
   Density functional embedding theory  .... OFF
 Long-range corrected/Screened/Range-Separated Hybrid DFT is turned on
   Amount of maximum screened exact exchange              ....  0.842294
   Range separation parameter mu (erf(mu*r12)/r12)        ....  0.300000
 RI-approximation to the Coulomb term is turned on
   Number of AuxJ basis functions       .... 868
   RIJ-COSX (HFX calculated with COS-X)).... on


General Settings:
 Integral files         IntName         .... 5_prot_aq_4
 Hartree-Fock type      HFTyp           .... RHF
 Total Charge           Charge          ....    1
 Multiplicity           Mult            ....    1
 Number of Electrons    NEL             ....  100
 Basis Dimension        Dim             ....  287
 Nuclear Repulsion      ENuc            ....    877.6125037982 Eh

Convergence Acceleration:
 DIIS                   CNVDIIS         .... on
   Start iteration      DIISMaxIt       ....     0
   Startup error        DIISStart       ....  0.200000
   # of expansion vecs  DIISMaxEq       ....     5
   Bias factor          DIISBfac        ....   1.050
   Max. coefficient     DIISMaxC        ....  10.000
 Trust-Rad. Augm. Hess. CNVTRAH         .... auto
   Auto Start mean grad. ratio tolernc. ....  1.125000
   Auto Start start iteration           ....    20
   Auto Start num. interpolation iter.  ....    10
   Max. Number of Micro iterations      ....    16
   Max. Number of Macro iterations      .... Maxiter - #DIIS iter
   Number of Davidson start vectors     ....     2
   Converg. threshold I  (grad. norm)   ....   1.000e-05
   Converg. threshold II (energy diff.) ....   1.000e-08
   Grad. Scal. Fac. for Micro threshold ....   0.100
   Minimum threshold for Micro iter.    ....   0.010
   NR start threshold (gradient norm)   ....   0.001
   Initial trust radius                 ....   0.400
   Minimum AH scaling param. (alpha)    ....   1.000
   Maximum AH scaling param. (alpha)    .... 1000.000
   Orbital update algorithm             .... Taylor
   White noise on init. David. guess    .... on
   Maximum white noise                  ....   0.010
   Quad. conv. algorithm                .... NR
 SOSCF                  CNVSOSCF        .... on
   Start iteration      SOSCFMaxIt      ....   150
   Startup grad/error   SOSCFStart      ....  0.001000
 Level Shifting         CNVShift        .... on
   Level shift para.    LevelShift      ....    0.2500
   Turn off err/grad.   ShiftErr        ....    0.0000
 Zerner damping         CNVZerner       .... off
 Static damping         CNVDamp         .... on
   Fraction old density DampFac         ....    0.8500
   Max. Damping (<1)    DampMax         ....    0.9800
   Min. Damping (>=0)   DampMin         ....    0.0000
   Turn off err/grad.   DampErr         ....    0.0300
 Fernandez-Rico         CNVRico         .... off

SCF Procedure:
 Maximum # iterations   MaxIter         ....   125
 SCF integral mode      SCFMode         .... Direct
   Integral package                     .... SHARK and LIBINT hybrid scheme
 Reset frequency        DirectResetFreq ....    20
 Integral Threshold     Thresh          ....  2.500e-11 Eh
 Primitive CutOff       TCut            ....  2.500e-12 Eh

Convergence Tolerance:
 Convergence Check Mode ConvCheckMode   .... Total+1el-Energy
 Convergence forced     ConvForced      .... 0
 Energy Change          TolE            ....  1.000e-08 Eh
 1-El. energy change                    ....  1.000e-05 Eh
 Orbital Gradient       TolG            ....  1.000e-05
 Orbital Rotation angle TolX            ....  1.000e-05
 DIIS Error             TolErr          ....  5.000e-07


Diagonalization of the overlap matrix:
Smallest eigenvalue                        ... 1.086e-03
Time for diagonalization                   ...    0.014 sec
Threshold for overlap eigenvalues          ... 1.000e-08
Number of eigenvalues below threshold      ... 0
Time for construction of square roots      ...    0.006 sec
Total time needed                          ...    0.020 sec

Time for model grid setup =    0.702 sec

------------------------------
INITIAL GUESS: MODEL POTENTIAL
------------------------------
Loading Hartree-Fock densities                     ... done
Calculating cut-offs                               ... done
Initializing the effective Hamiltonian             ... done
Setting up the integral package (SHARK)            ... done
Starting the Coulomb interaction                   ... done (   0.8 sec)
Reading the grid                                   ... done
Mapping shells                                     ... done
Starting the XC term evaluation                    ... done (   0.8 sec)
  promolecular density results
     # of electrons  =    100.984818265
     EX              =    -75.693640129
     EC              =     -3.362469191
     EX+EC           =    -79.056109320
Transforming the Hamiltonian                       ... done (   0.0 sec)
Diagonalizing the Hamiltonian                      ... done (   0.0 sec)
Back transforming the eigenvectors                 ... done (   0.0 sec)
Now organizing SCF variables                       ... done
                      ------------------
                      INITIAL GUESS DONE (   2.3 sec)
                      ------------------
-------------------
DFT GRID GENERATION
-------------------

General Integration Accuracy     IntAcc      ... 4.388
Radial Grid Type                 RadialGrid  ... OptM3 with GC (2021)
Angular Grid (max. ang.)         AngularGrid ... 4 (Lebedev-302)
Angular grid pruning method      GridPruning ... 4 (adaptive)
Weight generation scheme         WeightScheme... Becke
Basis function cutoff            BFCut       ... 1.0000e-11
Integration weight cutoff        WCut        ... 1.0000e-14
Angular grids for H and He will be reduced by one unit
Partially contracted basis set               ... off
Rotationally invariant grid construction     ... off

Total number of grid points                  ...   144088
Total number of batches                      ...     2272
Average number of points per batch           ...       63
Average number of grid points per atom       ...     4238
Time for grid setup =    2.588 sec

--------------------
COSX GRID GENERATION
--------------------

GRIDX 1
-------
General Integration Accuracy     IntAcc      ... 3.816
Radial Grid Type                 RadialGrid  ... OptM3 with GC (2021)
Angular Grid (max. ang.)         AngularGrid ... 1 (Lebedev-50)
Angular grid pruning method      GridPruning ... 4 (adaptive)
Weight generation scheme         WeightScheme... Becke
Basis function cutoff            BFCut       ... 1.0000e-11
Integration weight cutoff        WCut        ... 1.0000e-14
Angular grids for H and He will be reduced by one unit
Partially contracted basis set               ... on
Rotationally invariant grid construction     ... off

Total number of grid points                  ...    18436
Total number of batches                      ...      307
Average number of points per batch           ...       60
Average number of grid points per atom       ...      542
UseSFitting                                  ... on

GRIDX 2
-------
General Integration Accuracy     IntAcc      ... 4.020
Radial Grid Type                 RadialGrid  ... OptM3 with GC (2021)
Angular Grid (max. ang.)         AngularGrid ... 2 (Lebedev-110)
Angular grid pruning method      GridPruning ... 4 (adaptive)
Weight generation scheme         WeightScheme... Becke
Basis function cutoff            BFCut       ... 1.0000e-11
Integration weight cutoff        WCut        ... 1.0000e-14
Angular grids for H and He will be reduced by one unit
Partially contracted basis set               ... on
Rotationally invariant grid construction     ... off

Total number of grid points                  ...    38211
Total number of batches                      ...      612
Average number of points per batch           ...       62
Average number of grid points per atom       ...     1124
UseSFitting                                  ... on

GRIDX 3
-------
General Integration Accuracy     IntAcc      ... 4.338
Radial Grid Type                 RadialGrid  ... OptM3 with GC (2021)
Angular Grid (max. ang.)         AngularGrid ... 3 (Lebedev-194)
Angular grid pruning method      GridPruning ... 4 (adaptive)
Weight generation scheme         WeightScheme... Becke
Basis function cutoff            BFCut       ... 1.0000e-11
Integration weight cutoff        WCut        ... 1.0000e-14
Angular grids for H and He will be reduced by one unit
Partially contracted basis set               ... on
Rotationally invariant grid construction     ... off

Total number of grid points                  ...    82931
Total number of batches                      ...     1311
Average number of points per batch           ...       63
Average number of grid points per atom       ...     2439
UseSFitting                                  ... on

Time for X-Grid setup             =    3.329 sec


--------------------
CPCM SOLVATION MODEL
--------------------
CPCM parameters:
  Epsilon                                         ...      80.4000
  Refrac                                          ...       1.3300
  Rsolv                                           ...       1.3000
  Surface type                                    ... GAUSSIAN VDW
  Epsilon function type                           ...         CPCM
Radii:
 Radius for N  used is    3.5149 Bohr (=   1.8600 Ang.)
 Radius for C  used is    3.8550 Bohr (=   2.0400 Ang.)
 Radius for H  used is    2.4944 Bohr (=   1.3200 Ang.)
Calculating surface                               ...        done! (  0.0s)
GEPOL surface points                              ...         1751
GEPOL Volume                                      ...    1682.6037
GEPOL Surface-area                                ...     903.1423
Calculating surface distance matrix               ...        done! (  0.0s)
Performing Cholesky decomposition & store         ...        done! (  0.1s)
Overall time for CPCM initialization              ...                 0.1s
--------------
SCF ITERATIONS
--------------
ITER       Energy         Delta-E        Max-DP      RMS-DP      [F,P]     Damp
               ***  Starting incremental Fock matrix formation  ***
  0   -540.3930040463   0.000000000000 0.03396256  0.00063262  0.1514017 0.8500
  1   -540.4539729176  -0.060968871278 0.03051041  0.00059158  0.1218888 0.8500
                               ***Turning on DIIS***
  2   -540.5000870317  -0.046114114065 0.02388184  0.00048111  0.0935063 0.8500
  3   -540.5341419145  -0.034054882865 0.01501489  0.00034100  0.0708184 0.8500
  4   -540.5602578847  -0.026115970122 0.01017724  0.00026186  0.0563565 0.8500
  5   -540.5807270232  -0.020469138496 0.00776610  0.00021534  0.0465667 0.8500
  6   -540.5973023655  -0.016575342353 0.00629335  0.00018192  0.0391369 0.8500
  7   -540.6109782520  -0.013675886531 0.00534679  0.00015660  0.0331239 0.8500
  8   -540.6223891689  -0.011410916867 0.03035550  0.00089818  0.0280056 0.0000
  9   -540.6834160209  -0.061026852028 0.00137036  0.00003242  0.0012024 0.0000
                      *** Initiating the SOSCF procedure ***
                           *** Shutting down DIIS ***
                      *** Re-Reading the Fockian *** 
                      *** Removing any level shift *** 
ITER      Energy       Delta-E        Grad      Rot      Max-DP    RMS-DP
 10   -540.68343839  -0.0000223676  0.000136  0.000136  0.000657  0.000013
               *** Restarting incremental Fock matrix formation ***
 11   -540.68345459  -0.0000161980  0.000055  0.000107  0.000299  0.000008
 12   -540.68345490  -0.0000003153  0.000052  0.000107  0.000147  0.000004
 13   -540.68345495  -0.0000000523  0.000014  0.000017  0.000032  0.000001
                  ***Gradient check signals convergence***
              ***Rediagonalizing the Fockian in SOSCF/NRSCF***

               *****************************************************
               *                     SUCCESS                       *
               *           SCF CONVERGED AFTER  14 CYCLES          *
               *****************************************************

Old exchange energy                            =    -25.379339555 Eh
New exchange energy                            =    -25.379402684 Eh
Exchange energy change after final integration =     -0.000063129 Eh
Total energy after final integration           =   -540.683518101 Eh
Final COS-X integration done in                =    94.798 sec

----------------
TOTAL SCF ENERGY
----------------

Total Energy       :         -540.68351810 Eh          -14712.74651 eV

Components:
Nuclear Repulsion  :          877.61250380 Eh           23881.05032 eV
Electronic Energy  :        -1418.29602190 Eh          -38593.79683 eV
One Electron Energy:        -2453.18998249 Eh          -66754.69317 eV
Two Electron Energy:         1034.89396059 Eh           28160.89634 eV
Max COSX asymmetry :            0.00000561 Eh               0.00015 eV
CPCM Dielectric    :           -0.07491093 Eh              -2.03843 eV

Virial components:
Potential Energy   :        -1075.07475749 Eh          -29254.27141 eV
Kinetic Energy     :          534.39123939 Eh           14541.52490 eV
Virial Ratio       :            2.01177467


DFT components:
N(Alpha)           :       50.000107047365 electrons
N(Beta)            :       50.000107047365 electrons
N(Total)           :      100.000214094730 electrons
E(XC)              :      -55.663241763798 Eh       
DFET-embed. en.    :        0.000000000000 Eh       
CPCM Solvation Model Properties:
Surface-charge          :           -1.02407196
Charge-correction       :            0.00317719 Eh               0.08646 eV
Free-energy (cav+disp)  :  This term is not implemented in the current solvation scheme

---------------
SCF CONVERGENCE
---------------

  Last Energy change         ...   -1.7899e-08  Tolerance :   1.0000e-08
  Last MAX-Density change    ...    5.3291e-15  Tolerance :   1.0000e-07
  Last RMS-Density change    ...    4.0590e-17  Tolerance :   5.0000e-09
  Last Orbital Gradient      ...    2.2026e-06  Tolerance :   1.0000e-05
  Last Orbital Rotation      ...    3.8707e-06  Tolerance :   1.0000e-05

             **** THE GBW FILE WAS UPDATED (5_prot_aq_4.gbw) ****
             **** DENSITY 5_prot_aq_4.scfp WAS UPDATED ****
             **** ENERGY FILE WAS UPDATED (5_prot_aq_4.en.tmp) ****
             **** THE GBW FILE WAS UPDATED (5_prot_aq_4.gbw) ****
             **** DENSITY 5_prot_aq_4.scfp WAS UPDATED ****
----------------
ORBITAL ENERGIES
----------------

  NO   OCC          E(Eh)            E(eV) 
   0   2.0000     -14.509768      -394.8309 
   1   2.0000     -14.508575      -394.7984 
   2   2.0000     -10.380199      -282.4596 
   3   2.0000     -10.343587      -281.4633 
   4   2.0000     -10.343333      -281.4564 
   5   2.0000     -10.329681      -281.0849 
   6   2.0000     -10.328376      -281.0494 
   7   2.0000     -10.272225      -279.5215 
   8   2.0000     -10.271053      -279.4896 
   9   2.0000     -10.270707      -279.4801 
  10   2.0000     -10.269593      -279.4498 
  11   2.0000     -10.269574      -279.4493 
  12   2.0000     -10.268920      -279.4315 
  13   2.0000      -1.221051       -33.2265 
  14   2.0000      -1.104843       -30.0643 
  15   2.0000      -0.984142       -26.7799 
  16   2.0000      -0.934830       -25.4380 
  17   2.0000      -0.923298       -25.1242 
  18   2.0000      -0.837054       -22.7774 
  19   2.0000      -0.828277       -22.5386 
  20   2.0000      -0.826781       -22.4979 
  21   2.0000      -0.825976       -22.4760 
  22   2.0000      -0.799334       -21.7510 
  23   2.0000      -0.769776       -20.9467 
  24   2.0000      -0.730068       -19.8661 
  25   2.0000      -0.709082       -19.2951 
  26   2.0000      -0.645743       -17.5716 
  27   2.0000      -0.633472       -17.2376 
  28   2.0000      -0.608755       -16.5651 
  29   2.0000      -0.590787       -16.0761 
  30   2.0000      -0.589380       -16.0378 
  31   2.0000      -0.580196       -15.7879 
  32   2.0000      -0.575980       -15.6732 
  33   2.0000      -0.556963       -15.1557 
  34   2.0000      -0.555313       -15.1108 
  35   2.0000      -0.550250       -14.9731 
  36   2.0000      -0.522124       -14.2077 
  37   2.0000      -0.506659       -13.7869 
  38   2.0000      -0.501448       -13.6451 
  39   2.0000      -0.500297       -13.6138 
  40   2.0000      -0.496625       -13.5138 
  41   2.0000      -0.491557       -13.3760 
  42   2.0000      -0.483152       -13.1472 
  43   2.0000      -0.481533       -13.1032 
  44   2.0000      -0.469877       -12.7860 
  45   2.0000      -0.454252       -12.3608 
  46   2.0000      -0.453109       -12.3297 
  47   2.0000      -0.451548       -12.2872 
  48   2.0000      -0.411778       -11.2051 
  49   2.0000      -0.372482       -10.1357 
  50   0.0000       0.061249         1.6667 
  51   0.0000       0.095894         2.6094 
  52   0.0000       0.133114         3.6222 
  53   0.0000       0.146020         3.9734 
  54   0.0000       0.168195         4.5768 
  55   0.0000       0.171904         4.6777 
  56   0.0000       0.178910         4.8684 
  57   0.0000       0.182974         4.9790 
  58   0.0000       0.194979         5.3057 
  59   0.0000       0.199882         5.4391 
  60   0.0000       0.210652         5.7321 
  61   0.0000       0.213970         5.8224 
  62   0.0000       0.219112         5.9623 
  63   0.0000       0.222885         6.0650 
  64   0.0000       0.234334         6.3765 
  65   0.0000       0.244575         6.6552 
  66   0.0000       0.249584         6.7915 
  67   0.0000       0.254667         6.9299 
  68   0.0000       0.263674         7.1749 
  69   0.0000       0.264595         7.2000 
  70   0.0000       0.265183         7.2160 
  71   0.0000       0.266166         7.2427 
  72   0.0000       0.277005         7.5377 
  73   0.0000       0.279001         7.5920 
  74   0.0000       0.284040         7.7291 
  75   0.0000       0.289122         7.8674 
  76   0.0000       0.295014         8.0277 
  77   0.0000       0.297216         8.0877 
  78   0.0000       0.304525         8.2865 
  79   0.0000       0.314692         8.5632 
  80   0.0000       0.327524         8.9124 
  81   0.0000       0.336063         9.1447 
  82   0.0000       0.346546         9.4300 
  83   0.0000       0.358453         9.7540 
  84   0.0000       0.403506        10.9800 
  85   0.0000       0.425115        11.5680 
  86   0.0000       0.465467        12.6660 
  87   0.0000       0.470046        12.7906 
  88   0.0000       0.476120        12.9559 
  89   0.0000       0.487405        13.2630 
  90   0.0000       0.491569        13.3763 
  91   0.0000       0.504763        13.7353 
  92   0.0000       0.512673        13.9505 
  93   0.0000       0.547812        14.9067 
  94   0.0000       0.550262        14.9734 
  95   0.0000       0.561090        15.2680 
  96   0.0000       0.586010        15.9461 
  97   0.0000       0.601359        16.3638 
  98   0.0000       0.605815        16.4851 
  99   0.0000       0.622899        16.9499 
 100   0.0000       0.637229        17.3399 
 101   0.0000       0.651599        17.7309 
 102   0.0000       0.653687        17.7877 
 103   0.0000       0.664750        18.0888 
 104   0.0000       0.681149        18.5350 
 105   0.0000       0.688436        18.7333 
 106   0.0000       0.717219        19.5165 
 107   0.0000       0.728846        19.8329 
 108   0.0000       0.732429        19.9304 
 109   0.0000       0.735686        20.0190 
 110   0.0000       0.739321        20.1179 
 111   0.0000       0.742990        20.2178 
 112   0.0000       0.745848        20.2955 
 113   0.0000       0.751250        20.4425 
 114   0.0000       0.755776        20.5657 
 115   0.0000       0.758527        20.6406 
 116   0.0000       0.769879        20.9495 
 117   0.0000       0.772549        21.0221 
 118   0.0000       0.777342        21.1526 
 119   0.0000       0.778852        21.1936 
 120   0.0000       0.783135        21.3102 
 121   0.0000       0.786682        21.4067 
 122   0.0000       0.801907        21.8210 
 123   0.0000       0.806352        21.9420 
 124   0.0000       0.808927        22.0120 
 125   0.0000       0.811831        22.0911 
 126   0.0000       0.815487        22.1905 
 127   0.0000       0.821830        22.3631 
 128   0.0000       0.826497        22.4901 
 129   0.0000       0.830433        22.5972 
 130   0.0000       0.836590        22.7648 
 131   0.0000       0.837590        22.7920 
 132   0.0000       0.844218        22.9723 
 133   0.0000       0.847312        23.0565 
 134   0.0000       0.851214        23.1627 
 135   0.0000       0.856970        23.3194 
 136   0.0000       0.869763        23.6675 
 137   0.0000       0.874939        23.8083 
 138   0.0000       0.878349        23.9011 
 139   0.0000       0.898466        24.4485 
 140   0.0000       0.955662        26.0049 
 141   0.0000       0.997118        27.1330 
 142   0.0000       1.028625        27.9903 
 143   0.0000       1.038401        28.2563 
 144   0.0000       1.045026        28.4366 
 145   0.0000       1.055785        28.7294 
 146   0.0000       1.080461        29.4008 
 147   0.0000       1.086562        29.5669 
 148   0.0000       1.111839        30.2547 
 149   0.0000       1.180645        32.1270 
 150   0.0000       1.184243        32.2249 
 151   0.0000       1.221382        33.2355 
 152   0.0000       1.221811        33.2472 
 153   0.0000       1.227040        33.3895 
 154   0.0000       1.239643        33.7324 
 155   0.0000       1.278982        34.8029 
 156   0.0000       1.296476        35.2789 
 157   0.0000       1.316608        35.8267 
 158   0.0000       1.339170        36.4407 
 159   0.0000       1.350625        36.7524 
 160   0.0000       1.363974        37.1156 
 161   0.0000       1.371189        37.3120 
 162   0.0000       1.378555        37.5124 
 163   0.0000       1.405713        38.2514 
 164   0.0000       1.411243        38.4019 
 165   0.0000       1.442196        39.2442 
 166   0.0000       1.450242        39.4631 
 167   0.0000       1.503141        40.9026 
 168   0.0000       1.537070        41.8258 
 169   0.0000       1.608094        43.7585 
 170   0.0000       1.642020        44.6816 
 171   0.0000       1.644433        44.7473 
 172   0.0000       1.647489        44.8305 
 173   0.0000       1.650618        44.9156 
 174   0.0000       1.657620        45.1061 
 175   0.0000       1.659708        45.1630 
 176   0.0000       1.663342        45.2618 
 177   0.0000       1.666199        45.3396 
 178   0.0000       1.672479        45.5105 
 179   0.0000       1.697714        46.1971 
 180   0.0000       1.747945        47.5640 
 181   0.0000       1.760498        47.9056 
 182   0.0000       1.777168        48.3592 
 183   0.0000       1.792388        48.7733 
 184   0.0000       1.801036        49.0087 
 185   0.0000       1.807386        49.1815 
 186   0.0000       1.814531        49.3759 
 187   0.0000       1.837058        49.9889 
 188   0.0000       1.850196        50.3464 
 189   0.0000       1.851096        50.3709 
 190   0.0000       1.862699        50.6866 
 191   0.0000       1.865905        50.7739 
 192   0.0000       1.882652        51.2296 
 193   0.0000       1.894013        51.5387 
 194   0.0000       1.912913        52.0530 
 195   0.0000       1.924577        52.3704 
 196   0.0000       1.931155        52.5494 
 197   0.0000       1.940027        52.7908 
 198   0.0000       1.948538        53.0224 
 199   0.0000       1.951666        53.1075 
 200   0.0000       1.953131        53.1474 
 201   0.0000       1.956804        53.2474 
 202   0.0000       1.958829        53.3025 
 203   0.0000       1.964282        53.4508 
 204   0.0000       1.969014        53.5796 
 205   0.0000       1.984902        54.0119 
 206   0.0000       1.998128        54.3718 
 207   0.0000       2.010616        54.7116 
 208   0.0000       2.016996        54.8852 
 209   0.0000       2.020462        54.9796 
 210   0.0000       2.031171        55.2710 
 211   0.0000       2.048344        55.7383 
 212   0.0000       2.056541        55.9613 
 213   0.0000       2.059915        56.0531 
 214   0.0000       2.070326        56.3364 
 215   0.0000       2.074982        56.4631 
 216   0.0000       2.085679        56.7542 
 217   0.0000       2.091499        56.9126 
 218   0.0000       2.096328        57.0440 
 219   0.0000       2.121376        57.7256 
 220   0.0000       2.122079        57.7447 
 221   0.0000       2.168581        59.0101 
 222   0.0000       2.177927        59.2644 
 223   0.0000       2.247648        61.1616 
 224   0.0000       2.262608        61.5687 
 225   0.0000       2.266340        61.6703 
 226   0.0000       2.277215        61.9662 
 227   0.0000       2.289130        62.2904 
 228   0.0000       2.306913        62.7743 
 229   0.0000       2.312560        62.9279 
 230   0.0000       2.315419        63.0058 
 231   0.0000       2.318688        63.0947 
 232   0.0000       2.336092        63.5683 
 233   0.0000       2.449289        66.6485 
 234   0.0000       2.455585        66.8199 
 235   0.0000       2.474347        67.3304 
 236   0.0000       2.475236        67.3546 
 237   0.0000       2.496347        67.9291 
 238   0.0000       2.511011        68.3281 
 239   0.0000       2.519944        68.5712 
 240   0.0000       2.527179        68.7680 
 241   0.0000       2.533171        68.9311 
 242   0.0000       2.556263        69.5595 
 243   0.0000       2.573995        70.0420 
 244   0.0000       2.576323        70.1053 
 245   0.0000       2.598801        70.7170 
 246   0.0000       2.602477        70.8170 
 247   0.0000       2.614367        71.1405 
 248   0.0000       2.631803        71.6150 
 249   0.0000       2.642781        71.9137 
 250   0.0000       2.649257        72.0900 
 251   0.0000       2.668372        72.6101 
 252   0.0000       2.740536        74.5738 
 253   0.0000       2.743744        74.6611 
 254   0.0000       2.760056        75.1049 
 255   0.0000       2.766654        75.2845 
 256   0.0000       2.813850        76.5688 
 257   0.0000       2.818776        76.7028 
 258   0.0000       2.824435        76.8568 
 259   0.0000       2.827526        76.9409 
 260   0.0000       2.859408        77.8085 
 261   0.0000       2.900050        78.9144 
 262   0.0000       2.937969        79.9462 
 263   0.0000       2.956030        80.4377 
 264   0.0000       2.963569        80.6428 
 265   0.0000       2.982481        81.1574 
 266   0.0000       2.986883        81.2772 
 267   0.0000       2.996590        81.5414 
 268   0.0000       3.000041        81.6353 
 269   0.0000       3.012760        81.9814 
 270   0.0000       3.013785        82.0093 
 271   0.0000       3.017310        82.1052 
 272   0.0000       3.034833        82.5820 
 273   0.0000       3.065751        83.4233 
 274   0.0000       3.074441        83.6598 
 275   0.0000       3.076756        83.7228 
 276   0.0000       3.089755        84.0765 
 277   0.0000       3.095964        84.2455 
 278   0.0000       3.108010        84.5732 
 279   0.0000       3.136846        85.3579 
 280   0.0000       3.155247        85.8586 
 281   0.0000       3.203344        87.1674 
 282   0.0000       3.210343        87.3579 
 283   0.0000       3.317218        90.2661 
 284   0.0000       3.490148        94.9718 
 285   0.0000       3.601656        98.0060 
 286   0.0000       3.631861        98.8280 

                    ********************************
                    * MULLIKEN POPULATION ANALYSIS *
                    ********************************

-----------------------
MULLIKEN ATOMIC CHARGES
-----------------------
   0 N :   -0.151173
   1 C :    0.221657
   2 N :   -0.161232
   3 H :    0.111570
   4 C :    0.070957
   5 C :    0.062764
   6 C :   -0.263038
   7 C :   -0.259423
   8 C :    0.024278
   9 C :    0.056990
  10 C :    0.057922
  11 C :    0.075232
  12 C :    0.030842
  13 C :    0.026880
  14 H :    0.083185
  15 H :    0.092420
  16 H :    0.054832
  17 H :    0.058918
  18 H :    0.055010
  19 H :    0.044680
  20 H :    0.047249
  21 H :    0.052460
  22 H :    0.052307
  23 H :    0.056425
  24 H :    0.053005
  25 H :    0.045068
  26 H :    0.052329
  27 H :    0.047466
  28 H :    0.050446
  29 H :    0.043743
  30 H :    0.044105
  31 H :    0.052559
  32 H :    0.056219
  33 H :    0.053345
Sum of atomic charges:    1.0000000

--------------------------------
MULLIKEN REDUCED ORBITAL CHARGES
--------------------------------
  0 N s       :     3.377272  s :     3.377272
      pz      :     1.439582  p :     3.740631
      px      :     1.150794
      py      :     1.150256
      dz2     :     0.002741  d :     0.033269
      dxz     :     0.005902
      dyz     :     0.006251
      dx2y2   :     0.008351
      dxy     :     0.010023
  1 C s       :     3.094965  s :     3.094965
      pz      :     0.935360  p :     2.615860
      px      :     0.777107
      py      :     0.903393
      dz2     :     0.005406  d :     0.067517
      dxz     :     0.016806
      dyz     :     0.006456
      dx2y2   :     0.016894
      dxy     :     0.021956
  2 N s       :     3.380961  s :     3.380961
      pz      :     1.443838  p :     3.747201
      px      :     1.156134
      py      :     1.147229
      dz2     :     0.002870  d :     0.033069
      dxz     :     0.005681
      dyz     :     0.006168
      dx2y2   :     0.008095
      dxy     :     0.010255
  3 H s       :     0.862879  s :     0.862879
      pz      :     0.005010  p :     0.025551
      px      :     0.001718
      py      :     0.018823
  4 C s       :     3.143878  s :     3.143878
      pz      :     1.025469  p :     2.736592
      px      :     0.908521
      py      :     0.802603
      dz2     :     0.004273  d :     0.048573
      dxz     :     0.007845
      dyz     :     0.008215
      dx2y2   :     0.015189
      dxy     :     0.013051
  5 C s       :     3.139135  s :     3.139135
      pz      :     1.030848  p :     2.749846
      px      :     0.915076
      py      :     0.803921
      dz2     :     0.004416  d :     0.048255
      dxz     :     0.007534
      dyz     :     0.008202
      dx2y2   :     0.015340
      dxy     :     0.012763
  6 C s       :     3.234223  s :     3.234223
      pz      :     1.080028  p :     2.964170
      px      :     0.801292
      py      :     1.082851
      dz2     :     0.014319  d :     0.064645
      dxz     :     0.011822
      dyz     :     0.010964
      dx2y2   :     0.016728
      dxy     :     0.010813
  7 C s       :     3.232220  s :     3.232220
      pz      :     1.088728  p :     2.962757
      px      :     0.807237
      py      :     1.066792
      dz2     :     0.014939  d :     0.064446
      dxz     :     0.010856
      dyz     :     0.011009
      dx2y2   :     0.015975
      dxy     :     0.011667
  8 C s       :     2.986135  s :     2.986135
      pz      :     1.011813  p :     2.963661
      px      :     1.036043
      py      :     0.915805
      dz2     :     0.005397  d :     0.025926
      dxz     :     0.004330
      dyz     :     0.005909
      dx2y2   :     0.007209
      dxy     :     0.003081
  9 C s       :     2.978590  s :     2.978590
      pz      :     0.928313  p :     2.938404
      px      :     0.994485
      py      :     1.015605
      dz2     :     0.006469  d :     0.026016
      dxz     :     0.005198
      dyz     :     0.004658
      dx2y2   :     0.006996
      dxy     :     0.002695
 10 C s       :     2.977773  s :     2.977773
      pz      :     0.944563  p :     2.938299
      px      :     1.001211
      py      :     0.992524
      dz2     :     0.006783  d :     0.026007
      dxz     :     0.005321
      dyz     :     0.003800
      dx2y2   :     0.007424
      dxy     :     0.002679
 11 C s       :     2.971576  s :     2.971576
      pz      :     0.900106  p :     2.927032
      px      :     1.009014
      py      :     1.017912
      dz2     :     0.006939  d :     0.026160
      dxz     :     0.003951
      dyz     :     0.005735
      dx2y2   :     0.006056
      dxy     :     0.003479
 12 C s       :     2.984646  s :     2.984646
      pz      :     0.980827  p :     2.958604
      px      :     0.991319
      py      :     0.986457
      dz2     :     0.006902  d :     0.025909
      dxz     :     0.003939
      dyz     :     0.004465
      dx2y2   :     0.005931
      dxy     :     0.004672
 13 C s       :     2.988253  s :     2.988253
      pz      :     1.002773  p :     2.959010
      px      :     1.037627
      py      :     0.918609
      dz2     :     0.005864  d :     0.025857
      dxz     :     0.003574
      dyz     :     0.005878
      dx2y2   :     0.006899
      dxy     :     0.003642
 14 H s       :     0.891240  s :     0.891240
      pz      :     0.005202  p :     0.025575
      px      :     0.008537
      py      :     0.011836
 15 H s       :     0.882147  s :     0.882147
      pz      :     0.005106  p :     0.025434
      px      :     0.008872
      py      :     0.011456
 16 H s       :     0.920692  s :     0.920692
      pz      :     0.010866  p :     0.024477
      px      :     0.006708
      py      :     0.006903
 17 H s       :     0.916342  s :     0.916342
      pz      :     0.005165  p :     0.024740
      px      :     0.014882
      py      :     0.004693
 18 H s       :     0.920516  s :     0.920516
      pz      :     0.013003  p :     0.024474
      px      :     0.007126
      py      :     0.004344
 19 H s       :     0.930707  s :     0.930707
      pz      :     0.004352  p :     0.024613
      px      :     0.004910
      py      :     0.015351
 20 H s       :     0.928519  s :     0.928519
      pz      :     0.012048  p :     0.024231
      px      :     0.007291
      py      :     0.004892
 21 H s       :     0.922814  s :     0.922814
      pz      :     0.004508  p :     0.024726
      px      :     0.014580
      py      :     0.005638
 22 H s       :     0.923342  s :     0.923342
      pz      :     0.014257  p :     0.024350
      px      :     0.005556
      py      :     0.004536
 23 H s       :     0.918824  s :     0.918824
      pz      :     0.004732  p :     0.024751
      px      :     0.014006
      py      :     0.006013
 24 H s       :     0.922355  s :     0.922355
      pz      :     0.006022  p :     0.024640
      px      :     0.004825
      py      :     0.013793
 25 H s       :     0.930308  s :     0.930308
      pz      :     0.004384  p :     0.024624
      px      :     0.004842
      py      :     0.015399
 26 H s       :     0.922942  s :     0.922942
      pz      :     0.004055  p :     0.024729
      px      :     0.014625
      py      :     0.006048
 27 H s       :     0.928305  s :     0.928305
      pz      :     0.010451  p :     0.024230
      px      :     0.006637
      py      :     0.007142
 28 H s       :     0.924824  s :     0.924824
      pz      :     0.004022  p :     0.024730
      px      :     0.014758
      py      :     0.005950
 29 H s       :     0.931961  s :     0.931961
      pz      :     0.007187  p :     0.024296
      px      :     0.008319
      py      :     0.008790
 30 H s       :     0.931600  s :     0.931600
      pz      :     0.004996  p :     0.024295
      px      :     0.004972
      py      :     0.014327
 31 H s       :     0.922767  s :     0.922767
      pz      :     0.008703  p :     0.024673
      px      :     0.007191
      py      :     0.008779
 32 H s       :     0.919010  s :     0.919010
      pz      :     0.005039  p :     0.024771
      px      :     0.015049
      py      :     0.004683
 33 H s       :     0.922334  s :     0.922334
      pz      :     0.013940  p :     0.024321
      px      :     0.006595
      py      :     0.003786


                     *******************************
                     * LOEWDIN POPULATION ANALYSIS *
                     *******************************

----------------------
LOEWDIN ATOMIC CHARGES
----------------------
   0 N :    0.113760
   1 C :    0.122291
   2 N :    0.109781
   3 H :    0.055796
   4 C :    0.021053
   5 C :    0.017104
   6 C :    0.013195
   7 C :    0.013598
   8 C :   -0.042949
   9 C :   -0.039055
  10 C :   -0.038958
  11 C :   -0.038393
  12 C :   -0.041194
  13 C :   -0.042329
  14 H :    0.053538
  15 H :    0.053325
  16 H :    0.035769
  17 H :    0.046405
  18 H :    0.035768
  19 H :    0.032437
  20 H :    0.034846
  21 H :    0.041299
  22 H :    0.036150
  23 H :    0.044223
  24 H :    0.033987
  25 H :    0.032496
  26 H :    0.041318
  27 H :    0.034923
  28 H :    0.039917
  29 H :    0.032493
  30 H :    0.032990
  31 H :    0.034132
  32 H :    0.044095
  33 H :    0.036191

-------------------------------
LOEWDIN REDUCED ORBITAL CHARGES
-------------------------------
  0 N s       :     3.045220  s :     3.045220
      pz      :     1.366723  p :     3.763796
      px      :     1.191782
      py      :     1.205292
      dz2     :     0.005308  d :     0.077223
      dxz     :     0.010164
      dyz     :     0.012371
      dx2y2   :     0.022832
      dxy     :     0.026548
  1 C s       :     2.827033  s :     2.827033
      pz      :     0.963152  p :     2.892042
      px      :     0.901627
      py      :     1.027263
      dz2     :     0.011438  d :     0.158634
      dxz     :     0.035411
[...]
     76      -0.227155   0.046837   0.164316   0.015434  -0.012746  -0.001696
     77      -0.008861   0.001942   0.006775   0.001071  -0.001010  -0.000232
     78       0.414711  -0.113639  -0.400470  -0.002253   0.002173   0.000055
     79      -0.132085   0.036177   0.127354   0.001036  -0.000895  -0.000127
     80      -0.015568   0.004567   0.016318  -0.000083   0.000013   0.000188
     81       0.072815  -0.025983  -0.090966   0.001798  -0.001401  -0.000024
     82       0.052900  -0.018299  -0.064094   0.001078  -0.000797  -0.000011
     83       0.134293  -0.047748  -0.167219   0.003220  -0.002459  -0.000094
     84      -0.045856  -0.408177   0.113348  -0.001141  -0.001431   0.000039
     85      -0.014499  -0.129009   0.035791  -0.000687  -0.000691  -0.000094
     86       0.001314   0.013199  -0.003731  -0.000131  -0.000066  -0.000194
     87      -0.007053  -0.092122   0.025390   0.001246   0.001056  -0.000006
     88       0.006097   0.076495  -0.021091  -0.000963  -0.000789  -0.000024
     89      -0.012216  -0.158258   0.043631   0.002133   0.001765   0.000018
     90       0.000086   0.000818  -0.000235  -0.000067  -0.000101  -0.000053
     91      -0.027914  -0.176128   0.048764  -0.008807  -0.007903  -0.000947
     92      -0.001112  -0.006515   0.001813  -0.000275  -0.000155   0.000079
     93       0.010789  -0.086713   0.024717  -0.000006   0.000954  -0.006480
     94      -0.010460   0.083102  -0.023735  -0.000140  -0.000707   0.004381
     95       0.020689  -0.163543   0.046741   0.000053   0.001163  -0.008480
     96       0.068985  -0.540044   0.153784   0.001221   0.000763  -0.005173
     97       0.020185  -0.159888   0.045554   0.000681   0.000357  -0.000479
     98      -0.000425   0.003396  -0.000966   0.000009  -0.000013   0.000121
     99       0.011818  -0.088749   0.025222  -0.000012   0.000576  -0.004208
    100      -0.010435   0.077944  -0.022195  -0.000134  -0.000399   0.002495
    101      -0.025050   0.186309  -0.053081  -0.000047  -0.000767   0.006166


-----------
IR SPECTRUM
-----------

 Mode   freq       eps      Int      T**2         TX        TY        TZ
       cm**-1   L/(mol*cm) km/mol    a.u.
----------------------------------------------------------------------------
  6:     26.47   0.000000    0.00  0.000001  (-0.000386  0.000003 -0.000931)
  7:     39.34   0.000004    0.02  0.000029  ( 0.000134  0.000068 -0.005407)
  8:    120.46   0.000014    0.07  0.000036  (-0.000327 -0.000051  0.005981)
  9:    145.70   0.000027    0.14  0.000058  ( 0.000003 -0.007613  0.000002)
 10:    150.48   0.000000    0.00  0.000001  ( 0.000257 -0.000724 -0.000128)
 11:    226.48   0.000006    0.03  0.000008  ( 0.000064  0.000776 -0.002693)
 12:    232.20   0.000001    0.00  0.000001  ( 0.000238 -0.000498 -0.000699)
 13:    258.55   0.000010    0.05  0.000012  (-0.003360 -0.000755 -0.000220)
 14:    264.64   0.000014    0.07  0.000017  (-0.000427  0.004051 -0.000085)
 15:    272.43   0.000013    0.07  0.000015  ( 0.000006  0.003869  0.000258)
 16:    280.30   0.000003    0.01  0.000003  ( 0.001677 -0.000570 -0.000389)
 17:    332.54   0.000002    0.01  0.000002  (-0.000244  0.000106  0.001325)
 18:    336.85   0.000007    0.03  0.000006  (-0.000087  0.000049  0.002463)
 19:    343.75   0.000107    0.54  0.000097  (-0.000006  0.001307 -0.009775)
 20:    354.17   0.000025    0.12  0.000022  (-0.000078  0.004498  0.001165)
 21:    365.37   0.000000    0.00  0.000000  ( 0.000175 -0.000033 -0.000062)
 22:    370.91   0.000002    0.01  0.000002  (-0.001300 -0.000086 -0.000454)
 23:    401.44   0.000003    0.01  0.000002  (-0.001430  0.000105 -0.000174)
 24:    444.34   0.000011    0.06  0.000008  ( 0.000040  0.000157 -0.002836)
 25:    468.83   0.000001    0.00  0.000001  ( 0.000723 -0.000111 -0.000020)
 26:    470.20   0.000025    0.13  0.000017  ( 0.000010  0.004071  0.000463)
 27:    520.46   0.000093    0.47  0.000056  (-0.007439 -0.000059 -0.000518)
 28:    578.14   0.000156    0.79  0.000084  (-0.000023  0.009168  0.000537)
 29:    639.58   0.001340    6.77  0.000654  (-0.025557 -0.000097  0.000766)
 30:    679.13   0.013927   70.38  0.006400  ( 0.000987 -0.002152  0.079962)
 31:    691.91   0.000000    0.00  0.000000  (-0.000322  0.000105 -0.000067)
 32:    773.72   0.008520   43.06  0.003436  ( 0.000205 -0.001374  0.058604)
 33:    845.78   0.000020    0.10  0.000007  (-0.000070 -0.002656  0.000545)
 34:    849.63   0.000137    0.69  0.000050  (-0.007069  0.000064  0.000452)
 35:    891.91   0.006112   30.89  0.002138  ( 0.001062 -0.001418  0.046208)
 36:    922.49   0.000001    0.01  0.000000  (-0.000591 -0.000270  0.000026)
 37:    948.97   0.000937    4.74  0.000308  (-0.000130  0.001053 -0.017525)
 38:    949.12   0.000120    0.61  0.000040  (-0.000084 -0.000191  0.006286)
 39:    958.70   0.001415    7.15  0.000461  ( 0.000090 -0.021373 -0.001970)
 40:    959.32   0.000027    0.14  0.000009  (-0.002484 -0.001604 -0.000124)
 41:    969.41   0.000064    0.32  0.000021  ( 0.000239 -0.002957  0.003422)
 42:    969.73   0.000005    0.02  0.000002  (-0.000010  0.001007 -0.000732)
 43:   1022.99   0.001427    7.21  0.000435  ( 0.020863 -0.000042 -0.000295)
 44:   1040.36   0.000135    0.68  0.000040  (-0.000131 -0.006351 -0.000328)
 45:   1050.06   0.000037    0.19  0.000011  (-0.000832 -0.003064 -0.000959)
 46:   1051.02   0.000115    0.58  0.000034  (-0.005833  0.000410  0.000187)
 47:   1054.47   0.000020    0.10  0.000006  (-0.000093  0.000359 -0.002430)
 48:   1055.30   0.000178    0.90  0.000053  ( 0.000095 -0.000040 -0.007261)
 49:   1124.80   0.004492   22.70  0.001246  ( 0.000399 -0.035270 -0.001426)
 50:   1150.49   0.018315   92.56  0.004968  ( 0.070480  0.000298 -0.000705)
 51:   1222.78   0.001354    6.84  0.000346  (-0.000084  0.018589 -0.000091)
 52:   1236.78   0.080752  408.09  0.020375  (-0.142736 -0.000422  0.001262)
 53:   1265.65   0.000018    0.09  0.000004  ( 0.002071 -0.000193 -0.000022)
 54:   1269.62   0.000668    3.38  0.000164  (-0.000110  0.012791 -0.000782)
 55:   1277.79   0.000013    0.07  0.000003  ( 0.001798  0.000069 -0.000013)
 56:   1279.90   0.006432   32.50  0.001568  (-0.000181 -0.000619  0.039595)
 57:   1303.84   0.000025    0.12  0.000006  ( 0.002361 -0.000001  0.000583)
 58:   1356.51   0.004250   21.48  0.000978  ( 0.000103 -0.031264 -0.000631)
 59:   1396.32   0.000119    0.60  0.000027  ( 0.000060 -0.000836  0.005088)
 60:   1396.54   0.010601   53.57  0.002369  ( 0.000502  0.002913  0.048581)
 61:   1401.57   0.000410    2.07  0.000091  ( 0.006776  0.006634 -0.001118)
 62:   1402.02   0.013215   66.78  0.002941  ( 0.001164 -0.054202  0.001462)
 63:   1413.63   0.002347   11.86  0.000518  ( 0.022747  0.000526 -0.000600)
 64:   1413.83   0.000309    1.56  0.000068  (-0.000236  0.008244  0.000303)
 65:   1441.99   0.000038    0.19  0.000008  ( 0.000086  0.000816 -0.002751)
 66:   1442.58   0.000083    0.42  0.000018  ( 0.003299  0.001084 -0.002444)
 67:   1442.67   0.000146    0.74  0.000032  ( 0.005440 -0.000521  0.001315)
 68:   1448.05   0.000100    0.51  0.000022  (-0.000587  0.002930  0.003554)
 69:   1448.16   0.000018    0.09  0.000004  (-0.001742  0.000023 -0.000933)
 70:   1450.59   0.000229    1.16  0.000049  (-0.000608 -0.006976  0.000436)
 71:   1454.31   0.001148    5.80  0.000246  ( 0.015693 -0.000065 -0.000153)
 72:   1462.27   0.004230   21.37  0.000903  ( 0.000023  0.030007 -0.001482)
 73:   1471.91   0.000376    1.90  0.000080  ( 0.001241  0.000354 -0.008837)
 74:   1472.29   0.003177   16.06  0.000673  ( 0.001157  0.001650  0.025872)
 75:   1476.29   0.000077    0.39  0.000016  (-0.003921  0.000408  0.000851)
 76:   1478.90   0.000955    4.82  0.000201  (-0.001998  0.014019 -0.000964)
 77:   1479.43   0.001859    9.39  0.000392  (-0.019735 -0.001417  0.000775)
 78:   1489.35   0.000046    0.23  0.000010  ( 0.000188  0.003054 -0.000593)
 79:   1636.49   0.037485  189.43  0.007148  ( 0.084542  0.000257 -0.000746)
 80:   1653.96   0.002842   14.36  0.000536  (-0.000272  0.023142  0.000811)
 81:   3070.92   0.002613   13.21  0.000266  (-0.007918  0.014200  0.001091)
 82:   3071.14   0.003197   16.16  0.000325  (-0.007082 -0.016507 -0.001497)
 83:   3072.32   0.003120   15.77  0.000317  (-0.000308 -0.001550  0.017732)
 84:   3072.43   0.003514   17.76  0.000357  ( 0.000525 -0.001128  0.018851)
 85:   3075.97   0.000425    2.15  0.000043  ( 0.006433  0.001295 -0.000139)
 86:   3076.05   0.000253    1.28  0.000026  (-0.002693  0.004279 -0.000295)
 87:   3174.37   0.002728   13.78  0.000268  (-0.000356  0.000193 -0.016370)
 88:   3174.67   0.001170    5.91  0.000115  ( 0.000143  0.000338 -0.010717)
 89:   3178.47   0.001832    9.26  0.000180  ( 0.000784  0.004533 -0.012599)
 90:   3178.71   0.001708    8.63  0.000168  ( 0.001329 -0.004673  0.012005)
 91:   3179.51   0.004001   20.22  0.000393  ( 0.005094  0.018928  0.002910)
 92:   3179.77   0.004429   22.38  0.000435  (-0.004897  0.019968  0.003461)
 93:   3184.44   0.001718    8.68  0.000168  ( 0.000182  0.000465 -0.012965)
 94:   3184.45   0.000095    0.48  0.000009  ( 0.000601 -0.000475 -0.002956)
 95:   3185.00   0.000805    4.07  0.000079  (-0.001568 -0.008681 -0.001033)
 96:   3185.17   0.001218    6.15  0.000119  (-0.002285  0.010677  0.000269)
 97:   3189.69   0.007530   38.05  0.000737  ( 0.026756  0.004540 -0.000423)
 98:   3189.91   0.002801   14.15  0.000274  ( 0.014997 -0.007007  0.000062)
 99:   3306.32   0.004755   24.03  0.000449  ( 0.021175  0.000578 -0.000223)
100:   3323.40   0.006912   34.93  0.000649  ( 0.000539 -0.025456 -0.000843)
101:   3336.31   0.007914   39.99  0.000740  ( 0.000007  0.027193  0.000872)

* The epsilon (eps) is given for a Dirac delta lineshape.
** The dipole moment derivative (T) already includes vibrational overlap.

The first frequency considered to be a vibration is 6
The total number of vibrations considered is 96


--------------------------
THERMOCHEMISTRY AT 298.15K
--------------------------

Temperature         ... 298.15 K
Pressure            ... 1.00 atm
Total Mass          ... 181.30 AMU

Throughout the following assumptions are being made:
  (1) The electronic state is orbitally nondegenerate
  (2) There are no thermally accessible electronically excited states
  (3) Hindered rotations indicated by low frequency modes are not
      treated as such but are treated as vibrations and this may
      cause some error
  (4) All equations used are the standard statistical mechanics
      equations for an ideal gas
  (5) All vibrations are strictly harmonic

freq.      26.47  E(vib)   ...       0.56 
freq.      39.34  E(vib)   ...       0.54 
freq.     120.46  E(vib)   ...       0.44 
freq.     145.70  E(vib)   ...       0.41 
freq.     150.48  E(vib)   ...       0.40 
freq.     226.48  E(vib)   ...       0.33 
freq.     232.20  E(vib)   ...       0.32 
freq.     258.55  E(vib)   ...       0.30 
freq.     264.64  E(vib)   ...       0.29 
freq.     272.43  E(vib)   ...       0.29 
freq.     280.30  E(vib)   ...       0.28 
freq.     332.54  E(vib)   ...       0.24 
freq.     336.85  E(vib)   ...       0.24 
freq.     343.75  E(vib)   ...       0.23 
freq.     354.17  E(vib)   ...       0.22 
freq.     365.37  E(vib)   ...       0.22 
freq.     370.91  E(vib)   ...       0.21 
freq.     401.44  E(vib)   ...       0.19 
freq.     444.34  E(vib)   ...       0.17 
freq.     468.83  E(vib)   ...       0.16 
freq.     470.20  E(vib)   ...       0.16 
freq.     520.46  E(vib)   ...       0.13 
freq.     578.14  E(vib)   ...       0.11 
freq.     639.58  E(vib)   ...       0.09 
freq.     679.13  E(vib)   ...       0.08 
freq.     691.91  E(vib)   ...       0.07 
freq.     773.72  E(vib)   ...       0.05 
freq.     845.78  E(vib)   ...       0.04 
freq.     849.63  E(vib)   ...       0.04 
freq.     891.91  E(vib)   ...       0.03 
freq.     922.49  E(vib)   ...       0.03 
freq.     948.97  E(vib)   ...       0.03 
freq.     949.12  E(vib)   ...       0.03 
freq.     958.70  E(vib)   ...       0.03 
freq.     959.32  E(vib)   ...       0.03 
freq.     969.41  E(vib)   ...       0.03 
freq.     969.73  E(vib)   ...       0.03 
freq.    1022.99  E(vib)   ...       0.02 
freq.    1040.36  E(vib)   ...       0.02 
freq.    1050.06  E(vib)   ...       0.02 
freq.    1051.02  E(vib)   ...       0.02 
freq.    1054.47  E(vib)   ...       0.02 
freq.    1055.30  E(vib)   ...       0.02 
freq.    1124.80  E(vib)   ...       0.01 
freq.    1150.49  E(vib)   ...       0.01 
freq.    1222.78  E(vib)   ...       0.01 
freq.    1236.78  E(vib)   ...       0.01 
freq.    1265.65  E(vib)   ...       0.01 
freq.    1269.62  E(vib)   ...       0.01 
freq.    1277.79  E(vib)   ...       0.01 
freq.    1279.90  E(vib)   ...       0.01 
freq.    1303.84  E(vib)   ...       0.01 
freq.    1356.51  E(vib)   ...       0.01 
freq.    1396.32  E(vib)   ...       0.00 
freq.    1396.54  E(vib)   ...       0.00 
freq.    1401.57  E(vib)   ...       0.00 
freq.    1402.02  E(vib)   ...       0.00 
freq.    1413.63  E(vib)   ...       0.00 
freq.    1413.83  E(vib)   ...       0.00 
freq.    1441.99  E(vib)   ...       0.00 
freq.    1442.58  E(vib)   ...       0.00 
freq.    1442.67  E(vib)   ...       0.00 
freq.    1448.05  E(vib)   ...       0.00 
freq.    1448.16  E(vib)   ...       0.00 
freq.    1450.59  E(vib)   ...       0.00 
freq.    1454.31  E(vib)   ...       0.00 
freq.    1462.27  E(vib)   ...       0.00 
freq.    1471.91  E(vib)   ...       0.00 
freq.    1472.29  E(vib)   ...       0.00 
freq.    1476.29  E(vib)   ...       0.00 
freq.    1478.90  E(vib)   ...       0.00 
freq.    1479.43  E(vib)   ...       0.00 
freq.    1489.35  E(vib)   ...       0.00 
freq.    1636.49  E(vib)   ...       0.00 
freq.    1653.96  E(vib)   ...       0.00 
freq.    3070.92  E(vib)   ...       0.00 
freq.    3071.14  E(vib)   ...       0.00 
freq.    3072.32  E(vib)   ...       0.00 
freq.    3072.43  E(vib)   ...       0.00 
freq.    3075.97  E(vib)   ...       0.00 
freq.    3076.05  E(vib)   ...       0.00 
freq.    3174.37  E(vib)   ...       0.00 
freq.    3174.67  E(vib)   ...       0.00 
freq.    3178.47  E(vib)   ...       0.00 
freq.    3178.71  E(vib)   ...       0.00 
freq.    3179.51  E(vib)   ...       0.00 
freq.    3179.77  E(vib)   ...       0.00 
freq.    3184.44  E(vib)   ...       0.00 
freq.    3184.45  E(vib)   ...       0.00 
freq.    3185.00  E(vib)   ...       0.00 
freq.    3185.17  E(vib)   ...       0.00 
freq.    3189.69  E(vib)   ...       0.00 
freq.    3189.91  E(vib)   ...       0.00 
freq.    3306.32  E(vib)   ...       0.00 
freq.    3323.40  E(vib)   ...       0.00 
freq.    3336.31  E(vib)   ...       0.00 

------------
INNER ENERGY
------------

The inner energy is: U= E(el) + E(ZPE) + E(vib) + E(rot) + E(trans)
    E(el)   - is the total energy from the electronic structure calculation
              = E(kin-el) + E(nuc-el) + E(el-el) + E(nuc-nuc)
    E(ZPE)  - the the zero temperature vibrational energy from the frequency calculation
    E(vib)  - the the finite temperature correction to E(ZPE) due to population
              of excited vibrational states
    E(rot)  - is the rotational thermal energy
    E(trans)- is the translational thermal energy

Summary of contributions to the inner energy U:
Electronic energy                ...   -540.69433090 Eh
Zero point energy                ...      0.31114752 Eh     195.25 kcal/mol
Thermal vibrational correction   ...      0.01164284 Eh       7.31 kcal/mol
Thermal rotational correction    ...      0.00141627 Eh       0.89 kcal/mol
Thermal translational correction ...      0.00141627 Eh       0.89 kcal/mol
-----------------------------------------------------------------------
Total thermal energy                   -540.36870799 Eh


Summary of corrections to the electronic energy:
(perhaps to be used in another calculation)
Total thermal correction                  0.01447538 Eh       9.08 kcal/mol
Non-thermal (ZPE) correction              0.31114752 Eh     195.25 kcal/mol
-----------------------------------------------------------------------
Total correction                          0.32562291 Eh     204.33 kcal/mol


--------
ENTHALPY
--------

The enthalpy is H = U + kB*T
                kB is Boltzmann's constant
Total free energy                 ...   -540.36870799 Eh 
Thermal Enthalpy correction       ...      0.00094421 Eh       0.59 kcal/mol
-----------------------------------------------------------------------
Total Enthalpy                    ...   -540.36776378 Eh


Note: Only C1 symmetry has been detected, increase convergence thresholds 
      if your molecule has a higher symmetry. Symmetry factor of 1.0 is   
      used for the rotational entropy correction. 
 

Note: Rotational entropy computed according to Herzberg 
Infrared and Raman Spectra, Chapter V,1, Van Nostrand Reinhold, 1945 
Point Group:  C1, Symmetry Number:   1  
Rotational constants in cm-1:     0.055417     0.014783     0.013816 

Vibrational entropy computed according to the QRRHO of S. Grimme
Chem.Eur.J. 2012 18 9955


-------
ENTROPY
-------

The entropy contributions are T*S = T*(S(el)+S(vib)+S(rot)+S(trans))
     S(el)   - electronic entropy
     S(vib)  - vibrational entropy
     S(rot)  - rotational entropy
     S(trans)- translational entropy
The entropies will be listed as multiplied by the temperature to get
units of energy

Electronic entropy                ...      0.00000000 Eh      0.00 kcal/mol
Vibrational entropy               ...      0.01973020 Eh     12.38 kcal/mol
Rotational entropy                ...      0.01488748 Eh      9.34 kcal/mol
Translational entropy             ...      0.01971392 Eh     12.37 kcal/mol
-----------------------------------------------------------------------
Final entropy term                ...      0.05433160 Eh     34.09 kcal/mol

In case the symmetry of your molecule has not been determined correctly
or in case you have a reason to use a different symmetry number we print 
out the resulting rotational entropy values for sn=1,12 :
 --------------------------------------------------------
|  sn= 1 | S(rot)=       0.01488748 Eh      9.34 kcal/mol|
|  sn= 2 | S(rot)=       0.01423302 Eh      8.93 kcal/mol|
|  sn= 3 | S(rot)=       0.01385019 Eh      8.69 kcal/mol|
|  sn= 4 | S(rot)=       0.01357856 Eh      8.52 kcal/mol|
|  sn= 5 | S(rot)=       0.01336788 Eh      8.39 kcal/mol|
|  sn= 6 | S(rot)=       0.01319573 Eh      8.28 kcal/mol|
|  sn= 7 | S(rot)=       0.01305019 Eh      8.19 kcal/mol|
|  sn= 8 | S(rot)=       0.01292411 Eh      8.11 kcal/mol|
|  sn= 9 | S(rot)=       0.01281290 Eh      8.04 kcal/mol|
|  sn=10 | S(rot)=       0.01271342 Eh      7.98 kcal/mol|
|  sn=11 | S(rot)=       0.01262343 Eh      7.92 kcal/mol|
|  sn=12 | S(rot)=       0.01254128 Eh      7.87 kcal/mol|
 --------------------------------------------------------


-------------------
GIBBS FREE ENERGY
-------------------

The Gibbs free energy is G = H - T*S

Total enthalpy                    ...   -540.36776378 Eh 
Total entropy correction          ...     -0.05433160 Eh    -34.09 kcal/mol
-----------------------------------------------------------------------
Final Gibbs free energy         ...   -540.42209538 Eh

For completeness - the Gibbs free energy minus the electronic energy
G-E(el)                           ...      0.27223552 Eh    170.83 kcal/mol


Timings for individual modules:

Sum of individual times         ...    13665.183 sec (= 227.753 min)
GTO integral calculation        ...        7.933 sec (=   0.132 min)   0.1 %
SCF iterations                  ...     8512.809 sec (= 141.880 min)  62.3 %
SCF Gradient evaluation         ...     2358.519 sec (=  39.309 min)  17.3 %
Geometry relaxation             ...        1.648 sec (=   0.027 min)   0.0 %
Analytical frequency calculation...     2784.274 sec (=  46.405 min)  20.4 %
                             ****ORCA TERMINATED NORMALLY****
TOTAL RUN TIME: 0 days 3 hours 47 minutes 48 seconds 75 msec
