
                                 *****************
                                 * O   R   C   A *
                                 *****************

                                            #,                                       
                                            ###                                      
                                            ####                                     
                                            #####                                    
                                            ######                                   
                                           ########,                                 
                                     ,,################,,,,,                         
                               ,,#################################,,                 
                          ,,##########################################,,             
                       ,#########################################, ''#####,          
                    ,#############################################,,   '####,        
                  ,##################################################,,,,####,       
                ,###########''''           ''''###############################       
              ,#####''   ,,,,##########,,,,          '''####'''          '####       
            ,##' ,,,,###########################,,,                        '##       
           ' ,,###''''                  '''############,,,                           
         ,,##''                                '''############,,,,        ,,,,,,###''
      ,#''                                            '''#######################'''  
     '                                                          ''''####''''         
             ,#######,   #######,   ,#######,      ##                                
            ,#'     '#,  ##    ##  ,#'     '#,    #''#        ######   ,####,        
            ##       ##  ##   ,#'  ##            #'  '#       #        #'  '#        
            ##       ##  #######   ##           ,######,      #####,   #    #        
            '#,     ,#'  ##    ##  '#,     ,#' ,#      #,         ##   #,  ,#        
             '#######'   ##     ##  '#######'  #'      '#     #####' # '####'        



                  #######################################################
                  #                        -***-                        #
                  #          Department of theory and spectroscopy      #
                  #    Directorship and core code : Frank Neese         #
                  #        Max Planck Institute fuer Kohlenforschung    #
                  #                Kaiser Wilhelm Platz 1               #
                  #                 D-45470 Muelheim/Ruhr               #
                  #                      Germany                        #
                  #                                                     #
                  #                  All rights reserved                #
                  #                        -***-                        #
                  #######################################################


                         Program Version 5.0.4 -  RELEASE  -


 With contributions from (in alphabetic order):
   Daniel Aravena         : Magnetic Suceptibility
   Michael Atanasov       : Ab Initio Ligand Field Theory (pilot matlab implementation)
   Alexander A. Auer      : GIAO ZORA, VPT2 properties, NMR spectrum
   Ute Becker             : Parallelization
   Giovanni Bistoni       : ED, misc. LED, open-shell LED, HFLD
   Martin Brehm           : Molecular dynamics
   Dmytro Bykov           : SCF Hessian
   Vijay G. Chilkuri      : MRCI spin determinant printing, contributions to CSF-ICE
   Dipayan Datta          : RHF DLPNO-CCSD density
   Achintya Kumar Dutta   : EOM-CC, STEOM-CC
   Dmitry Ganyushin       : Spin-Orbit,Spin-Spin,Magnetic field MRCI
   Miquel Garcia          : C-PCM and meta-GGA Hessian, CC/C-PCM, Gaussian charge scheme
   Yang Guo               : DLPNO-NEVPT2, F12-NEVPT2, CIM, IAO-localization
   Andreas Hansen         : Spin unrestricted coupled pair/coupled cluster methods
   Benjamin Helmich-Paris : MC-RPA, TRAH-SCF, COSX integrals
   Lee Huntington         : MR-EOM, pCC
   Robert Izsak           : Overlap fitted RIJCOSX, COSX-SCS-MP3, EOM
   Marcus Kettner         : VPT2
   Christian Kollmar      : KDIIS, OOCD, Brueckner-CCSD(T), CCSD density, CASPT2, CASPT2-K
   Simone Kossmann        : Meta GGA functionals, TD-DFT gradient, OOMP2, MP2 Hessian
   Martin Krupicka        : Initial AUTO-CI
   Lucas Lang             : DCDCAS
   Marvin Lechner         : AUTO-CI (C++ implementation), FIC-MRCC
   Dagmar Lenk            : GEPOL surface, SMD
   Dimitrios Liakos       : Extrapolation schemes; Compound Job, initial MDCI parallelization
   Dimitrios Manganas     : Further ROCIS development; embedding schemes
   Dimitrios Pantazis     : SARC Basis sets
   Anastasios Papadopoulos: AUTO-CI, single reference methods and gradients
   Taras Petrenko         : DFT Hessian,TD-DFT gradient, ASA, ECA, R-Raman, ABS, FL, XAS/XES, NRVS
   Peter Pinski           : DLPNO-MP2, DLPNO-MP2 Gradient
   Christoph Reimann      : Effective Core Potentials
   Marius Retegan         : Local ZFS, SOC
   Christoph Riplinger    : Optimizer, TS searches, QM/MM, DLPNO-CCSD(T), (RO)-DLPNO pert. Triples
   Tobias Risthaus        : Range-separated hybrids, TD-DFT gradient, RPA, STAB
   Michael Roemelt        : Original ROCIS implementation
   Masaaki Saitow         : Open-shell DLPNO-CCSD energy and density
   Barbara Sandhoefer     : DKH picture change effects
   Avijit Sen             : IP-ROCIS
   Kantharuban Sivalingam : CASSCF convergence, NEVPT2, FIC-MRCI
   Bernardo de Souza      : ESD, SOC TD-DFT
   Georgi Stoychev        : AutoAux, RI-MP2 NMR, DLPNO-MP2 response
   Willem Van den Heuvel  : Paramagnetic NMR
   Boris Wezisla          : Elementary symmetry handling
   Frank Wennmohs         : Technical directorship


 We gratefully acknowledge several colleagues who have allowed us to
 interface, adapt or use parts of their codes:
   Stefan Grimme, W. Hujo, H. Kruse, P. Pracht,  : VdW corrections, initial TS optimization,
                  C. Bannwarth, S. Ehlert          DFT functionals, gCP, sTDA/sTD-DF
   Ed Valeev, F. Pavosevic, A. Kumar             : LibInt (2-el integral package), F12 methods
   Garnet Chan, S. Sharma, J. Yang, R. Olivares  : DMRG
   Ulf Ekstrom                                   : XCFun DFT Library
   Mihaly Kallay                                 : mrcc  (arbitrary order and MRCC methods)
   Jiri Pittner, Ondrej Demel                    : Mk-CCSD
   Frank Weinhold                                : gennbo (NPA and NBO analysis)
   Christopher J. Cramer and Donald G. Truhlar   : smd solvation model
   Lars Goerigk                                  : TD-DFT with DH, B97 family of functionals
   V. Asgeirsson, H. Jonsson                     : NEB implementation
   FAccTs GmbH                                   : IRC, NEB, NEB-TS, DLPNO-Multilevel, CI-OPT
                                                   MM, QMMM, 2- and 3-layer-ONIOM, Crystal-QMMM,
                                                   LR-CPCM, SF, NACMEs, symmetry and pop. for TD-DFT,
                                                   nearIR, NL-DFT gradient (VV10), updates on ESD,
                                                   ML-optimized integration grids
   S Lehtola, MJT Oliveira, MAL Marques          : LibXC Library
   Liviu Ungur et al                             : ANISO software


 Your calculation uses the libint2 library for the computation of 2-el integrals
 For citations please refer to: http://libint.valeyev.net

 Your ORCA version has been built with support for libXC version: 5.1.0
 For citations please refer to: https://tddft.org/programs/libxc/

 This ORCA versions uses:
   CBLAS   interface :  Fast vector & matrix operations
   LAPACKE interface :  Fast linear algebra routines
   SCALAPACK package :  Parallel linear algebra routines
   Shared memory     :  Shared parallel matrices
   BLAS/LAPACK       :  OpenBLAS 0.3.15  USE64BITINT DYNAMIC_ARCH NO_AFFINITY SkylakeX SINGLE_THREADED
        Core in use  :  SkylakeX
   Copyright (c) 2011-2014, The OpenBLAS Project




***************************************
The coordinates will be read from file: 6_deprot_aq_3.xyz
***************************************


Your calculation utilizes the atom-pairwise dispersion correction
based on tight binding partial charges (D4)
Cite in your paper:
E.Caldeweyher, C.Bannwarth, S.Grimme, J.Chem.Phys., (2017), 147, 034112.
E.Caldeweyher, S.Ehlert, A.Hansen, H.Neugebauer, S.Grimme, J.Chem.Phys., (2018), in progress.
   

XCFun DFT library Copyright 2009-2010 Ulf Ekstrom and contributors.
See http://admol.org/xcfun for more information.
This is free software; see the source code for copying conditions.
There is ABSOLUTELY NO WARRANTY; not even for MERCHANTABILITY or FITNESS FOR A PARTICULAR PURPOSE.
For details see the documentation.
Scientific users of this library should cite U. Ekstrom, L. Visscher, R. Bast, A. J. Thorvaldsen and K. Ruud;
J.Chem.Theor.Comp. 2010, DOI: 10.1021/ct100117s
XCFun Version 0.99 

================================================================================

----- Orbital basis set information -----
Your calculation utilizes the basis: def2-SVP
   F. Weigend and R. Ahlrichs, Phys. Chem. Chem. Phys. 7, 3297 (2005).

----- AuxJ basis set information -----
Your calculation utilizes the auxiliary basis: def2/J
   F. Weigend, Phys. Chem. Chem. Phys. 8, 1057 (2006).

================================================================================
                                        WARNINGS
                       Please study these warnings very carefully!
================================================================================


WARNING: Geometry Optimization
  ===> : Switching off AutoStart
         For restart on a previous wavefunction, please use MOREAD

INFO   : the flag for use of the SHARK integral package has been found!

================================================================================
                                       INPUT FILE
================================================================================
NAME = 6_deprot_aq_3.inp
|  1> # ORCA 5.0.4 - /users/bwb16179/postgrad/2024_03/DFT_Crest_Conformers/Opt/deprot/6_deprot_aq_3.inp # write input file
|  2> # Basic Mode
|  3> #
|  4> ! Opt Freq wB97X Def2-SVP D4 SlowConv TightSCF Defgrid2 Def2/J RIJCOSX CPCM(Water)
|  5> 
|  6> 
|  7> 
|  8> %maxcore 4500
|  9> 
| 10> %geom
| 11> Maxiter 150
| 12> END
| 13> 
| 14> * xyzfile 0 1 6_deprot_aq_3.xyz
| 15> 
| 16>                          ****END OF INPUT****
================================================================================

                       *****************************
                       * Geometry Optimization Run *
                       *****************************

Geometry optimization settings:
Update method            Update   .... BFGS
Choice of coordinates    CoordSys .... Z-matrix Internals
Initial Hessian          InHess   .... Almoef's Model

Convergence Tolerances:
Energy Change            TolE     ....  5.0000e-06 Eh
Max. Gradient            TolMAXG  ....  3.0000e-04 Eh/bohr
RMS Gradient             TolRMSG  ....  1.0000e-04 Eh/bohr
Max. Displacement        TolMAXD  ....  4.0000e-03 bohr
RMS Displacement         TolRMSD  ....  2.0000e-03 bohr
Strict Convergence                ....  False
------------------------------------------------------------------------------
                        ORCA OPTIMIZATION COORDINATE SETUP
------------------------------------------------------------------------------

The optimization will be done in new redundant internal coordinates
Making redundant internal coordinates   ...  (new redundants) done
Evaluating the initial hessian          ...  (Almloef) done
Evaluating the coordinates              ...  done
Calculating the B-matrix                .... done
Calculating the G-matrix                .... done
Diagonalizing the G-matrix              .... done
Small eigenvalue found = 1.150e-02
Small eigenvalue found = 2.182e-02
Small eigenvalue found = 2.339e-02
The first mode is                       ....   77
The number of degrees of freedom        ....   93

    -----------------------------------------------------------------
                    Redundant Internal Coordinates


    -----------------------------------------------------------------
         Definition                    Initial Value    Approx d2E/dq
    -----------------------------------------------------------------
      1. B(C   1,N   0)                  1.3567         0.632418   
      2. B(N   2,C   1)                  1.3567         0.632329   
      3. B(C   3,N   2)                  1.3821         0.576168   
      4. B(C   4,N   0)                  1.3821         0.576111   
      5. B(C   4,C   3)                  1.3610         0.695161   
      6. B(C   5,N   0)                  1.4452         0.456808   
      7. B(C   6,N   2)                  1.4453         0.456776   
      8. B(C   7,C   5)                  1.5279         0.376433   
      9. B(H   8,C   5)                  1.0954         0.353090   
     10. B(C   9,C   5)                  1.5294         0.374334   
     11. B(H  10,C   6)                  1.0953         0.353158   
     12. B(C  11,C   6)                  1.5281         0.376170   
     13. B(C  12,C   6)                  1.5293         0.374590   
     14. B(C  13,C   3)                  1.4883         0.435487   
     15. B(C  14,C   4)                  1.4882         0.435504   
     16. B(H  15,C   9)                  1.0881         0.362574   
     17. B(H  16,C   9)                  1.0867         0.364465   
     18. B(H  17,C   9)                  1.0869         0.364237   
     19. B(H  18,C   7)                  1.0868         0.364316   
     20. B(H  19,C   7)                  1.0863         0.365073   
     21. B(H  20,C   7)                  1.0878         0.363085   
     22. B(H  21,C  12)                  1.0869         0.364251   
     23. B(H  22,C  12)                  1.0867         0.364552   
     24. B(H  23,C  12)                  1.0881         0.362630   
     25. B(H  24,C  11)                  1.0863         0.365001   
     26. B(H  25,C  11)                  1.0869         0.364290   
     27. B(H  26,C  11)                  1.0878         0.362996   
     28. B(H  27,C  14)                  1.0869         0.364174   
     29. B(H  28,C  14)                  1.0910         0.358827   
     30. B(H  29,C  14)                  1.0912         0.358511   
     31. B(H  30,C  13)                  1.0910         0.358777   
     32. B(H  31,C  13)                  1.0870         0.364150   
     33. B(H  32,C  13)                  1.0912         0.358510   
     34. A(C   4,N   0,C   5)          126.0197         0.400518   
     35. A(C   1,N   0,C   5)          121.9223         0.407163   
     36. A(C   1,N   0,C   4)          112.0432         0.424319   
     37. A(N   0,C   1,N   2)          103.5373         0.431460   
     38. A(C   1,N   2,C   6)          121.8744         0.407148   
     39. A(C   1,N   2,C   3)          112.0468         0.424316   
     40. A(C   3,N   2,C   6)          126.0704         0.400520   
     41. A(N   2,C   3,C  13)          123.5672         0.399730   
     42. A(C   4,C   3,C  13)          130.2498         0.415908   
     43. A(N   2,C   3,C   4)          106.1830         0.434425   
     44. A(N   0,C   4,C   3)          106.1883         0.434418   
     45. A(N   0,C   4,C  14)          123.5629         0.399725   
     46. A(C   3,C   4,C  14)          130.2488         0.415911   
     47. A(N   0,C   5,C   9)          109.5504         0.373899   
     48. A(H   8,C   5,C   9)          109.2093         0.323382   
     49. A(C   7,C   5,H   8)          109.2025         0.323679   
     50. A(C   7,C   5,C   9)          110.8804         0.363951   
     51. A(N   0,C   5,H   8)          108.3655         0.332169   
     52. A(N   0,C   5,C   7)          109.5889         0.374259   
     53. A(H  10,C   6,C  11)          109.2093         0.323652   
     54. A(N   2,C   6,C  11)          109.5758         0.374210   
     55. A(C  11,C   6,C  12)          110.8772         0.363950   
     56. A(H  10,C   6,C  12)          109.2151         0.323428   
     57. A(N   2,C   6,C  12)          109.5440         0.373938   
     58. A(N   2,C   6,H  10)          108.3761         0.332175   
     59. A(H  19,C   7,H  20)          108.5304         0.291846   
     60. A(H  18,C   7,H  20)          108.8584         0.291750   
     61. A(C   5,C   7,H  20)          110.3656         0.325166   
     62. A(H  18,C   7,H  19)          109.5144         0.292001   
     63. A(C   5,C   7,H  19)          109.1223         0.325458   
     64. A(C   5,C   7,H  18)          110.4189         0.325347   
     65. A(H  16,C   9,H  17)          109.3224         0.291915   
     66. A(C   5,C   9,H  16)          109.1680         0.325070   
     67. A(H  15,C   9,H  16)          108.5793         0.291705   
     68. A(H  15,C   9,H  17)          108.7884         0.291676   
     69. A(C   5,C   9,H  15)          110.4494         0.324792   
     70. A(C   5,C   9,H  17)          110.4989         0.325036   
     71. A(H  25,C  11,H  26)          108.8510         0.291736   
     72. A(H  24,C  11,H  26)          108.5393         0.291825   
     73. A(H  24,C  11,H  25)          109.4930         0.291989   
     74. A(C   6,C  11,H  25)          110.4344         0.325306   
     75. A(C   6,C  11,H  24)          109.1209         0.325410   
     76. A(C   6,C  11,H  26)          110.3711         0.325115   
     77. A(H  22,C  12,H  23)          108.5776         0.291723   
     78. A(H  21,C  12,H  23)          108.7958         0.291685   
     79. A(C   6,C  12,H  23)          110.4341         0.324837   
     80. A(H  21,C  12,H  22)          109.3459         0.291927   
     81. A(C   6,C  12,H  22)          109.1543         0.325119   
     82. A(C   6,C  12,H  21)          110.4992         0.325075   
     83. A(H  31,C  13,H  32)          108.1791         0.291148   
     84. A(H  30,C  13,H  32)          108.3291         0.290469   
     85. A(H  30,C  13,H  31)          108.2361         0.291182   
     86. A(C   3,C  13,H  31)          109.9098         0.333247   
     87. A(C   3,C  13,H  30)          111.0392         0.332427   
     88. A(C   3,C  13,H  32)          111.0517         0.332386   
     89. A(H  28,C  14,H  29)          108.3233         0.290476   
     90. A(H  27,C  14,H  29)          108.1746         0.291152   
     91. A(C   4,C  14,H  29)          111.0549         0.332388   
     92. A(H  27,C  14,H  28)          108.2423         0.291192   
     93. A(C   4,C  14,H  28)          111.0390         0.332437   
     94. A(C   4,C  14,H  27)          109.9107         0.333253   
     95. D(N   2,C   1,N   0,C   4)     -0.3710         0.029430   
     96. D(N   2,C   1,N   0,C   5)   -179.0541         0.029430   
     97. D(C   3,N   2,C   1,N   0)      0.3438         0.029421   
     98. D(C   6,N   2,C   1,N   0)    179.3520         0.029421   
     99. D(C  13,C   3,N   2,C   1)    179.8759         0.026603   
    100. D(C   4,C   3,N   2,C   6)   -179.1529         0.026603   
    101. D(C  13,C   3,N   2,C   6)      0.9179         0.026603   
    102. D(C   4,C   3,N   2,C   1)     -0.1948         0.026603   
    103. D(C  14,C   4,C   3,N   2)   -179.9361         0.033996   
    104. D(C  14,C   4,N   0,C   5)     -1.2125         0.026598   
    105. D(N   0,C   4,C   3,N   2)     -0.0412         0.033996   
    106. D(N   0,C   4,C   3,C  13)    179.8816         0.033996   
    107. D(C   3,C   4,N   0,C   5)    178.8838         0.026598   
    108. D(C   3,C   4,N   0,C   1)      0.2658         0.026598   
    109. D(C  14,C   4,C   3,C  13)     -0.0133         0.033996   
    110. D(C  14,C   4,N   0,C   1)   -179.8305         0.026598   
    111. D(H   8,C   5,N   0,C   4)      7.5150         0.017809   
    112. D(C   9,C   5,N   0,C   4)   -111.5485         0.017809   
    113. D(H   8,C   5,N   0,C   1)   -173.9943         0.017809   
    114. D(C   9,C   5,N   0,C   1)     66.9423         0.017809   
    115. D(C   7,C   5,N   0,C   1)    -54.9168         0.017809   
    116. D(C   7,C   5,N   0,C   4)    126.5925         0.017809   
    117. D(C  12,C   6,N   2,C   3)    113.4378         0.017806   
    118. D(C  11,C   6,N   2,C   3)   -124.7197         0.017806   
    119. D(C  11,C   6,N   2,C   1)     56.4176         0.017806   
    120. D(C  12,C   6,N   2,C   1)    -65.4249         0.017806   
    121. D(H  10,C   6,N   2,C   3)     -5.6352         0.017806   
    122. D(H  10,C   6,N   2,C   1)    175.5021         0.017806   
    123. D(H  18,C   7,C   5,H   8)    -62.1851         0.011305   
    124. D(H  18,C   7,C   5,N   0)    179.2548         0.011305   
    125. D(H  18,C   7,C   5,C   9)     58.1963         0.011305   
    126. D(H  20,C   7,C   5,C   9)    178.6001         0.011305   
    127. D(H  20,C   7,C   5,H   8)     58.2187         0.011305   
    128. D(H  19,C   7,C   5,C   9)    -62.2234         0.011305   
    129. D(H  20,C   7,C   5,N   0)    -60.3414         0.011305   
    130. D(H  19,C   7,C   5,H   8)    177.3952         0.011305   
    131. D(H  19,C   7,C   5,N   0)     58.8351         0.011305   
    132. D(H  17,C   9,C   5,H   8)     61.3847         0.011186   
    133. D(H  17,C   9,C   5,C   7)    -58.9927         0.011186   
    134. D(H  17,C   9,C   5,N   0)    179.9260         0.011186   
    135. D(H  16,C   9,C   5,H   8)   -178.3540         0.011186   
    136. D(H  16,C   9,C   5,C   7)     61.2686         0.011186   
    137. D(H  16,C   9,C   5,N   0)    -59.8126         0.011186   
    138. D(H  15,C   9,C   5,H   8)    -59.0383         0.011186   
    139. D(H  15,C   9,C   5,C   7)   -179.4157         0.011186   
    140. D(H  15,C   9,C   5,N   0)     59.5031         0.011186   
    141. D(H  26,C  11,C   6,H  10)    -58.3127         0.011290   
    142. D(H  26,C  11,C   6,N   2)     60.2566         0.011290   
    143. D(H  25,C  11,C   6,C  12)    -58.2955         0.011290   
    144. D(H  25,C  11,C   6,H  10)     62.0955         0.011290   
    145. D(H  25,C  11,C   6,N   2)   -179.3352         0.011290   
    146. D(H  24,C  11,C   6,C  12)     62.1065         0.011290   
    147. D(H  24,C  11,C   6,H  10)   -177.5025         0.011290   
    148. D(H  26,C  11,C   6,C  12)   -178.7036         0.011290   
    149. D(H  24,C  11,C   6,N   2)    -58.9333         0.011290   
    150. D(H  23,C  12,C   6,N   2)    -59.5939         0.011201   
    151. D(H  22,C  12,C   6,C  11)    -61.3566         0.011201   
    152. D(H  22,C  12,C   6,H  10)    178.2558         0.011201   
    153. D(H  22,C  12,C   6,N   2)     59.7019         0.011201   
    154. D(H  21,C  12,C   6,C  11)     58.9252         0.011201   
    155. D(H  21,C  12,C   6,H  10)    -61.4624         0.011201   
    156. D(H  23,C  12,C   6,H  10)     58.9600         0.011201   
    157. D(H  21,C  12,C   6,N   2)    179.9837         0.011201   
    158. D(H  23,C  12,C   6,C  11)    179.3476         0.011201   
    159. D(H  32,C  13,C   3,C   4)   -118.7163         0.013999   
    160. D(H  32,C  13,C   3,N   2)     61.1947         0.013999   
    161. D(H  31,C  13,C   3,C   4)      0.9508         0.013999   
    162. D(H  31,C  13,C   3,N   2)   -179.1382         0.013999   
    163. D(H  30,C  13,C   3,C   4)    120.6808         0.013999   
    164. D(H  30,C  13,C   3,N   2)    -59.4082         0.013999   
    165. D(H  29,C  14,C   4,C   3)    118.5643         0.014000   
    166. D(H  29,C  14,C   4,N   0)    -61.3146         0.014000   
    167. D(H  28,C  14,C   4,C   3)   -120.8381         0.014000   
    168. D(H  28,C  14,C   4,N   0)     59.2830         0.014000   
    169. D(H  27,C  14,C   4,C   3)     -1.0997         0.014000   
    170. D(H  27,C  14,C   4,N   0)    179.0214         0.014000   
    -----------------------------------------------------------------

Number of atoms                         .... 33
Number of degrees of freedom            .... 170

         *************************************************************
         *                GEOMETRY OPTIMIZATION CYCLE   1            *
         *************************************************************
---------------------------------
CARTESIAN COORDINATES (ANGSTROEM)
---------------------------------
  N     -1.066095   -0.025499   -0.007245
  C     -0.001428   -0.864286   -0.066855
  N      1.064482   -0.024899   -0.068403
  C      0.680612    1.301203   -0.003776
  C     -0.679761    1.300789    0.035882
  C     -2.424613   -0.516801    0.035027
  C      2.422932   -0.516459   -0.110534
  C     -2.671509   -1.443371   -1.154539
  H     -3.103705    0.340256   -0.028857
  C     -2.662772   -1.250183    1.355876
  H      3.098741    0.342300   -0.184678
  C      2.606842   -1.408404   -1.337623
  C      2.728035   -1.287561    1.174360
  C      1.642740    2.436526    0.012374
  C     -1.639969    2.435526    0.108338
  H     -2.495073   -0.581378    2.197670
  H     -1.968809   -2.083021    1.431745
  H     -3.681655   -1.625471    1.404520
  H     -3.686396   -1.831366   -1.128710
  H     -1.966383   -2.268727   -1.115068
  H     -2.523854   -0.906948   -2.089234
  H      3.747184   -1.664928    1.158898
  H      2.036747   -2.121331    1.262497
  H      2.606041   -0.642863    2.042364
  H      1.904989   -2.235852   -1.284491
  H      3.621652   -1.795551   -1.376665
  H      2.410026   -0.845808   -2.247624
  H     -1.098137    3.376904    0.149051
  H     -2.265698    2.362839    0.999058
  H     -2.290703    2.454956   -0.767388
  H      2.317574    2.365921    0.866716
  H      1.103499    3.377739    0.081731
  H      2.243155    2.454487   -0.898617

----------------------------
CARTESIAN COORDINATES (A.U.)
----------------------------
  NO LB      ZA    FRAG     MASS         X           Y           Z
   0 N     7.0000    0    14.007   -2.014628   -0.048186   -0.013690
   1 C     6.0000    0    12.011   -0.002698   -1.633264   -0.126337
   2 N     7.0000    0    14.007    2.011580   -0.047052   -0.129262
   3 C     6.0000    0    12.011    1.286169    2.458917   -0.007136
   4 C     6.0000    0    12.011   -1.284562    2.458136    0.067807
   5 C     6.0000    0    12.011   -4.581855   -0.976613    0.066192
   6 C     6.0000    0    12.011    4.578678   -0.975965   -0.208879
   7 C     6.0000    0    12.011   -5.048420   -2.727575   -2.181762
   8 H     1.0000    0     1.008   -5.865152    0.642991   -0.054532
   9 C     6.0000    0    12.011   -5.031909   -2.362503    2.562235
  10 H     1.0000    0     1.008    5.855771    0.646853   -0.348992
  11 C     6.0000    0    12.011    4.926218   -2.661498   -2.527741
  12 C     6.0000    0    12.011    5.155240   -2.433137    2.219220
  13 C     6.0000    0    12.011    3.104328    4.604367    0.023384
  14 C     6.0000    0    12.011   -3.099093    4.602477    0.204729
  15 H     1.0000    0     1.008   -4.715004   -1.098645    4.152995
  16 H     1.0000    0     1.008   -3.720510   -3.936340    2.705606
  17 H     1.0000    0     1.008   -6.957320   -3.071695    2.654157
  18 H     1.0000    0     1.008   -6.966278   -3.460780   -2.132952
  19 H     1.0000    0     1.008   -3.715925   -4.287273   -2.107173
  20 H     1.0000    0     1.008   -4.769393   -1.713884   -3.948080
  21 H     1.0000    0     1.008    7.081152   -3.146258    2.190000
  22 H     1.0000    0     1.008    3.848894   -4.008734    2.385773
  23 H     1.0000    0     1.008    4.924704   -1.214834    3.859509
  24 H     1.0000    0     1.008    3.599907   -4.225148   -2.427336
  25 H     1.0000    0     1.008    6.843930   -3.393099   -2.601521
  26 H     1.0000    0     1.008    4.554289   -1.598346   -4.247393
  27 H     1.0000    0     1.008   -2.075177    6.381424    0.281665
  28 H     1.0000    0     1.008   -4.281548    4.465119    1.887947
  29 H     1.0000    0     1.008   -4.328800    4.639195   -1.450153
  30 H     1.0000    0     1.008    4.379580    4.470942    1.637856
  31 H     1.0000    0     1.008    2.085311    6.383002    0.154449
  32 H     1.0000    0     1.008    4.238950    4.638309   -1.698140

--------------------------------
INTERNAL COORDINATES (ANGSTROEM)
--------------------------------
 N      0   0   0     0.000000000000     0.00000000     0.00000000
 C      1   0   0     1.356699711712     0.00000000     0.00000000
 N      2   1   0     1.356737848057   103.53731112     0.00000000
 C      3   2   1     1.382056445173   112.04682458     0.34379626
 C      4   3   2     1.360950266873   106.18301133   359.80518172
 C      1   2   3     1.445246159344   121.92231584   180.94592238
 C      3   2   1     1.445265355794   121.87439044   179.35203756
 C      6   1   2     1.527925384694   109.58894154   305.08321576
 H      6   1   2     1.095351150252   108.36546152   186.00572908
 C      6   1   2     1.529447661902   109.55041259    66.94225690
 H      7   3   2     1.095299126903   108.37608244   175.50206872
 C      7   3   2     1.528115715820   109.57577460    56.41761322
 C      7   3   2     1.529261270356   109.54400194   294.57509848
 C      4   3   2     1.488257437137   123.56718298   179.87592375
 C      5   4   3     1.488246694963   130.24876769   180.06390552
 H     10   6   1     1.088135908654   110.44938363    59.50308703
 H     10   6   1     1.086719907012   109.16801140   300.18738860
 H     10   6   1     1.086890622656   110.49892635   179.92604620
 H      8   6   1     1.086831714514   110.41885477   179.25479502
 H      8   6   1     1.086266143895   109.12229106    58.83512684
 H      8   6   1     1.087752645144   110.36563345   299.65859934
 H     13   7   3     1.086880437389   110.49922027   179.98368974
 H     13   7   3     1.086655309912   109.15432734    59.70190494
 H     13   7   3     1.088094012737   110.43406332   300.40610622
 H     12   7   3     1.086319909039   109.12094565   301.06673239
 H     12   7   3     1.086851127862   110.43443769   180.66476846
 H     12   7   3     1.087819856370   110.37109969    60.25660863
 H     15   5   4     1.086937286207   109.91072576   358.90025945
 H     15   5   4     1.090963823195   111.03904088   239.16191769
 H     15   5   4     1.091204000949   111.05494168   118.56426819
 H     14   4   3     1.091002194248   111.03917100   300.59182033
 H     14   4   3     1.086955702766   109.90980669   180.86175615
 H     14   4   3     1.091204245628   111.05172705    61.19473314

---------------------------
INTERNAL COORDINATES (A.U.)
---------------------------
 N      0   0   0     0.000000000000     0.00000000     0.00000000
 C      1   0   0     2.563790901106     0.00000000     0.00000000
 N      2   1   0     2.563862968353   103.53731112     0.00000000
 C      3   2   1     2.611708182998   112.04682458     0.34379626
 C      4   3   2     2.571823286277   106.18301133   359.80518172
 C      1   2   3     2.731119437262   121.92231584   180.94592238
 C      3   2   1     2.731155713294   121.87439044   179.35203756
 C      6   1   2     2.887360530139   109.58894154   305.08321576
 H      6   1   2     2.069913694452   108.36546152   186.00572908
 C      6   1   2     2.890237217161   109.55041259    66.94225690
 H      7   3   2     2.069815384570   108.37608244   175.50206872
 C      7   3   2     2.887720203840   109.57577460    56.41761322
 C      7   3   2     2.889884988185   109.54400194   294.57509848
 C      4   3   2     2.812398972960   123.56718298   179.87592375
 C      5   4   3     2.812378673193   130.24876769   180.06390552
 H     10   6   1     2.056278863843   110.44938363    59.50308703
 H     10   6   1     2.053603008532   109.16801140   300.18738860
 H     10   6   1     2.053925614347   110.49892635   179.92604620
 H      8   6   1     2.053814294092   110.41885477   179.25479502
 H      8   6   1     2.052745520512   109.12229106    58.83512684
 H      8   6   1     2.055554600771   110.36563345   299.65859934
 H     13   7   3     2.053906366982   110.49922027   179.98368974
 H     13   7   3     2.053480937706   109.15432734    59.70190494
 H     13   7   3     2.056199692032   110.43406332   300.40610622
 H     12   7   3     2.052847121910   109.12094565   301.06673239
 H     12   7   3     2.053850980003   110.43443769   180.66476846
 H     12   7   3     2.055681611580   110.37109969    60.25660863
 H     15   5   4     2.054013795679   109.91072576   358.90025945
 H     15   5   4     2.061622847855   111.03904088   239.16191769
 H     15   5   4     2.062076718032   111.05494168   118.56426819
 H     14   4   3     2.061695358636   111.03917100   300.59182033
 H     14   4   3     2.054048597931   109.90980669   180.86175615
 H     14   4   3     2.062077180408   111.05172705    61.19473314

---------------------
BASIS SET INFORMATION
---------------------
There are 3 groups of distinct atoms

 Group   1 Type N   : 7s4p1d contracted to 3s2p1d pattern {511/31/1}
 Group   2 Type C   : 7s4p1d contracted to 3s2p1d pattern {511/31/1}
 Group   3 Type H   : 4s1p contracted to 2s1p pattern {31/1}

Atom   0N    basis set group =>   1
Atom   1C    basis set group =>   2
Atom   2N    basis set group =>   1
Atom   3C    basis set group =>   2
Atom   4C    basis set group =>   2
Atom   5C    basis set group =>   2
Atom   6C    basis set group =>   2
Atom   7C    basis set group =>   2
Atom   8H    basis set group =>   3
Atom   9C    basis set group =>   2
Atom  10H    basis set group =>   3
Atom  11C    basis set group =>   2
Atom  12C    basis set group =>   2
Atom  13C    basis set group =>   2
Atom  14C    basis set group =>   2
Atom  15H    basis set group =>   3
Atom  16H    basis set group =>   3
Atom  17H    basis set group =>   3
Atom  18H    basis set group =>   3
Atom  19H    basis set group =>   3
Atom  20H    basis set group =>   3
Atom  21H    basis set group =>   3
Atom  22H    basis set group =>   3
Atom  23H    basis set group =>   3
Atom  24H    basis set group =>   3
Atom  25H    basis set group =>   3
Atom  26H    basis set group =>   3
Atom  27H    basis set group =>   3
Atom  28H    basis set group =>   3
Atom  29H    basis set group =>   3
Atom  30H    basis set group =>   3
Atom  31H    basis set group =>   3
Atom  32H    basis set group =>   3
---------------------------------
AUXILIARY/J BASIS SET INFORMATION
---------------------------------
There are 3 groups of distinct atoms

 Group   1 Type N   : 12s5p4d2f1g contracted to 6s4p3d1f1g pattern {711111/2111/211/2/1}
 Group   2 Type C   : 12s5p4d2f1g contracted to 6s4p3d1f1g pattern {711111/2111/211/2/1}
 Group   3 Type H   : 5s2p1d contracted to 3s1p1d pattern {311/2/1}

Atom   0N    basis set group =>   1
Atom   1C    basis set group =>   2
Atom   2N    basis set group =>   1
Atom   3C    basis set group =>   2
Atom   4C    basis set group =>   2
Atom   5C    basis set group =>   2
Atom   6C    basis set group =>   2
Atom   7C    basis set group =>   2
Atom   8H    basis set group =>   3
Atom   9C    basis set group =>   2
Atom  10H    basis set group =>   3
Atom  11C    basis set group =>   2
Atom  12C    basis set group =>   2
Atom  13C    basis set group =>   2
Atom  14C    basis set group =>   2
Atom  15H    basis set group =>   3
Atom  16H    basis set group =>   3
Atom  17H    basis set group =>   3
Atom  18H    basis set group =>   3
Atom  19H    basis set group =>   3
Atom  20H    basis set group =>   3
Atom  21H    basis set group =>   3
Atom  22H    basis set group =>   3
Atom  23H    basis set group =>   3
Atom  24H    basis set group =>   3
Atom  25H    basis set group =>   3
Atom  26H    basis set group =>   3
Atom  27H    basis set group =>   3
Atom  28H    basis set group =>   3
Atom  29H    basis set group =>   3
Atom  30H    basis set group =>   3
Atom  31H    basis set group =>   3
Atom  32H    basis set group =>   3
------------------------------------------------------------------------------
                           ORCA GTO INTEGRAL CALCULATION
                           -- RI-GTO INTEGRALS CHOSEN --
------------------------------------------------------------------------------
------------------------------------------------------------------------------
                   ___                                                        
                  /   \      - P O W E R E D   B Y -                         
                 /     \                                                     
                 |  |  |   _    _      __       _____    __    __             
                 |  |  |  | |  | |    /  \     |  _  \  |  |  /  |          
                  \  \/   | |  | |   /    \    | | | |  |  | /  /          
                 / \  \   | |__| |  /  /\  \   | |_| |  |  |/  /          
                |  |  |   |  __  | /  /__\  \  |    /   |      \           
                |  |  |   | |  | | |   __   |  |    \   |  |\   \          
                \     /   | |  | | |  |  |  |  | |\  \  |  | \   \       
                 \___/    |_|  |_| |__|  |__|  |_| \__\ |__|  \__/        
                                                                              
                      - O R C A' S   B I G   F R I E N D -                    
                                      &                                       
                       - I N T E G R A L  F E E D E R -                       
                                                                              
 v1 FN, 2020, v2 2021                                                         
------------------------------------------------------------------------------


Reading SHARK input file 6_deprot_aq_3.SHARKINP.tmp ... ok
----------------------
SHARK INTEGRAL PACKAGE
----------------------

Number of atoms                             ...     33
Number of basis functions                   ...    282
Number of shells                            ...    138
Maximum angular momentum                    ...      2
Integral batch strategy                     ... SHARK/LIBINT Hybrid
RI-J (if used) integral strategy            ... SPLIT-RIJ (Revised 2003 algorithm where possible)
Printlevel                                  ...      1
Contraction scheme used                     ... SEGMENTED contraction
Coulomb Range Separation                    ... NOT USED
Exchange Range Separation                   ... Long Range
   Mu parameter                             ...  0.300000
   Scaling (regular/separated)              ...  0.157706  0.842294
Finite Nucleus Model                        ... NOT USED
Auxiliary Coulomb fitting basis             ... AVAILABLE
   # of basis functions in Aux-J            ...    857
   # of shells in Aux-J                     ...    295
   Maximum angular momentum in Aux-J        ...      4
Auxiliary J/K fitting basis                 ... NOT available
Auxiliary Correlation fitting basis         ... NOT available
Auxiliary 'external' fitting basis          ... NOT available
Integral threshold                          ...     2.500000e-11
Primitive cut-off                           ...     2.500000e-12
Primitive pair pre-selection threshold      ...     2.500000e-12

Calculating pre-screening integrals         ... done (  0.1 sec) Dimension = 138
Organizing shell pair data                  ... done (  0.1 sec)
Shell pair information
Total number of shell pairs                 ...      9591
Shell pairs after pre-screening             ...      8260
Total number of primitive shell pairs       ...     33125
Primitive shell pairs kept                  ...     19703
          la=0 lb=0:   2813 shell pairs
          la=1 lb=0:   3124 shell pairs
          la=1 lb=1:    886 shell pairs
          la=2 lb=0:    877 shell pairs
          la=2 lb=1:    483 shell pairs
          la=2 lb=2:     77 shell pairs

Calculating one electron integrals          ... done (  0.1 sec)
Calculating RI/J V-Matrix + Cholesky decomp.... done (  0.1 sec)
Calculating Nuclear repulsion               ... done (  0.0 sec) ENN=    859.213712905409 Eh

SHARK setup successfully completed in   0.4 seconds

Maximum memory used throughout the entire GTOINT-calculation: 47.5 MB
-------------------------------------------------------------------------------
                                 ORCA SCF
-------------------------------------------------------------------------------

------------
SCF SETTINGS
------------
Hamiltonian:
 Density Functional     Method          .... DFT(GTOs)
 Exchange Functional    Exchange        .... WB97X
 Correlation Functional Correlation     .... WB97X
 Gradients option       PostSCFGGA      .... off
 Hybrid DFT is turned on
   Fraction HF Exchange ScalHFX         ....  0.157706
   Scaling of DF-GGA-X  ScalDFX         ....  0.000000
   Scaling of DF-GGA-C  ScalDFC         ....  1.000000
   Scaling of DF-LDA-C  ScalLDAC        ....  1.000000
   Perturbative correction              ....  0.000000
   Density functional embedding theory  .... OFF
 Long-range corrected/Screened/Range-Separated Hybrid DFT is turned on
   Amount of maximum screened exact exchange              ....  0.842294
   Range separation parameter mu (erf(mu*r12)/r12)        ....  0.300000
 RI-approximation to the Coulomb term is turned on
   Number of AuxJ basis functions       .... 857
   RIJ-COSX (HFX calculated with COS-X)).... on


General Settings:
 Integral files         IntName         .... 6_deprot_aq_3
 Hartree-Fock type      HFTyp           .... RHF
 Total Charge           Charge          ....    0
 Multiplicity           Mult            ....    1
 Number of Electrons    NEL             ....  100
 Basis Dimension        Dim             ....  282
 Nuclear Repulsion      ENuc            ....    859.2137129054 Eh

Convergence Acceleration:
 DIIS                   CNVDIIS         .... on
   Start iteration      DIISMaxIt       ....     0
   Startup error        DIISStart       ....  0.200000
   # of expansion vecs  DIISMaxEq       ....     5
   Bias factor          DIISBfac        ....   1.050
   Max. coefficient     DIISMaxC        ....  10.000
 Trust-Rad. Augm. Hess. CNVTRAH         .... auto
   Auto Start mean grad. ratio tolernc. ....  1.125000
   Auto Start start iteration           ....    20
   Auto Start num. interpolation iter.  ....    10
   Max. Number of Micro iterations      ....    16
   Max. Number of Macro iterations      .... Maxiter - #DIIS iter
   Number of Davidson start vectors     ....     2
   Converg. threshold I  (grad. norm)   ....   1.000e-05
   Converg. threshold II (energy diff.) ....   1.000e-08
   Grad. Scal. Fac. for Micro threshold ....   0.100
   Minimum threshold for Micro iter.    ....   0.010
   NR start threshold (gradient norm)   ....   0.001
   Initial trust radius                 ....   0.400
   Minimum AH scaling param. (alpha)    ....   1.000
   Maximum AH scaling param. (alpha)    .... 1000.000
   Orbital update algorithm             .... Taylor
   White noise on init. David. guess    .... on
   Maximum white noise                  ....   0.010
   Quad. conv. algorithm                .... NR
 SOSCF                  CNVSOSCF        .... on
   Start iteration      SOSCFMaxIt      ....   150
   Startup grad/error   SOSCFStart      ....  0.001000
 Level Shifting         CNVShift        .... on
   Level shift para.    LevelShift      ....    0.2500
   Turn off err/grad.   ShiftErr        ....    0.0000
 Zerner damping         CNVZerner       .... off
 Static damping         CNVDamp         .... on
   Fraction old density DampFac         ....    0.8500
   Max. Damping (<1)    DampMax         ....    0.9800
   Min. Damping (>=0)   DampMin         ....    0.0000
   Turn off err/grad.   DampErr         ....    0.0300
 Fernandez-Rico         CNVRico         .... off

SCF Procedure:
 Maximum # iterations   MaxIter         ....   125
 SCF integral mode      SCFMode         .... Direct
   Integral package                     .... SHARK and LIBINT hybrid scheme
 Reset frequency        DirectResetFreq ....    20
 Integral Threshold     Thresh          ....  2.500e-11 Eh
 Primitive CutOff       TCut            ....  2.500e-12 Eh

Convergence Tolerance:
 Convergence Check Mode ConvCheckMode   .... Total+1el-Energy
 Convergence forced     ConvForced      .... 0
 Energy Change          TolE            ....  1.000e-08 Eh
 1-El. energy change                    ....  1.000e-05 Eh
 Orbital Gradient       TolG            ....  1.000e-05
 Orbital Rotation angle TolX            ....  1.000e-05
 DIIS Error             TolErr          ....  5.000e-07


Diagonalization of the overlap matrix:
Smallest eigenvalue                        ... 8.581e-04
Time for diagonalization                   ...    0.014 sec
Threshold for overlap eigenvalues          ... 1.000e-08
Number of eigenvalues below threshold      ... 0
Time for construction of square roots      ...    0.007 sec
Total time needed                          ...    0.022 sec

Time for model grid setup =    0.688 sec

------------------------------
INITIAL GUESS: MODEL POTENTIAL
------------------------------
Loading Hartree-Fock densities                     ... done
Calculating cut-offs                               ... done
Initializing the effective Hamiltonian             ... done
Setting up the integral package (SHARK)            ... done
Starting the Coulomb interaction                   ... done (   0.8 sec)
Reading the grid                                   ... done
Mapping shells                                     ... done
Starting the XC term evaluation                    ... done (   0.7 sec)
  promolecular density results
     # of electrons  =    100.000465114
     EX              =    -75.331500618
     EC              =     -3.312944350
     EX+EC           =    -78.644444968
Transforming the Hamiltonian                       ... done (   0.0 sec)
Diagonalizing the Hamiltonian                      ... done (   0.0 sec)
Back transforming the eigenvectors                 ... done (   0.0 sec)
Now organizing SCF variables                       ... done
                      ------------------
                      INITIAL GUESS DONE (   2.2 sec)
                      ------------------
-------------------
DFT GRID GENERATION
-------------------

General Integration Accuracy     IntAcc      ... 4.388
Radial Grid Type                 RadialGrid  ... OptM3 with GC (2021)
Angular Grid (max. ang.)         AngularGrid ... 4 (Lebedev-302)
Angular grid pruning method      GridPruning ... 4 (adaptive)
Weight generation scheme         WeightScheme... Becke
Basis function cutoff            BFCut       ... 1.0000e-11
Integration weight cutoff        WCut        ... 1.0000e-14
Angular grids for H and He will be reduced by one unit
Partially contracted basis set               ... off
Rotationally invariant grid construction     ... off

Total number of grid points                  ...   141260
Total number of batches                      ...     2224
Average number of points per batch           ...       63
Average number of grid points per atom       ...     4281
Time for grid setup =    2.500 sec

--------------------
COSX GRID GENERATION
--------------------

GRIDX 1
-------
General Integration Accuracy     IntAcc      ... 3.816
Radial Grid Type                 RadialGrid  ... OptM3 with GC (2021)
Angular Grid (max. ang.)         AngularGrid ... 1 (Lebedev-50)
Angular grid pruning method      GridPruning ... 4 (adaptive)
Weight generation scheme         WeightScheme... Becke
Basis function cutoff            BFCut       ... 1.0000e-11
Integration weight cutoff        WCut        ... 1.0000e-14
Angular grids for H and He will be reduced by one unit
Partially contracted basis set               ... on
Rotationally invariant grid construction     ... off

Total number of grid points                  ...    18038
Total number of batches                      ...      301
Average number of points per batch           ...       59
Average number of grid points per atom       ...      547
UseSFitting                                  ... on

GRIDX 2
-------
General Integration Accuracy     IntAcc      ... 4.020
Radial Grid Type                 RadialGrid  ... OptM3 with GC (2021)
Angular Grid (max. ang.)         AngularGrid ... 2 (Lebedev-110)
Angular grid pruning method      GridPruning ... 4 (adaptive)
Weight generation scheme         WeightScheme... Becke
Basis function cutoff            BFCut       ... 1.0000e-11
Integration weight cutoff        WCut        ... 1.0000e-14
Angular grids for H and He will be reduced by one unit
Partially contracted basis set               ... on
Rotationally invariant grid construction     ... off

Total number of grid points                  ...    37569
Total number of batches                      ...      607
Average number of points per batch           ...       61
Average number of grid points per atom       ...     1138
UseSFitting                                  ... on

GRIDX 3
-------
General Integration Accuracy     IntAcc      ... 4.338
Radial Grid Type                 RadialGrid  ... OptM3 with GC (2021)
Angular Grid (max. ang.)         AngularGrid ... 3 (Lebedev-194)
Angular grid pruning method      GridPruning ... 4 (adaptive)
Weight generation scheme         WeightScheme... Becke
Basis function cutoff            BFCut       ... 1.0000e-11
Integration weight cutoff        WCut        ... 1.0000e-14
Angular grids for H and He will be reduced by one unit
Partially contracted basis set               ... on
Rotationally invariant grid construction     ... off

Total number of grid points                  ...    81708
Total number of batches                      ...     1295
Average number of points per batch           ...       63
Average number of grid points per atom       ...     2476
UseSFitting                                  ... on

Time for X-Grid setup             =    3.280 sec


--------------------
CPCM SOLVATION MODEL
--------------------
CPCM parameters:
  Epsilon                                         ...      80.4000
  Refrac                                          ...       1.3300
  Rsolv                                           ...       1.3000
  Surface type                                    ... GAUSSIAN VDW
  Epsilon function type                           ...         CPCM
Radii:
 Radius for N  used is    3.5149 Bohr (=   1.8600 Ang.)
 Radius for C  used is    3.8550 Bohr (=   2.0400 Ang.)
 Radius for H  used is    2.4944 Bohr (=   1.3200 Ang.)
Calculating surface                               ...        done! (  0.0s)
GEPOL surface points                              ...         1720
GEPOL Volume                                      ...    1692.0063
GEPOL Surface-area                                ...     916.3104
Calculating surface distance matrix               ...        done! (  0.0s)
Performing Cholesky decomposition & store         ...        done! (  0.1s)
Overall time for CPCM initialization              ...                 0.1s
--------------
SCF ITERATIONS
--------------
ITER       Energy         Delta-E        Max-DP      RMS-DP      [F,P]     Damp
               ***  Starting incremental Fock matrix formation  ***
  0   -539.8605282545   0.000000000000 0.03504517  0.00069365  0.1561965 0.8500
  1   -539.9274709571  -0.066942702680 0.03640736  0.00065445  0.1258743 0.8500
                               ***Turning on DIIS***
  2   -539.9787089767  -0.051238019549 0.03144201  0.00053590  0.0966549 0.8500
  3   -540.0169231804  -0.038214203768 0.02483959  0.00038114  0.0734724 0.8500
  4   -540.0464205285  -0.029497348018 0.02015498  0.00029064  0.0589100 0.8500
  5   -540.0696472814  -0.023226752937 0.01684114  0.00023764  0.0487731 0.8500
  6   -540.0884974948  -0.018850213398 0.01425942  0.00020015  0.0409963 0.8500
  7   -540.1040682805  -0.015570785713 0.01220663  0.00017215  0.0346914 0.8500
  8   -540.1170677521  -0.012999471611 0.06984000  0.00098789  0.0293568 0.0000
  9   -540.1867944259  -0.069726673746 0.00154389  0.00003741  0.0012637 0.0000
                      *** Initiating the SOSCF procedure ***
                           *** Shutting down DIIS ***
                      *** Re-Reading the Fockian *** 
                      *** Removing any level shift *** 
ITER      Energy       Delta-E        Grad      Rot      Max-DP    RMS-DP
 10   -540.18682269  -0.0000282619  0.000365  0.000365  0.000678  0.000018
               *** Restarting incremental Fock matrix formation ***
 11   -540.18686706  -0.0000443735  0.000241  0.000569  0.000383  0.000013
 12   -540.18686810  -0.0000010372  0.000093  0.000457  0.000281  0.000009
 13   -540.18686832  -0.0000002197  0.000033  0.000029  0.000145  0.000003
 14   -540.18686836  -0.0000000468  0.000007  0.000010  0.000066  0.000001
 15   -540.18686837  -0.0000000087  0.000004  0.000015  0.000015  0.000000
                  ***Gradient check signals convergence***
              ***Rediagonalizing the Fockian in SOSCF/NRSCF***

               *****************************************************
               *                     SUCCESS                       *
               *           SCF CONVERGED AFTER  16 CYCLES          *
               *****************************************************

Old exchange energy                            =    -25.342205423 Eh
New exchange energy                            =    -25.342163757 Eh
Exchange energy change after final integration =      0.000041667 Eh
Total energy after final integration           =   -540.186826709 Eh
Final COS-X integration done in                =    91.570 sec

----------------
TOTAL SCF ENERGY
----------------

Total Energy       :         -540.18682671 Eh          -14699.23085 eV

Components:
Nuclear Repulsion  :          859.21371291 Eh           23380.39376 eV
Electronic Energy  :        -1399.40053961 Eh          -38079.62461 eV
One Electron Energy:        -2433.82646556 Eh          -66227.78508 eV
Two Electron Energy:         1034.42592594 Eh           28148.16047 eV
Max COSX asymmetry :            0.00000280 Eh               0.00008 eV
CPCM Dielectric    :           -0.01363856 Eh              -0.37112 eV

Virial components:
Potential Energy   :        -1074.13196356 Eh          -29228.61668 eV
Kinetic Energy     :          533.94513685 Eh           14529.38583 eV
Virial Ratio       :            2.01168976


DFT components:
N(Alpha)           :       50.000052405869 electrons
N(Beta)            :       50.000052405869 electrons
N(Total)           :      100.000104811737 electrons
E(XC)              :      -55.558854159913 Eh       
DFET-embed. en.    :        0.000000000000 Eh       
CPCM Solvation Model Properties:
Surface-charge          :           -0.02875624
Charge-correction       :           -0.00045922 Eh              -0.01250 eV
Free-energy (cav+disp)  :  This term is not implemented in the current solvation scheme

---------------
SCF CONVERGENCE
---------------

  Last Energy change         ...   -2.0221e-09  Tolerance :   1.0000e-08
  Last MAX-Density change    ...    3.9968e-15  Tolerance :   1.0000e-07
  Last RMS-Density change    ...    3.8202e-17  Tolerance :   5.0000e-09
  Last Orbital Gradient      ...    7.5411e-07  Tolerance :   1.0000e-05
  Last Orbital Rotation      ...    3.1760e-06  Tolerance :   1.0000e-05

             **** THE GBW FILE WAS UPDATED (6_deprot_aq_3.gbw) ****
             **** DENSITY 6_deprot_aq_3.scfp WAS UPDATED ****
             **** ENERGY FILE WAS UPDATED (6_deprot_aq_3.en.tmp) ****
             **** THE GBW FILE WAS UPDATED (6_deprot_aq_3.gbw) ****
             **** DENSITY 6_deprot_aq_3.scfp WAS UPDATED ****
----------------
ORBITAL ENERGIES
----------------

  NO   OCC          E(Eh)            E(eV) 
   0   2.0000     -14.437334      -392.8598 
   1   2.0000     -14.437280      -392.8584 
   2   2.0000     -10.303262      -280.3660 
   3   2.0000     -10.303212      -280.3646 
   4   2.0000     -10.287757      -279.9441 
   5   2.0000     -10.287240      -279.9300 
   6   2.0000     -10.268578      -279.4222 
   7   2.0000     -10.268519      -279.4206 
   8   2.0000     -10.265709      -279.3441 
   9   2.0000     -10.253785      -279.0197 
  10   2.0000     -10.253598      -279.0146 
  11   2.0000     -10.252746      -278.9914 
  12   2.0000     -10.252655      -278.9889 
  13   2.0000      -1.144930       -31.1551 
  14   2.0000      -1.043049       -28.3828 
  15   2.0000      -0.938855       -25.5475 
  16   2.0000      -0.898692       -24.4547 
  17   2.0000      -0.888138       -24.1675 
  18   2.0000      -0.840083       -22.8598 
  19   2.0000      -0.805852       -21.9283 
  20   2.0000      -0.805051       -21.9065 
  21   2.0000      -0.786381       -21.3985 
  22   2.0000      -0.768104       -20.9012 
  23   2.0000      -0.699995       -19.0478 
  24   2.0000      -0.683351       -18.5949 
  25   2.0000      -0.646263       -17.5857 
  26   2.0000      -0.621215       -16.9041 
  27   2.0000      -0.585324       -15.9275 
  28   2.0000      -0.558557       -15.1991 
  29   2.0000      -0.555603       -15.1187 
  30   2.0000      -0.549809       -14.9611 
  31   2.0000      -0.537589       -14.6285 
  32   2.0000      -0.533684       -14.5223 
  33   2.0000      -0.521215       -14.1830 
  34   2.0000      -0.511695       -13.9239 
  35   2.0000      -0.508322       -13.8321 
  36   2.0000      -0.507453       -13.8085 
  37   2.0000      -0.494476       -13.4554 
  38   2.0000      -0.489513       -13.3203 
  39   2.0000      -0.487616       -13.2687 
  40   2.0000      -0.473210       -12.8767 
  41   2.0000      -0.470793       -12.8109 
  42   2.0000      -0.460645       -12.5348 
  43   2.0000      -0.452178       -12.3044 
  44   2.0000      -0.443229       -12.0609 
  45   2.0000      -0.436476       -11.8771 
  46   2.0000      -0.433849       -11.8056 
  47   2.0000      -0.359255        -9.7758 
  48   2.0000      -0.311973        -8.4892 
  49   2.0000      -0.298225        -8.1151 
  50   0.0000       0.125833         3.4241 
  51   0.0000       0.140959         3.8357 
  52   0.0000       0.141867         3.8604 
  53   0.0000       0.154726         4.2103 
  54   0.0000       0.169570         4.6142 
  55   0.0000       0.185433         5.0459 
  56   0.0000       0.194927         5.3042 
  57   0.0000       0.200844         5.4652 
  58   0.0000       0.203645         5.5415 
  59   0.0000       0.207059         5.6344 
  60   0.0000       0.220739         6.0066 
  61   0.0000       0.229051         6.2328 
  62   0.0000       0.235221         6.4007 
  63   0.0000       0.239484         6.5167 
  64   0.0000       0.241791         6.5795 
  65   0.0000       0.249774         6.7967 
  66   0.0000       0.253290         6.8924 
  67   0.0000       0.262686         7.1481 
  68   0.0000       0.276962         7.5365 
  69   0.0000       0.277664         7.5556 
  70   0.0000       0.282121         7.6769 
  71   0.0000       0.283791         7.7223 
  72   0.0000       0.289895         7.8884 
  73   0.0000       0.293267         7.9802 
  74   0.0000       0.297441         8.0938 
  75   0.0000       0.320977         8.7342 
  76   0.0000       0.338438         9.2094 
  77   0.0000       0.352678         9.5969 
  78   0.0000       0.356256         9.6942 
  79   0.0000       0.366752         9.9798 
  80   0.0000       0.372660        10.1406 
  81   0.0000       0.387994        10.5579 
  82   0.0000       0.396852        10.7989 
  83   0.0000       0.461887        12.5686 
  84   0.0000       0.481695        13.1076 
  85   0.0000       0.495935        13.4951 
  86   0.0000       0.505425        13.7533 
  87   0.0000       0.513693        13.9783 
  88   0.0000       0.515289        14.0217 
  89   0.0000       0.519970        14.1491 
  90   0.0000       0.532784        14.4978 
  91   0.0000       0.541291        14.7293 
  92   0.0000       0.567232        15.4352 
  93   0.0000       0.576391        15.6844 
  94   0.0000       0.578684        15.7468 
  95   0.0000       0.590583        16.0706 
  96   0.0000       0.626155        17.0385 
  97   0.0000       0.638770        17.3818 
  98   0.0000       0.646459        17.5910 
  99   0.0000       0.664727        18.0881 
 100   0.0000       0.676425        18.4065 
 101   0.0000       0.677818        18.4444 
 102   0.0000       0.696645        18.9567 
 103   0.0000       0.699655        19.0386 
 104   0.0000       0.700045        19.0492 
 105   0.0000       0.715871        19.4798 
 106   0.0000       0.719671        19.5832 
 107   0.0000       0.723545        19.6887 
 108   0.0000       0.741981        20.1903 
 109   0.0000       0.745272        20.2799 
 110   0.0000       0.754423        20.5289 
 111   0.0000       0.758398        20.6370 
 112   0.0000       0.766295        20.8520 
 113   0.0000       0.776784        21.1374 
 114   0.0000       0.777778        21.1644 
 115   0.0000       0.780584        21.2408 
 116   0.0000       0.791392        21.5349 
 117   0.0000       0.792467        21.5641 
 118   0.0000       0.793228        21.5848 
 119   0.0000       0.799103        21.7447 
 120   0.0000       0.803424        21.8623 
 121   0.0000       0.807128        21.9631 
 122   0.0000       0.809837        22.0368 
 123   0.0000       0.811584        22.0843 
 124   0.0000       0.816803        22.2263 
 125   0.0000       0.820723        22.3330 
 126   0.0000       0.821395        22.3513 
 127   0.0000       0.824331        22.4312 
 128   0.0000       0.831125        22.6161 
 129   0.0000       0.840175        22.8623 
 130   0.0000       0.841484        22.8979 
 131   0.0000       0.842444        22.9241 
 132   0.0000       0.860163        23.4062 
 133   0.0000       0.866700        23.5841 
 134   0.0000       0.874467        23.7954 
 135   0.0000       0.883188        24.0328 
 136   0.0000       0.893611        24.3164 
 137   0.0000       0.911605        24.8060 
 138   0.0000       0.918673        24.9984 
 139   0.0000       0.976187        26.5634 
 140   0.0000       0.988368        26.8949 
 141   0.0000       1.043298        28.3896 
 142   0.0000       1.053152        28.6577 
 143   0.0000       1.067590        29.0506 
 144   0.0000       1.098395        29.8889 
 145   0.0000       1.163040        31.6479 
 146   0.0000       1.175179        31.9783 
 147   0.0000       1.189587        32.3703 
 148   0.0000       1.197930        32.5973 
 149   0.0000       1.209295        32.9066 
 150   0.0000       1.218233        33.1498 
 151   0.0000       1.242676        33.8149 
 152   0.0000       1.255788        34.1717 
 153   0.0000       1.283836        34.9350 
 154   0.0000       1.284608        34.9560 
 155   0.0000       1.298566        35.3358 
 156   0.0000       1.339612        36.4527 
 157   0.0000       1.351757        36.7832 
 158   0.0000       1.415696        38.5230 
 159   0.0000       1.423110        38.7248 
 160   0.0000       1.425623        38.7932 
 161   0.0000       1.466210        39.8976 
 162   0.0000       1.503657        40.9166 
 163   0.0000       1.521723        41.4082 
 164   0.0000       1.553787        42.2807 
 165   0.0000       1.555341        42.3230 
 166   0.0000       1.581953        43.0471 
 167   0.0000       1.648502        44.8580 
 168   0.0000       1.650775        44.9199 
 169   0.0000       1.653870        45.0041 
 170   0.0000       1.659773        45.1647 
 171   0.0000       1.660474        45.1838 
 172   0.0000       1.664688        45.2985 
 173   0.0000       1.666559        45.3494 
 174   0.0000       1.670941        45.4686 
 175   0.0000       1.674860        45.5753 
 176   0.0000       1.680644        45.7326 
 177   0.0000       1.685174        45.8559 
 178   0.0000       1.699739        46.2522 
 179   0.0000       1.789849        48.7043 
 180   0.0000       1.817645        49.4606 
 181   0.0000       1.835385        49.9434 
 182   0.0000       1.837595        50.0035 
 183   0.0000       1.842790        50.1449 
 184   0.0000       1.849365        50.3238 
 185   0.0000       1.865337        50.7584 
 186   0.0000       1.882563        51.2271 
 187   0.0000       1.893709        51.5304 
 188   0.0000       1.896434        51.6046 
 189   0.0000       1.901581        51.7446 
 190   0.0000       1.902912        51.7809 
 191   0.0000       1.909218        51.9525 
 192   0.0000       1.920155        52.2501 
 193   0.0000       1.927081        52.4385 
 194   0.0000       1.935559        52.6692 
 195   0.0000       1.948820        53.0301 
 196   0.0000       1.955210        53.2040 
 197   0.0000       1.956634        53.2427 
 198   0.0000       1.963080        53.4181 
 199   0.0000       1.964197        53.4485 
 200   0.0000       1.984389        53.9980 
 201   0.0000       1.998462        54.3809 
 202   0.0000       2.005287        54.5666 
 203   0.0000       2.008765        54.6613 
 204   0.0000       2.015439        54.8429 
 205   0.0000       2.018837        54.9353 
 206   0.0000       2.021863        55.0177 
 207   0.0000       2.036623        55.4193 
 208   0.0000       2.057238        55.9803 
 209   0.0000       2.079735        56.5925 
 210   0.0000       2.097339        57.0715 
 211   0.0000       2.101280        57.1787 
 212   0.0000       2.108773        57.3826 
 213   0.0000       2.125152        57.8283 
 214   0.0000       2.136410        58.1347 
 215   0.0000       2.145060        58.3700 
 216   0.0000       2.167655        58.9849 
 217   0.0000       2.174267        59.1648 
 218   0.0000       2.188685        59.5571 
 219   0.0000       2.256798        61.4106 
 220   0.0000       2.269580        61.7584 
 221   0.0000       2.273598        61.8677 
 222   0.0000       2.287332        62.2415 
 223   0.0000       2.293487        62.4090 
 224   0.0000       2.314439        62.9791 
 225   0.0000       2.341848        63.7249 
 226   0.0000       2.350028        63.9475 
 227   0.0000       2.375085        64.6294 
 228   0.0000       2.381756        64.8109 
 229   0.0000       2.386526        64.9407 
 230   0.0000       2.399088        65.2825 
 231   0.0000       2.455434        66.8158 
 232   0.0000       2.475044        67.3494 
 233   0.0000       2.513772        68.4032 
 234   0.0000       2.514639        68.4268 
 235   0.0000       2.527517        68.7772 
 236   0.0000       2.529782        68.8389 
 237   0.0000       2.534890        68.9779 
 238   0.0000       2.560911        69.6859 
 239   0.0000       2.562396        69.7263 
 240   0.0000       2.584040        70.3153 
 241   0.0000       2.615993        71.1848 
 242   0.0000       2.620565        71.3092 
 243   0.0000       2.631583        71.6090 
 244   0.0000       2.639373        71.8210 
 245   0.0000       2.681201        72.9592 
 246   0.0000       2.706168        73.6386 
 247   0.0000       2.709428        73.7273 
 248   0.0000       2.721602        74.0586 
 249   0.0000       2.737825        74.5000 
 250   0.0000       2.739930        74.5573 
 251   0.0000       2.783544        75.7441 
 252   0.0000       2.844813        77.4113 
 253   0.0000       2.851536        77.5942 
 254   0.0000       2.852054        77.6083 
 255   0.0000       2.853187        77.6392 
 256   0.0000       2.869470        78.0822 
 257   0.0000       2.885814        78.5270 
 258   0.0000       2.921464        79.4971 
 259   0.0000       2.973209        80.9051 
 260   0.0000       2.990522        81.3762 
 261   0.0000       3.003444        81.7279 
 262   0.0000       3.013826        82.0104 
 263   0.0000       3.022889        82.2570 
 264   0.0000       3.031506        82.4915 
 265   0.0000       3.039370        82.7055 
 266   0.0000       3.050541        83.0095 
 267   0.0000       3.052000        83.0491 
 268   0.0000       3.089487        84.0692 
 269   0.0000       3.091000        84.1104 
 270   0.0000       3.120728        84.9193 
 271   0.0000       3.122950        84.9798 
 272   0.0000       3.144270        85.5599 
 273   0.0000       3.157968        85.9327 
 274   0.0000       3.167393        86.1891 
 275   0.0000       3.169974        86.2594 
 276   0.0000       3.177438        86.4625 
 277   0.0000       3.225779        87.7779 
 278   0.0000       3.357438        91.3605 
 279   0.0000       3.470498        94.4370 
 280   0.0000       3.484743        94.8247 
 281   0.0000       3.573991        97.2532 

                    ********************************
                    * MULLIKEN POPULATION ANALYSIS *
                    ********************************

-----------------------
MULLIKEN ATOMIC CHARGES
-----------------------
   0 N :   -0.209660
   1 C :   -0.188919
   2 N :   -0.209738
   3 C :   -0.135131
   4 C :   -0.135177
   5 C :   -0.017017
   6 C :   -0.016513
   7 C :    0.017485
   8 H :    0.036111
   9 C :    0.020776
  10 H :    0.036076
  11 C :    0.017839
  12 C :    0.020337
  13 C :    0.092919
  14 C :    0.092738
  15 H :    0.027624
  16 H :    0.017469
  17 H :    0.033273
  18 H :    0.031566
  19 H :    0.018060
  20 H :    0.027162
  21 H :    0.032960
  22 H :    0.017447
  23 H :    0.027404
  24 H :    0.017977
  25 H :    0.031767
  26 H :    0.027164
  27 H :    0.030735
  28 H :    0.050320
  29 H :    0.052930
  30 H :    0.050704
  31 H :    0.030681
  32 H :    0.052630
Sum of atomic charges:    0.0000000

--------------------------------
MULLIKEN REDUCED ORBITAL CHARGES
--------------------------------
  0 N s       :     3.390572  s :     3.390572
      pz      :     1.515538  p :     3.786765
      px      :     1.151669
      py      :     1.119558
      dz2     :     0.002263  d :     0.032323
      dxz     :     0.003931
      dyz     :     0.005912
      dx2y2   :     0.011184
      dxy     :     0.009033
  1 C s       :     3.593799  s :     3.593799
      pz      :     0.716819  p :     2.530079
      px      :     0.656325
      py      :     1.156934
      dz2     :     0.007511  d :     0.065041
      dxz     :     0.012107
      dyz     :     0.009529
      dx2y2   :     0.008243
      dxy     :     0.027651
  2 N s       :     3.390579  s :     3.390579
      pz      :     1.515865  p :     3.786840
      px      :     1.151478
      py      :     1.119497
      dz2     :     0.002245  d :     0.032318
      dxz     :     0.003941
      dyz     :     0.005920
      dx2y2   :     0.011183
      dxy     :     0.009029
  3 C s       :     3.105056  s :     3.105056
      pz      :     1.088939  p :     2.972047
      px      :     0.991291
      py      :     0.891817
      dz2     :     0.004392  d :     0.058028
      dxz     :     0.010382
      dyz     :     0.009871
      dx2y2   :     0.019436
      dxy     :     0.013946
  4 C s       :     3.105223  s :     3.105223
      pz      :     1.089506  p :     2.971937
      px      :     0.990865
      py      :     0.891566
      dz2     :     0.004374  d :     0.058017
      dxz     :     0.010407
      dyz     :     0.009848
      dx2y2   :     0.019434
      dxy     :     0.013954
  5 C s       :     3.086613  s :     3.086613
      pz      :     1.028438  p :     2.872988
      px      :     0.827654
      py      :     1.016896
      dz2     :     0.013629  d :     0.057417
      dxz     :     0.009713
      dyz     :     0.010725
      dx2y2   :     0.010088
      dxy     :     0.013262
  6 C s       :     3.086689  s :     3.086689
      pz      :     1.028476  p :     2.872413
      px      :     0.827225
      py      :     1.016711
      dz2     :     0.013525  d :     0.057411
      dxz     :     0.009776
      dyz     :     0.010772
      dx2y2   :     0.010084
      dxy     :     0.013254
  7 C s       :     2.981571  s :     2.981571
      pz      :     0.966979  p :     2.974153
      px      :     1.004430
      py      :     1.002744
      dz2     :     0.007581  d :     0.026791
      dxz     :     0.001373
      dyz     :     0.007154
      dx2y2   :     0.003997
      dxy     :     0.006686
  8 H s       :     0.942720  s :     0.942720
      pz      :     0.003545  p :     0.021169
      px      :     0.007311
      py      :     0.010312
  9 C s       :     2.981627  s :     2.981627
      pz      :     0.959700  p :     2.970791
      px      :     1.005121
      py      :     1.005970
      dz2     :     0.007162  d :     0.026806
      dxz     :     0.001675
      dyz     :     0.007713
      dx2y2   :     0.003860
      dxy     :     0.006395
 10 H s       :     0.942747  s :     0.942747
      pz      :     0.003566  p :     0.021178
      px      :     0.007265
      py      :     0.010346
 11 C s       :     2.981662  s :     2.981662
      pz      :     0.963889  p :     2.973710
      px      :     1.005982
      py      :     1.003839
      dz2     :     0.007444  d :     0.026788
      dxz     :     0.001488
      dyz     :     0.007298
      dx2y2   :     0.003904
      dxy     :     0.006654
 12 C s       :     2.981739  s :     2.981739
      pz      :     0.962879  p :     2.971120
      px      :     1.003112
      py      :     1.005128
      dz2     :     0.007129  d :     0.026804
      dxz     :     0.001644
      dyz     :     0.007702
      dx2y2   :     0.003931
      dxy     :     0.006398
 13 C s       :     2.879749  s :     2.879749
      pz      :     1.027498  p :     2.999640
      px      :     0.994899
      py      :     0.977244
      dz2     :     0.005348  d :     0.027692
      dxz     :     0.009082
      dyz     :     0.002065
      dx2y2   :     0.003349
      dxy     :     0.007847
 14 C s       :     2.879826  s :     2.879826
      pz      :     1.027360  p :     2.999742
      px      :     0.995047
      py      :     0.977335
      dz2     :     0.005334  d :     0.027694
      dxz     :     0.009123
      dyz     :     0.002057
      dx2y2   :     0.003324
      dxy     :     0.007856
 15 H s       :     0.948218  s :     0.948218
      pz      :     0.010360  p :     0.024158
      px      :     0.005230
      py      :     0.008567
 16 H s       :     0.957897  s :     0.957897
      pz      :     0.004156  p :     0.024634
      px      :     0.009649
      py      :     0.010828
 17 H s       :     0.942379  s :     0.942379
      pz      :     0.004166  p :     0.024348
      px      :     0.014101
      py      :     0.006081
 18 H s       :     0.944110  s :     0.944110
      pz      :     0.004275  p :     0.024324
      px      :     0.014010
      py      :     0.006038
 19 H s       :     0.957039  s :     0.957039
      pz      :     0.004303  p :     0.024901
      px      :     0.010148
      py      :     0.010450
 20 H s       :     0.948690  s :     0.948690
      pz      :     0.011951  p :     0.024148
      px      :     0.005192
      py      :     0.007005
 21 H s       :     0.942694  s :     0.942694
      pz      :     0.004172  p :     0.024346
      px      :     0.014100
      py      :     0.006073
 22 H s       :     0.957885  s :     0.957885
      pz      :     0.004216  p :     0.024668
      px      :     0.009653
      py      :     0.010799
 23 H s       :     0.948438  s :     0.948438
      pz      :     0.010803  p :     0.024159
      px      :     0.005097
      py      :     0.008259
 24 H s       :     0.957154  s :     0.957154
      pz      :     0.004287  p :     0.024869
      px      :     0.010054
      py      :     0.010528
 25 H s       :     0.943909  s :     0.943909
      pz      :     0.004257  p :     0.024324
      px      :     0.014008
      py      :     0.006059
 26 H s       :     0.948689  s :     0.948689
      pz      :     0.011509  p :     0.024147
      px      :     0.005354
      py      :     0.007285
 27 H s       :     0.944193  s :     0.944193
      pz      :     0.005034  p :     0.025072
      px      :     0.007340
      py      :     0.012698
 28 H s       :     0.925077  s :     0.925077
      pz      :     0.012057  p :     0.024603
      px      :     0.008154
      py      :     0.004392
 29 H s       :     0.922467  s :     0.922467
      pz      :     0.011763  p :     0.024603
      px      :     0.008442
      py      :     0.004397
 30 H s       :     0.924691  s :     0.924691
      pz      :     0.011486  p :     0.024605
      px      :     0.008727
      py      :     0.004392
 31 H s       :     0.944246  s :     0.944246
      pz      :     0.005065  p :     0.025072
      px      :     0.007315
      py      :     0.012693
 32 H s       :     0.922775  s :     0.922775
      pz      :     0.012331  p :     0.024596
      px      :     0.007872
      py      :     0.004392


                     *******************************
                     * LOEWDIN POPULATION ANALYSIS *
                     *******************************

----------------------
LOEWDIN ATOMIC CHARGES
----------------------
   0 N :    0.038873
   1 C :   -0.297444
   2 N :    0.038872
   3 C :   -0.051329
   4 C :   -0.051482
   5 C :    0.029804
   6 C :    0.029878
   7 C :   -0.054602
   8 H :    0.029442
   9 C :   -0.054429
  10 H :    0.029456
  11 C :   -0.054578
  12 C :   -0.054451
  13 C :   -0.055662
  14 C :   -0.055677
  15 H :    0.025379
  16 H :    0.020494
  17 H :    0.028604
  18 H :    0.027808
  19 H :    0.019127
  20 H :    0.025245
  21 H :    0.028450
  22 H :    0.020314
  23 H :    0.025318
  24 H :    0.019282
  25 H :    0.027881
  26 H :    0.025254
  27 H :    0.041043
  28 H :    0.039271
  29 H :    0.039754
  30 H :    0.039341
  31 H :    0.041025
  32 H :    0.039740

-------------------------------
LOEWDIN REDUCED ORBITAL CHARGES
-------------------------------
  0 N s       :     3.054560  s :     3.054560
      pz      :     1.437628  p :     3.829288
      px      :     1.196374
      py      :     1.195286
      dz2     :     0.004298  d :     0.077279
      dxz     :     0.007237
      dyz     :     0.011484
      dx2y2   :     0.028794
      dxy     :     0.025466
  1 C s       :     3.181295  s :     3.181295
      pz      :     0.765748  p :     2.975122
      px      :     0.830349
      py      :     1.379026
      dz2     :     0.017017  d :     0.141027
      dxz     :     0.026255
      dyz     :     0.013629
      dx2y2   :     0.019324
      dxy     :     0.064802
  2 N s       :     3.054531  s :     3.054531
      pz      :     1.437830  p :     3.829328
      px      :     1.196219
      py      :     1.195279
      dz2     :     0.004265  d :     0.077268
      dxz     :     0.007246
      dyz     :     0.011491
      dx2y2   :     0.028799
      dxy     :     0.025468
  3 C s       :     2.839421  s :     2.839421
      pz      :     1.068263  p :     3.070983
      px      :     1.055800
      py      :     0.946920
      dz2     :     0.009755  d :     0.140925
      dxz     :     0.020317
      dyz     :     0.019853
      dx2y2   :     0.053107
      dxy     :     0.037894
  4 C s       :     2.839402  s :     2.839402
      pz      :     1.068675  p :     3.071180
      px      :     1.055629
      py      :     0.946876
      dz2     :     0.009691  d :     0.140900
      dxz     :     0.020387
      dyz     :     0.019807
      dx2y2   :     0.053106
      dxy     :     0.037909
  5 C s       :     2.828044  s :     2.828044
      pz      :     1.052500  p :     3.009883
      px      :     0.911221
      py      :     1.046161
      dz2     :     0.030718  d :     0.132269
      dxz     :     0.019564
      dyz     :     0.026891
      dx2y2   :     0.022882
      dxy     :     0.032214
  6 C s       :     2.828048  s :     2.828048
[...]
     46      -0.039678   0.002667   0.001506
     47      -0.061186   0.004119   0.002328
     48       0.240979  -0.012921  -0.007063
     49      -0.359045   0.019313   0.010539
     50       0.011418  -0.000837  -0.000514
     51       0.337507  -0.014867  -0.006626
     52       0.095995  -0.004247  -0.001884
     53      -0.015613   0.000724   0.000295
     54       0.292811  -0.014058  -0.006312
     55       0.083223  -0.004020  -0.001796
     56      -0.006100   0.000266   0.000146
     57       0.189255  -0.011587  -0.006489
     58      -0.283533   0.017408   0.009732
     59      -0.018723   0.001362   0.000814
     60      -0.010630   0.000834   0.000470
     61      -0.021054   0.002071   0.001241
     62       0.035027  -0.003384  -0.002021
     63      -0.291068  -0.015138   0.006044
     64       0.082482   0.004314  -0.001713
     65       0.004871   0.000224  -0.000116
     66      -0.202868  -0.013026   0.006450
     67      -0.304142  -0.019602   0.009691
     68       0.020233   0.001534  -0.000808
     69       0.014382   0.001057  -0.000520
     70      -0.031916  -0.002671   0.001382
     71      -0.051047  -0.004269   0.002201
     72      -0.181301  -0.012376   0.006179
     73      -0.269638  -0.018443   0.009184
     74      -0.008471  -0.000799   0.000450
     75      -0.274679  -0.014841   0.005936
     76       0.078473   0.004259  -0.001696
     77       0.011423   0.000648  -0.000231
     78       0.012497   0.001090  -0.000549
     79      -0.021222  -0.002200   0.001160
     80       0.033911   0.003472  -0.001834
     81      -0.011803  -0.307703  -0.327704
     82      -0.021002  -0.531728  -0.566051
     83       0.000771   0.020262   0.021540
     84      -0.002962  -0.114364  -0.116366
     85       0.000223   0.004183   0.004374
     86       0.004931   0.178091   0.181271
     87      -0.001967  -0.125528  -0.127771
     88       0.000128  -0.002397  -0.002362
     89      -0.003078  -0.169944  -0.172981
     90       0.002112  -0.128464   0.117707
     91       0.000165  -0.004493   0.004226
     92       0.003229  -0.177829   0.162971
     93       0.009715  -0.325271   0.311901
     94      -0.017305   0.560342  -0.537031
     95       0.000095  -0.003011   0.002924
     96       0.001406  -0.124248   0.113766
     97       0.000092   0.002580  -0.002281
     98      -0.002534   0.189156  -0.173238


-----------
IR SPECTRUM
-----------

 Mode   freq       eps      Int      T**2         TX        TY        TZ
       cm**-1   L/(mol*cm) km/mol    a.u.
----------------------------------------------------------------------------
  6:     32.04   0.000752    3.80  0.007322  ( 0.003445  0.001738  0.085481)
  7:     43.11   0.000000    0.00  0.000003  (-0.000479  0.000507  0.001493)
  8:     88.29   0.001085    5.48  0.003836  (-0.002120 -0.000969 -0.061888)
  9:    113.99   0.000000    0.00  0.000001  (-0.000724 -0.000275 -0.000310)
 10:    159.17   0.000377    1.91  0.000740  (-0.000023  0.027197 -0.000293)
 11:    200.53   0.000070    0.35  0.000109  (-0.006170  0.000132  0.008424)
 12:    214.56   0.000006    0.03  0.000008  (-0.001753 -0.000174 -0.002300)
 13:    223.13   0.000016    0.08  0.000022  (-0.003946 -0.000645 -0.002414)
 14:    234.08   0.000891    4.50  0.001187  (-0.034456 -0.000017  0.000329)
 15:    255.85   0.000004    0.02  0.000004  ( 0.001364  0.000040  0.001622)
 16:    259.11   0.000000    0.00  0.000000  (-0.000482 -0.000208 -0.000229)
 17:    277.51   0.000111    0.56  0.000124  (-0.000610 -0.001348  0.011050)
 18:    282.70   0.000146    0.74  0.000162  (-0.012473  0.000108  0.002436)
 19:    283.87   0.000093    0.47  0.000103  (-0.000389  0.009954  0.001809)
 20:    288.62   0.000023    0.12  0.000025  (-0.000531 -0.004970 -0.000041)
 21:    324.30   0.000200    1.01  0.000193  (-0.001541 -0.013796 -0.000450)
 22:    325.18   0.000518    2.62  0.000497  ( 0.022253 -0.000925  0.001029)
 23:    404.61   0.004203   21.24  0.003242  ( 0.002007  0.000766  0.056894)
 24:    423.19   0.000162    0.82  0.000120  (-0.010412  0.000129  0.003347)
 25:    480.00   0.000098    0.50  0.000064  (-0.000085 -0.007993  0.000039)
 26:    495.13   0.000000    0.00  0.000000  ( 0.000054 -0.000272  0.000086)
 27:    552.01   0.000610    3.08  0.000345  ( 0.018559 -0.000006 -0.000492)
 28:    617.22   0.001183    5.98  0.000598  (-0.000049  0.024453 -0.000336)
 29:    637.52   0.000057    0.29  0.000028  ( 0.005274  0.000102 -0.000198)
 30:    686.41   0.000035    0.18  0.000016  (-0.000100  0.000141  0.003975)
 31:    698.44   0.000000    0.00  0.000000  (-0.000434 -0.000130 -0.000023)
 32:    747.88   0.001594    8.06  0.000665  ( 0.000010 -0.025789  0.000502)
 33:    812.01   0.000582    2.94  0.000224  (-0.014939 -0.000014  0.000735)
 34:    914.65   0.000096    0.49  0.000033  ( 0.000090  0.005727  0.000169)
 35:    931.73   0.001438    7.27  0.000482  (-0.018823  0.000093 -0.011280)
 36:    932.86   0.000121    0.61  0.000040  ( 0.002890 -0.000349 -0.005649)
 37:    934.06   0.001177    5.95  0.000393  (-0.013145 -0.000167  0.014842)
 38:    962.21   0.000003    0.02  0.000001  (-0.000014  0.000174 -0.000986)
 39:    962.92   0.000142    0.72  0.000046  ( 0.000191 -0.000103 -0.006787)
 40:    969.99   0.000599    3.03  0.000193  ( 0.000079 -0.013875  0.000383)
 41:   1045.98   0.000951    4.81  0.000284  ( 0.000939  0.000803  0.016799)
 42:   1067.74   0.000021    0.11  0.000006  ( 0.002453  0.000002  0.000260)
 43:   1071.19   0.002244   11.34  0.000654  (-0.025558 -0.000013  0.000820)
 44:   1093.74   0.001367    6.91  0.000390  ( 0.000060 -0.019745  0.000431)
 45:   1143.68   0.018013   91.03  0.004915  ( 0.070047  0.000204 -0.002872)
 46:   1148.71   0.001688    8.53  0.000459  ( 0.000770 -0.021396  0.000470)
 47:   1173.76   0.000269    1.36  0.000072  ( 0.001024  0.000317  0.008388)
 48:   1173.96   0.003138   15.86  0.000834  (-0.002244 -0.000323 -0.028794)
 49:   1188.95   0.000061    0.31  0.000016  ( 0.003973  0.000026 -0.000485)
 50:   1219.38   0.000271    1.37  0.000069  (-0.000282  0.008325 -0.000222)
 51:   1228.44   0.002518   12.72  0.000640  ( 0.025273  0.000055 -0.000963)
 52:   1349.21   0.001424    7.20  0.000329  ( 0.000010 -0.018144  0.000362)
 53:   1350.07   0.000009    0.04  0.000002  (-0.000923 -0.001082 -0.000146)
 54:   1350.12   0.000084    0.42  0.000019  (-0.000430 -0.004379  0.000082)
 55:   1366.49   0.004323   21.85  0.000987  ( 0.031408 -0.000070 -0.000869)
 56:   1393.45   0.000187    0.95  0.000042  (-0.005189 -0.000918  0.003761)
 57:   1394.34   0.001321    6.68  0.000296  (-0.000068 -0.017193 -0.000230)
 58:   1400.40   0.000285    1.44  0.000064  ( 0.000279 -0.007951  0.000534)
 59:   1400.66   0.008143   41.15  0.001814  ( 0.002307 -0.000641  0.042525)
 60:   1400.90   0.001084    5.48  0.000242  ( 0.000693 -0.015047 -0.003829)
 61:   1414.72   0.025425  128.49  0.005608  (-0.074847 -0.000277  0.002462)
 62:   1435.89   0.012062   60.96  0.002621  (-0.040941 -0.029791  0.007600)
 63:   1436.56   0.012295   62.14  0.002671  (-0.031546  0.040932  0.000617)
 64:   1442.76   0.005963   30.13  0.001290  ( 0.009743  0.004308  0.034296)
 65:   1444.87   0.000183    0.92  0.000040  (-0.004350  0.002026  0.004060)
 66:   1446.36   0.000022    0.11  0.000005  ( 0.001092  0.000531  0.001820)
 67:   1446.74   0.000465    2.35  0.000100  (-0.002279 -0.009703  0.000925)
 68:   1453.10   0.000536    2.71  0.000115  (-0.010259  0.002838  0.001308)
 69:   1453.99   0.007183   36.30  0.001542  (-0.000766 -0.039256  0.000152)
 70:   1456.02   0.000183    0.92  0.000039  ( 0.000276 -0.005889 -0.002102)
 71:   1456.13   0.000103    0.52  0.000022  (-0.000627 -0.002499  0.003929)
 72:   1461.94   0.000734    3.71  0.000157  (-0.000684  0.012437  0.001221)
 73:   1465.91   0.000057    0.29  0.000012  (-0.003391  0.000041  0.000780)
 74:   1470.00   0.000391    1.98  0.000083  ( 0.000061 -0.009107 -0.000233)
 75:   1474.80   0.008473   42.82  0.001793  (-0.042306 -0.000245  0.001742)
 76:   1488.48   0.000773    3.90  0.000162  ( 0.012705  0.000116 -0.000737)
 77:   1495.22   0.003162   15.98  0.000660  (-0.000050  0.025690 -0.000115)
 78:   1753.80   0.000490    2.48  0.000087  (-0.000022  0.009335 -0.000206)
 79:   3062.33   0.010155   51.32  0.001035  ( 0.032161  0.000077 -0.000681)
 80:   3064.30   0.003767   19.04  0.000384  ( 0.000113 -0.019550  0.001176)
 81:   3064.97   0.008431   42.61  0.000858  ( 0.001536  0.002384  0.029162)
 82:   3065.00   0.003589   18.14  0.000365  (-0.000147 -0.000593 -0.019106)
 83:   3067.80   0.001547    7.82  0.000157  (-0.011631  0.004651  0.000681)
 84:   3067.88   0.003166   16.00  0.000322  (-0.002931 -0.017332  0.003608)
 85:   3132.58   0.002803   14.17  0.000279  (-0.016643  0.001375  0.000595)
 86:   3132.78   0.001976    9.98  0.000197  (-0.001641 -0.013927 -0.000390)
 87:   3148.89   0.004594   23.22  0.000455  (-0.000578 -0.000353 -0.021327)
 88:   3149.17   0.000701    3.54  0.000069  ( 0.000075 -0.000024  0.008336)
 89:   3168.98   0.004494   22.71  0.000443  (-0.001291 -0.005361  0.020301)
 90:   3169.05   0.002986   15.09  0.000294  (-0.000394  0.000607 -0.017132)
 91:   3170.29   0.005787   29.24  0.000570  (-0.015785  0.017900  0.000153)
 92:   3170.33   0.008716   44.05  0.000858  (-0.010008 -0.027330 -0.003295)
 93:   3173.38   0.000238    1.20  0.000023  ( 0.003020  0.000754  0.003697)
 94:   3173.41   0.000190    0.96  0.000019  ( 0.004015 -0.000532 -0.001504)
 95:   3177.32   0.017949   90.71  0.001763  (-0.041950 -0.001091  0.001383)
 96:   3177.62   0.003876   19.59  0.000381  (-0.002272  0.019351  0.001014)
 97:   3183.42   0.003603   18.21  0.000353  ( 0.018779 -0.000376 -0.000602)
 98:   3187.26   0.002358   11.91  0.000231  ( 0.000439  0.015184 -0.000324)

* The epsilon (eps) is given for a Dirac delta lineshape.
** The dipole moment derivative (T) already includes vibrational overlap.

The first frequency considered to be a vibration is 6
The total number of vibrations considered is 93


--------------------------
THERMOCHEMISTRY AT 298.15K
--------------------------

Temperature         ... 298.15 K
Pressure            ... 1.00 atm
Total Mass          ... 180.29 AMU

Throughout the following assumptions are being made:
  (1) The electronic state is orbitally nondegenerate
  (2) There are no thermally accessible electronically excited states
  (3) Hindered rotations indicated by low frequency modes are not
      treated as such but are treated as vibrations and this may
      cause some error
  (4) All equations used are the standard statistical mechanics
      equations for an ideal gas
  (5) All vibrations are strictly harmonic

freq.      32.04  E(vib)   ...       0.55 
freq.      43.11  E(vib)   ...       0.53 
freq.      88.29  E(vib)   ...       0.48 
freq.     113.99  E(vib)   ...       0.44 
freq.     159.17  E(vib)   ...       0.39 
freq.     200.53  E(vib)   ...       0.35 
freq.     214.56  E(vib)   ...       0.34 
freq.     223.13  E(vib)   ...       0.33 
freq.     234.08  E(vib)   ...       0.32 
freq.     255.85  E(vib)   ...       0.30 
freq.     259.11  E(vib)   ...       0.30 
freq.     277.51  E(vib)   ...       0.28 
freq.     282.70  E(vib)   ...       0.28 
freq.     283.87  E(vib)   ...       0.28 
freq.     288.62  E(vib)   ...       0.27 
freq.     324.30  E(vib)   ...       0.25 
freq.     325.18  E(vib)   ...       0.24 
freq.     404.61  E(vib)   ...       0.19 
freq.     423.19  E(vib)   ...       0.18 
freq.     480.00  E(vib)   ...       0.15 
freq.     495.13  E(vib)   ...       0.14 
freq.     552.01  E(vib)   ...       0.12 
freq.     617.22  E(vib)   ...       0.09 
freq.     637.52  E(vib)   ...       0.09 
freq.     686.41  E(vib)   ...       0.07 
freq.     698.44  E(vib)   ...       0.07 
freq.     747.88  E(vib)   ...       0.06 
freq.     812.01  E(vib)   ...       0.05 
freq.     914.65  E(vib)   ...       0.03 
freq.     931.73  E(vib)   ...       0.03 
freq.     932.86  E(vib)   ...       0.03 
freq.     934.06  E(vib)   ...       0.03 
freq.     962.21  E(vib)   ...       0.03 
freq.     962.92  E(vib)   ...       0.03 
freq.     969.99  E(vib)   ...       0.03 
freq.    1045.98  E(vib)   ...       0.02 
freq.    1067.74  E(vib)   ...       0.02 
freq.    1071.19  E(vib)   ...       0.02 
freq.    1093.74  E(vib)   ...       0.02 
freq.    1143.68  E(vib)   ...       0.01 
freq.    1148.71  E(vib)   ...       0.01 
freq.    1173.76  E(vib)   ...       0.01 
freq.    1173.96  E(vib)   ...       0.01 
freq.    1188.95  E(vib)   ...       0.01 
freq.    1219.38  E(vib)   ...       0.01 
freq.    1228.44  E(vib)   ...       0.01 
freq.    1349.21  E(vib)   ...       0.01 
freq.    1350.07  E(vib)   ...       0.01 
freq.    1350.12  E(vib)   ...       0.01 
freq.    1366.49  E(vib)   ...       0.01 
freq.    1393.45  E(vib)   ...       0.00 
freq.    1394.34  E(vib)   ...       0.00 
freq.    1400.40  E(vib)   ...       0.00 
freq.    1400.66  E(vib)   ...       0.00 
freq.    1400.90  E(vib)   ...       0.00 
freq.    1414.72  E(vib)   ...       0.00 
freq.    1435.89  E(vib)   ...       0.00 
freq.    1436.56  E(vib)   ...       0.00 
freq.    1442.76  E(vib)   ...       0.00 
freq.    1444.87  E(vib)   ...       0.00 
freq.    1446.36  E(vib)   ...       0.00 
freq.    1446.74  E(vib)   ...       0.00 
freq.    1453.10  E(vib)   ...       0.00 
freq.    1453.99  E(vib)   ...       0.00 
freq.    1456.02  E(vib)   ...       0.00 
freq.    1456.13  E(vib)   ...       0.00 
freq.    1461.94  E(vib)   ...       0.00 
freq.    1465.91  E(vib)   ...       0.00 
freq.    1470.00  E(vib)   ...       0.00 
freq.    1474.80  E(vib)   ...       0.00 
freq.    1488.48  E(vib)   ...       0.00 
freq.    1495.22  E(vib)   ...       0.00 
freq.    1753.80  E(vib)   ...       0.00 
freq.    3062.33  E(vib)   ...       0.00 
freq.    3064.30  E(vib)   ...       0.00 
freq.    3064.97  E(vib)   ...       0.00 
freq.    3065.00  E(vib)   ...       0.00 
freq.    3067.80  E(vib)   ...       0.00 
freq.    3067.88  E(vib)   ...       0.00 
freq.    3132.58  E(vib)   ...       0.00 
freq.    3132.78  E(vib)   ...       0.00 
freq.    3148.89  E(vib)   ...       0.00 
freq.    3149.17  E(vib)   ...       0.00 
freq.    3168.98  E(vib)   ...       0.00 
freq.    3169.05  E(vib)   ...       0.00 
freq.    3170.29  E(vib)   ...       0.00 
freq.    3170.33  E(vib)   ...       0.00 
freq.    3173.38  E(vib)   ...       0.00 
freq.    3173.41  E(vib)   ...       0.00 
freq.    3177.32  E(vib)   ...       0.00 
freq.    3177.62  E(vib)   ...       0.00 
freq.    3183.42  E(vib)   ...       0.00 
freq.    3187.26  E(vib)   ...       0.00 

------------
INNER ENERGY
------------

The inner energy is: U= E(el) + E(ZPE) + E(vib) + E(rot) + E(trans)
    E(el)   - is the total energy from the electronic structure calculation
              = E(kin-el) + E(nuc-el) + E(el-el) + E(nuc-nuc)
    E(ZPE)  - the the zero temperature vibrational energy from the frequency calculation
    E(vib)  - the the finite temperature correction to E(ZPE) due to population
              of excited vibrational states
    E(rot)  - is the rotational thermal energy
    E(trans)- is the translational thermal energy

Summary of contributions to the inner energy U:
Electronic energy                ...   -540.19767726 Eh
Zero point energy                ...      0.29828987 Eh     187.18 kcal/mol
Thermal vibrational correction   ...      0.01212393 Eh       7.61 kcal/mol
Thermal rotational correction    ...      0.00141627 Eh       0.89 kcal/mol
Thermal translational correction ...      0.00141627 Eh       0.89 kcal/mol
-----------------------------------------------------------------------
Total thermal energy                   -539.88443092 Eh


Summary of corrections to the electronic energy:
(perhaps to be used in another calculation)
Total thermal correction                  0.01495647 Eh       9.39 kcal/mol
Non-thermal (ZPE) correction              0.29828987 Eh     187.18 kcal/mol
-----------------------------------------------------------------------
Total correction                          0.31324634 Eh     196.56 kcal/mol


--------
ENTHALPY
--------

The enthalpy is H = U + kB*T
                kB is Boltzmann's constant
Total free energy                 ...   -539.88443092 Eh 
Thermal Enthalpy correction       ...      0.00094421 Eh       0.59 kcal/mol
-----------------------------------------------------------------------
Total Enthalpy                    ...   -539.88348671 Eh


Note: Only C1 symmetry has been detected, increase convergence thresholds 
      if your molecule has a higher symmetry. Symmetry factor of 1.0 is   
      used for the rotational entropy correction. 
 

Note: Rotational entropy computed according to Herzberg 
Infrared and Raman Spectra, Chapter V,1, Van Nostrand Reinhold, 1945 
Point Group:  C1, Symmetry Number:   1  
Rotational constants in cm-1:     0.035695     0.019185     0.014982 

Vibrational entropy computed according to the QRRHO of S. Grimme
Chem.Eur.J. 2012 18 9955


-------
ENTROPY
-------

The entropy contributions are T*S = T*(S(el)+S(vib)+S(rot)+S(trans))
     S(el)   - electronic entropy
     S(vib)  - vibrational entropy
     S(rot)  - rotational entropy
     S(trans)- translational entropy
The entropies will be listed as multiplied by the temperature to get
units of energy

Electronic entropy                ...      0.00000000 Eh      0.00 kcal/mol
Vibrational entropy               ...      0.02090649 Eh     13.12 kcal/mol
Rotational entropy                ...      0.01493386 Eh      9.37 kcal/mol
Translational entropy             ...      0.01970603 Eh     12.37 kcal/mol
-----------------------------------------------------------------------
Final entropy term                ...      0.05554637 Eh     34.86 kcal/mol

In case the symmetry of your molecule has not been determined correctly
or in case you have a reason to use a different symmetry number we print 
out the resulting rotational entropy values for sn=1,12 :
 --------------------------------------------------------
|  sn= 1 | S(rot)=       0.01493386 Eh      9.37 kcal/mol|
|  sn= 2 | S(rot)=       0.01427940 Eh      8.96 kcal/mol|
|  sn= 3 | S(rot)=       0.01389657 Eh      8.72 kcal/mol|
|  sn= 4 | S(rot)=       0.01362494 Eh      8.55 kcal/mol|
|  sn= 5 | S(rot)=       0.01341426 Eh      8.42 kcal/mol|
|  sn= 6 | S(rot)=       0.01324211 Eh      8.31 kcal/mol|
|  sn= 7 | S(rot)=       0.01309657 Eh      8.22 kcal/mol|
|  sn= 8 | S(rot)=       0.01297049 Eh      8.14 kcal/mol|
|  sn= 9 | S(rot)=       0.01285928 Eh      8.07 kcal/mol|
|  sn=10 | S(rot)=       0.01275980 Eh      8.01 kcal/mol|
|  sn=11 | S(rot)=       0.01266981 Eh      7.95 kcal/mol|
|  sn=12 | S(rot)=       0.01258766 Eh      7.90 kcal/mol|
 --------------------------------------------------------


-------------------
GIBBS FREE ENERGY
-------------------

The Gibbs free energy is G = H - T*S

Total enthalpy                    ...   -539.88348671 Eh 
Total entropy correction          ...     -0.05554637 Eh    -34.86 kcal/mol
-----------------------------------------------------------------------
Final Gibbs free energy         ...   -539.93903308 Eh

For completeness - the Gibbs free energy minus the electronic energy
G-E(el)                           ...      0.25864418 Eh    162.30 kcal/mol


Timings for individual modules:

Sum of individual times         ...     9182.060 sec (= 153.034 min)
GTO integral calculation        ...        5.275 sec (=   0.088 min)   0.1 %
SCF iterations                  ...     5203.841 sec (=  86.731 min)  56.7 %
SCF Gradient evaluation         ...     1470.561 sec (=  24.509 min)  16.0 %
Geometry relaxation             ...        1.131 sec (=   0.019 min)   0.0 %
Analytical frequency calculation...     2501.252 sec (=  41.688 min)  27.2 %
                             ****ORCA TERMINATED NORMALLY****
TOTAL RUN TIME: 0 days 2 hours 33 minutes 4 seconds 202 msec
