
                                 *****************
                                 * O   R   C   A *
                                 *****************

                                            #,                                       
                                            ###                                      
                                            ####                                     
                                            #####                                    
                                            ######                                   
                                           ########,                                 
                                     ,,################,,,,,                         
                               ,,#################################,,                 
                          ,,##########################################,,             
                       ,#########################################, ''#####,          
                    ,#############################################,,   '####,        
                  ,##################################################,,,,####,       
                ,###########''''           ''''###############################       
              ,#####''   ,,,,##########,,,,          '''####'''          '####       
            ,##' ,,,,###########################,,,                        '##       
           ' ,,###''''                  '''############,,,                           
         ,,##''                                '''############,,,,        ,,,,,,###''
      ,#''                                            '''#######################'''  
     '                                                          ''''####''''         
             ,#######,   #######,   ,#######,      ##                                
            ,#'     '#,  ##    ##  ,#'     '#,    #''#        ######   ,####,        
            ##       ##  ##   ,#'  ##            #'  '#       #        #'  '#        
            ##       ##  #######   ##           ,######,      #####,   #    #        
            '#,     ,#'  ##    ##  '#,     ,#' ,#      #,         ##   #,  ,#        
             '#######'   ##     ##  '#######'  #'      '#     #####' # '####'        



                  #######################################################
                  #                        -***-                        #
                  #          Department of theory and spectroscopy      #
                  #    Directorship and core code : Frank Neese         #
                  #        Max Planck Institute fuer Kohlenforschung    #
                  #                Kaiser Wilhelm Platz 1               #
                  #                 D-45470 Muelheim/Ruhr               #
                  #                      Germany                        #
                  #                                                     #
                  #                  All rights reserved                #
                  #                        -***-                        #
                  #######################################################


                         Program Version 5.0.4 -  RELEASE  -


 With contributions from (in alphabetic order):
   Daniel Aravena         : Magnetic Suceptibility
   Michael Atanasov       : Ab Initio Ligand Field Theory (pilot matlab implementation)
   Alexander A. Auer      : GIAO ZORA, VPT2 properties, NMR spectrum
   Ute Becker             : Parallelization
   Giovanni Bistoni       : ED, misc. LED, open-shell LED, HFLD
   Martin Brehm           : Molecular dynamics
   Dmytro Bykov           : SCF Hessian
   Vijay G. Chilkuri      : MRCI spin determinant printing, contributions to CSF-ICE
   Dipayan Datta          : RHF DLPNO-CCSD density
   Achintya Kumar Dutta   : EOM-CC, STEOM-CC
   Dmitry Ganyushin       : Spin-Orbit,Spin-Spin,Magnetic field MRCI
   Miquel Garcia          : C-PCM and meta-GGA Hessian, CC/C-PCM, Gaussian charge scheme
   Yang Guo               : DLPNO-NEVPT2, F12-NEVPT2, CIM, IAO-localization
   Andreas Hansen         : Spin unrestricted coupled pair/coupled cluster methods
   Benjamin Helmich-Paris : MC-RPA, TRAH-SCF, COSX integrals
   Lee Huntington         : MR-EOM, pCC
   Robert Izsak           : Overlap fitted RIJCOSX, COSX-SCS-MP3, EOM
   Marcus Kettner         : VPT2
   Christian Kollmar      : KDIIS, OOCD, Brueckner-CCSD(T), CCSD density, CASPT2, CASPT2-K
   Simone Kossmann        : Meta GGA functionals, TD-DFT gradient, OOMP2, MP2 Hessian
   Martin Krupicka        : Initial AUTO-CI
   Lucas Lang             : DCDCAS
   Marvin Lechner         : AUTO-CI (C++ implementation), FIC-MRCC
   Dagmar Lenk            : GEPOL surface, SMD
   Dimitrios Liakos       : Extrapolation schemes; Compound Job, initial MDCI parallelization
   Dimitrios Manganas     : Further ROCIS development; embedding schemes
   Dimitrios Pantazis     : SARC Basis sets
   Anastasios Papadopoulos: AUTO-CI, single reference methods and gradients
   Taras Petrenko         : DFT Hessian,TD-DFT gradient, ASA, ECA, R-Raman, ABS, FL, XAS/XES, NRVS
   Peter Pinski           : DLPNO-MP2, DLPNO-MP2 Gradient
   Christoph Reimann      : Effective Core Potentials
   Marius Retegan         : Local ZFS, SOC
   Christoph Riplinger    : Optimizer, TS searches, QM/MM, DLPNO-CCSD(T), (RO)-DLPNO pert. Triples
   Tobias Risthaus        : Range-separated hybrids, TD-DFT gradient, RPA, STAB
   Michael Roemelt        : Original ROCIS implementation
   Masaaki Saitow         : Open-shell DLPNO-CCSD energy and density
   Barbara Sandhoefer     : DKH picture change effects
   Avijit Sen             : IP-ROCIS
   Kantharuban Sivalingam : CASSCF convergence, NEVPT2, FIC-MRCI
   Bernardo de Souza      : ESD, SOC TD-DFT
   Georgi Stoychev        : AutoAux, RI-MP2 NMR, DLPNO-MP2 response
   Willem Van den Heuvel  : Paramagnetic NMR
   Boris Wezisla          : Elementary symmetry handling
   Frank Wennmohs         : Technical directorship


 We gratefully acknowledge several colleagues who have allowed us to
 interface, adapt or use parts of their codes:
   Stefan Grimme, W. Hujo, H. Kruse, P. Pracht,  : VdW corrections, initial TS optimization,
                  C. Bannwarth, S. Ehlert          DFT functionals, gCP, sTDA/sTD-DF
   Ed Valeev, F. Pavosevic, A. Kumar             : LibInt (2-el integral package), F12 methods
   Garnet Chan, S. Sharma, J. Yang, R. Olivares  : DMRG
   Ulf Ekstrom                                   : XCFun DFT Library
   Mihaly Kallay                                 : mrcc  (arbitrary order and MRCC methods)
   Jiri Pittner, Ondrej Demel                    : Mk-CCSD
   Frank Weinhold                                : gennbo (NPA and NBO analysis)
   Christopher J. Cramer and Donald G. Truhlar   : smd solvation model
   Lars Goerigk                                  : TD-DFT with DH, B97 family of functionals
   V. Asgeirsson, H. Jonsson                     : NEB implementation
   FAccTs GmbH                                   : IRC, NEB, NEB-TS, DLPNO-Multilevel, CI-OPT
                                                   MM, QMMM, 2- and 3-layer-ONIOM, Crystal-QMMM,
                                                   LR-CPCM, SF, NACMEs, symmetry and pop. for TD-DFT,
                                                   nearIR, NL-DFT gradient (VV10), updates on ESD,
                                                   ML-optimized integration grids
   S Lehtola, MJT Oliveira, MAL Marques          : LibXC Library
   Liviu Ungur et al                             : ANISO software


 Your calculation uses the libint2 library for the computation of 2-el integrals
 For citations please refer to: http://libint.valeyev.net

 Your ORCA version has been built with support for libXC version: 5.1.0
 For citations please refer to: https://tddft.org/programs/libxc/

 This ORCA versions uses:
   CBLAS   interface :  Fast vector & matrix operations
   LAPACKE interface :  Fast linear algebra routines
   SCALAPACK package :  Parallel linear algebra routines
   Shared memory     :  Shared parallel matrices
   BLAS/LAPACK       :  OpenBLAS 0.3.15  USE64BITINT DYNAMIC_ARCH NO_AFFINITY SkylakeX SINGLE_THREADED
        Core in use  :  SkylakeX
   Copyright (c) 2011-2014, The OpenBLAS Project




***************************************
The coordinates will be read from file: 6_deprot_aq_1.xyz
***************************************


Your calculation utilizes the atom-pairwise dispersion correction
based on tight binding partial charges (D4)
Cite in your paper:
E.Caldeweyher, C.Bannwarth, S.Grimme, J.Chem.Phys., (2017), 147, 034112.
E.Caldeweyher, S.Ehlert, A.Hansen, H.Neugebauer, S.Grimme, J.Chem.Phys., (2018), in progress.
   

XCFun DFT library Copyright 2009-2010 Ulf Ekstrom and contributors.
See http://admol.org/xcfun for more information.
This is free software; see the source code for copying conditions.
There is ABSOLUTELY NO WARRANTY; not even for MERCHANTABILITY or FITNESS FOR A PARTICULAR PURPOSE.
For details see the documentation.
Scientific users of this library should cite U. Ekstrom, L. Visscher, R. Bast, A. J. Thorvaldsen and K. Ruud;
J.Chem.Theor.Comp. 2010, DOI: 10.1021/ct100117s
XCFun Version 0.99 

================================================================================

----- Orbital basis set information -----
Your calculation utilizes the basis: def2-SVP
   F. Weigend and R. Ahlrichs, Phys. Chem. Chem. Phys. 7, 3297 (2005).

----- AuxJ basis set information -----
Your calculation utilizes the auxiliary basis: def2/J
   F. Weigend, Phys. Chem. Chem. Phys. 8, 1057 (2006).

================================================================================
                                        WARNINGS
                       Please study these warnings very carefully!
================================================================================


WARNING: Geometry Optimization
  ===> : Switching off AutoStart
         For restart on a previous wavefunction, please use MOREAD

INFO   : the flag for use of the SHARK integral package has been found!

================================================================================
                                       INPUT FILE
================================================================================
NAME = 6_deprot_aq_1.inp
|  1> # ORCA 5.0.4 - /users/bwb16179/postgrad/2024_03/DFT_Crest_Conformers/Opt/deprot/6_deprot_aq_1.inp # write input file
|  2> # Basic Mode
|  3> #
|  4> ! Opt Freq wB97X Def2-SVP D4 SlowConv TightSCF Defgrid2 Def2/J RIJCOSX CPCM(Water)
|  5> 
|  6> 
|  7> 
|  8> %maxcore 4500
|  9> 
| 10> %geom
| 11> Maxiter 150
| 12> END
| 13> 
| 14> * xyzfile 0 1 6_deprot_aq_1.xyz
| 15> 
| 16>                          ****END OF INPUT****
================================================================================

                       *****************************
                       * Geometry Optimization Run *
                       *****************************

Geometry optimization settings:
Update method            Update   .... BFGS
Choice of coordinates    CoordSys .... Z-matrix Internals
Initial Hessian          InHess   .... Almoef's Model

Convergence Tolerances:
Energy Change            TolE     ....  5.0000e-06 Eh
Max. Gradient            TolMAXG  ....  3.0000e-04 Eh/bohr
RMS Gradient             TolRMSG  ....  1.0000e-04 Eh/bohr
Max. Displacement        TolMAXD  ....  4.0000e-03 bohr
RMS Displacement         TolRMSD  ....  2.0000e-03 bohr
Strict Convergence                ....  False
------------------------------------------------------------------------------
                        ORCA OPTIMIZATION COORDINATE SETUP
------------------------------------------------------------------------------

The optimization will be done in new redundant internal coordinates
Making redundant internal coordinates   ...  (new redundants) done
Evaluating the initial hessian          ...  (Almloef) done
Evaluating the coordinates              ...  done
Calculating the B-matrix                .... done
Calculating the G-matrix                .... done
Diagonalizing the G-matrix              .... done
Small eigenvalue found = 1.129e-02
Small eigenvalue found = 2.043e-02
Small eigenvalue found = 2.534e-02
The first mode is                       ....   77
The number of degrees of freedom        ....   93

    -----------------------------------------------------------------
                    Redundant Internal Coordinates


    -----------------------------------------------------------------
         Definition                    Initial Value    Approx d2E/dq
    -----------------------------------------------------------------
      1. B(C   1,N   0)                  1.3567         0.632344   
      2. B(N   2,C   1)                  1.3567         0.632393   
      3. B(C   3,N   2)                  1.3824         0.575423   
      4. B(C   4,N   0)                  1.3824         0.575460   
      5. B(C   4,C   3)                  1.3607         0.695924   
      6. B(C   5,N   0)                  1.4451         0.456978   
      7. B(C   6,N   2)                  1.4451         0.456978   
      8. B(C   7,C   5)                  1.5303         0.373169   
      9. B(H   8,C   5)                  1.0959         0.352360   
     10. B(C   9,C   5)                  1.5269         0.377811   
     11. B(H  10,C   6)                  1.0959         0.352374   
     12. B(C  11,C   6)                  1.5269         0.377821   
     13. B(C  12,C   6)                  1.5303         0.373167   
     14. B(C  13,C   3)                  1.4882         0.435597   
     15. B(C  14,C   4)                  1.4882         0.435587   
     16. B(H  15,C   9)                  1.0859         0.365506   
     17. B(H  16,C   9)                  1.0868         0.364330   
     18. B(H  17,C   9)                  1.0875         0.363455   
     19. B(H  18,C   7)                  1.0882         0.362423   
     20. B(H  19,C   7)                  1.0869         0.364195   
     21. B(H  20,C   7)                  1.0870         0.364124   
     22. B(H  21,C  12)                  1.0869         0.364200   
     23. B(H  22,C  12)                  1.0870         0.364123   
     24. B(H  23,C  12)                  1.0883         0.362419   
     25. B(H  24,C  11)                  1.0875         0.363456   
     26. B(H  25,C  11)                  1.0859         0.365515   
     27. B(H  26,C  11)                  1.0868         0.364328   
     28. B(H  27,C  14)                  1.0907         0.359119   
     29. B(H  28,C  14)                  1.0870         0.364154   
     30. B(H  29,C  14)                  1.0913         0.358328   
     31. B(H  30,C  13)                  1.0914         0.358318   
     32. B(H  31,C  13)                  1.0907         0.359122   
     33. B(H  32,C  13)                  1.0870         0.364146   
     34. A(C   4,N   0,C   5)          125.5986         0.400464   
     35. A(C   1,N   0,C   5)          122.3049         0.407181   
     36. A(C   1,N   0,C   4)          112.0335         0.424224   
     37. A(N   0,C   1,N   2)          103.5470         0.431459   
     38. A(C   1,N   2,C   6)          122.3007         0.407187   
     39. A(C   1,N   2,C   3)          112.0350         0.424225   
     40. A(C   3,N   2,C   6)          125.5989         0.400460   
     41. A(N   2,C   3,C  13)          123.5163         0.399656   
     42. A(C   4,C   3,C  13)          130.2948         0.416008   
     43. A(N   2,C   3,C   4)          106.1887         0.434410   
     44. A(N   0,C   4,C   3)          106.1913         0.434415   
     45. A(N   0,C   4,C  14)          123.5186         0.399659   
     46. A(C   3,C   4,C  14)          130.2900         0.416006   
     47. A(N   0,C   5,C   9)          109.7096         0.374520   
     48. A(H   8,C   5,C   9)          109.1497         0.323763   
     49. A(C   7,C   5,H   8)          109.1696         0.323107   
     50. A(C   7,C   5,C   9)          110.8623         0.363985   
     51. A(N   0,C   5,H   8)          108.2861         0.332075   
     52. A(N   0,C   5,C   7)          109.6169         0.373722   
     53. A(H  10,C   6,C  11)          109.1490         0.323766   
     54. A(N   2,C   6,C  11)          109.7174         0.374521   
     55. A(C  11,C   6,C  12)          110.8632         0.363986   
     56. A(H  10,C   6,C  12)          109.1726         0.323109   
     57. A(N   2,C   6,C  12)          109.6034         0.373721   
     58. A(N   2,C   6,H  10)          108.2887         0.332078   
     59. A(H  19,C   7,H  20)          109.2146         0.291866   
     60. A(H  18,C   7,H  20)          108.5561         0.291642   
     61. A(C   5,C   7,H  20)          109.2644         0.324853   
     62. A(H  18,C   7,H  19)          108.7450         0.291651   
     63. A(C   5,C   7,H  19)          110.5025         0.324864   
     64. A(C   5,C   7,H  18)          110.5208         0.324604   
     65. A(H  16,C   9,H  17)          108.9152         0.291799   
     66. A(C   5,C   9,H  16)          110.3221         0.325545   
     67. A(H  15,C   9,H  16)          109.6005         0.292057   
     68. A(H  15,C   9,H  17)          108.4655         0.291947   
     69. A(C   5,C   9,H  15)          109.1916         0.325717   
     70. A(C   5,C   9,H  17)          110.3164         0.325416   
     71. A(H  25,C  11,H  26)          109.5991         0.292058   
     72. A(H  24,C  11,H  26)          108.9140         0.291799   
     73. A(H  24,C  11,H  25)          108.4672         0.291948   
     74. A(C   6,C  11,H  25)          109.1931         0.325720   
     75. A(C   6,C  11,H  24)          110.3184         0.325417   
     76. A(C   6,C  11,H  26)          110.3195         0.325546   
     77. A(H  22,C  12,H  23)          108.5547         0.291642   
     78. A(H  21,C  12,H  23)          108.7461         0.291651   
     79. A(C   6,C  12,H  23)          110.5194         0.324603   
     80. A(H  21,C  12,H  22)          109.2162         0.291867   
     81. A(C   6,C  12,H  22)          109.2607         0.324853   
     82. A(C   6,C  12,H  21)          110.5062         0.324864   
     83. A(H  31,C  13,H  32)          108.2649         0.291226   
     84. A(H  30,C  13,H  32)          108.1862         0.291123   
     85. A(H  30,C  13,H  31)          108.2745         0.290489   
     86. A(C   3,C  13,H  31)          111.0263         0.332494   
     87. A(C   3,C  13,H  30)          111.0643         0.332370   
     88. A(C   3,C  13,H  32)          109.9289         0.333261   
     89. A(H  28,C  14,H  29)          108.1861         0.291126   
     90. A(H  27,C  14,H  29)          108.2735         0.290490   
     91. A(C   4,C  14,H  29)          111.0648         0.332371   
     92. A(H  27,C  14,H  28)          108.2665         0.291227   
     93. A(C   4,C  14,H  28)          109.9273         0.333260   
     94. A(C   4,C  14,H  27)          111.0269         0.332492   
     95. D(N   2,C   1,N   0,C   4)      0.2158         0.029423   
     96. D(N   2,C   1,N   0,C   5)    177.4793         0.029423   
     97. D(C   3,N   2,C   1,N   0)      0.2269         0.029428   
     98. D(C   6,N   2,C   1,N   0)    177.4369         0.029428   
     99. D(C  13,C   3,N   2,C   1)    179.5474         0.026530   
    100. D(C   4,C   3,N   2,C   6)   -177.6800         0.026530   
    101. D(C  13,C   3,N   2,C   6)      2.4478         0.026530   
    102. D(C   4,C   3,N   2,C   1)     -0.5804         0.026530   
    103. D(C  14,C   4,C   3,N   2)   -179.4661         0.034077   
    104. D(C  14,C   4,N   0,C   5)      2.3955         0.026534   
    105. D(N   0,C   4,C   3,N   2)      0.6695         0.034077   
    106. D(N   0,C   4,C   3,C  13)   -179.4702         0.034077   
    107. D(C   3,C   4,N   0,C   5)   -177.7286         0.026534   
    108. D(C   3,C   4,N   0,C   1)     -0.5733         0.026534   
    109. D(C  14,C   4,C   3,C  13)      0.3941         0.034077   
    110. D(C  14,C   4,N   0,C   1)    179.5508         0.026534   
    111. D(H   8,C   5,N   0,C   4)    -17.1177         0.017822   
    112. D(C   9,C   5,N   0,C   4)   -136.1541         0.017822   
    113. D(H   8,C   5,N   0,C   1)    166.0024         0.017822   
    114. D(C   9,C   5,N   0,C   1)     46.9660         0.017822   
    115. D(C   7,C   5,N   0,C   1)    -74.9907         0.017822   
    116. D(C   7,C   5,N   0,C   4)    101.8892         0.017822   
    117. D(C  12,C   6,N   2,C   3)    101.9258         0.017822   
    118. D(C  11,C   6,N   2,C   3)   -136.1201         0.017822   
    119. D(C  11,C   6,N   2,C   1)     47.0609         0.017822   
    120. D(C  12,C   6,N   2,C   1)    -74.8932         0.017822   
    121. D(H  10,C   6,N   2,C   3)    -17.0786         0.017822   
    122. D(H  10,C   6,N   2,C   1)    166.1024         0.017822   
    123. D(H  18,C   7,C   5,H   8)     59.6607         0.011121   
    124. D(H  18,C   7,C   5,N   0)    -58.7999         0.011121   
    125. D(H  18,C   7,C   5,C   9)    179.9357         0.011121   
    126. D(H  20,C   7,C   5,C   9)    -60.6733         0.011121   
    127. D(H  20,C   7,C   5,H   8)    179.0517         0.011121   
    128. D(H  19,C   7,C   5,C   9)     59.5182         0.011121   
    129. D(H  20,C   7,C   5,N   0)     60.5911         0.011121   
    130. D(H  19,C   7,C   5,H   8)    -60.7568         0.011121   
    131. D(H  19,C   7,C   5,N   0)   -179.2174         0.011121   
    132. D(H  17,C   9,C   5,H   8)    -58.2551         0.011383   
    133. D(H  17,C   9,C   5,C   7)   -178.5419         0.011383   
    134. D(H  17,C   9,C   5,N   0)     60.2483         0.011383   
    135. D(H  16,C   9,C   5,H   8)     62.1251         0.011383   
    136. D(H  16,C   9,C   5,C   7)    -58.1618         0.011383   
    137. D(H  16,C   9,C   5,N   0)   -179.3715         0.011383   
    138. D(H  15,C   9,C   5,H   8)   -177.3652         0.011383   
    139. D(H  15,C   9,C   5,C   7)     62.3480         0.011383   
    140. D(H  15,C   9,C   5,N   0)    -58.8618         0.011383   
    141. D(H  26,C  11,C   6,H  10)     62.1302         0.011384   
    142. D(H  26,C  11,C   6,N   2)   -179.3590         0.011384   
    143. D(H  25,C  11,C   6,C  12)     62.3469         0.011384   
    144. D(H  25,C  11,C   6,H  10)   -177.3624         0.011384   
    145. D(H  25,C  11,C   6,N   2)    -58.8516         0.011384   
    146. D(H  24,C  11,C   6,C  12)   -178.5388         0.011384   
    147. D(H  24,C  11,C   6,H  10)    -58.2481         0.011384   
    148. D(H  26,C  11,C   6,C  12)    -58.1605         0.011384   
    149. D(H  24,C  11,C   6,N   2)     60.2627         0.011384   
    150. D(H  23,C  12,C   6,N   2)    -58.7704         0.011121   
    151. D(H  22,C  12,C   6,C  11)    -60.6502         0.011121   
    152. D(H  22,C  12,C   6,H  10)    179.0732         0.011121   
    153. D(H  22,C  12,C   6,N   2)     60.6156         0.011121   
    154. D(H  21,C  12,C   6,C  11)     59.5434         0.011121   
    155. D(H  21,C  12,C   6,H  10)    -60.7332         0.011121   
    156. D(H  23,C  12,C   6,H  10)     59.6872         0.011121   
    157. D(H  21,C  12,C   6,N   2)   -179.1909         0.011121   
    158. D(H  23,C  12,C   6,C  11)    179.9638         0.011121   
    159. D(H  32,C  13,C   3,C   4)      2.2107         0.014006   
    160. D(H  32,C  13,C   3,N   2)   -177.9503         0.014006   
    161. D(H  31,C  13,C   3,C   4)    121.9809         0.014006   
    162. D(H  31,C  13,C   3,N   2)    -58.1801         0.014006   
    163. D(H  30,C  13,C   3,C   4)   -117.4856         0.014006   
    164. D(H  30,C  13,C   3,N   2)     62.3535         0.014006   
    165. D(H  29,C  14,C   4,C   3)   -117.5532         0.014005   
    166. D(H  29,C  14,C   4,N   0)     62.2906         0.014005   
    167. D(H  28,C  14,C   4,C   3)      2.1423         0.014005   
    168. D(H  28,C  14,C   4,N   0)   -178.0139         0.014005   
    169. D(H  27,C  14,C   4,C   3)    121.9138         0.014005   
    170. D(H  27,C  14,C   4,N   0)    -58.2425         0.014005   
    -----------------------------------------------------------------

Number of atoms                         .... 33
Number of degrees of freedom            .... 170

         *************************************************************
         *                GEOMETRY OPTIMIZATION CYCLE   1            *
         *************************************************************
---------------------------------
CARTESIAN COORDINATES (ANGSTROEM)
---------------------------------
  N     -1.062214   -0.040009    0.086651
  C      0.000116   -0.879417   -0.000353
  N      1.062296   -0.039823   -0.087061
  C      0.678408    1.287707   -0.050356
  C     -0.678489    1.287570    0.050656
  C     -2.423811   -0.520851    0.144002
  C      2.423982   -0.520499   -0.143673
  C     -2.860031   -0.995253   -1.243968
  H     -3.067980    0.307499    0.460090
  C     -2.527585   -1.653133    1.163161
  H      3.068461    0.308299   -0.457914
  C      2.529065   -1.651433   -1.164184
  C      2.858483   -0.996688    1.244225
  C      1.638390    2.422878   -0.117647
  C     -1.638568    2.422634    0.118471
  H     -1.854343   -2.455170    0.875488
  H     -3.546085   -2.029925    1.206344
  H     -2.240262   -1.299785    2.150680
  H     -2.785002   -0.183993   -1.965436
  H     -3.887986   -1.347591   -1.220197
  H     -2.211410   -1.805801   -1.566175
  H      3.886617   -1.348560    1.221449
  H      2.209710   -1.807947    1.564333
  H      2.782041   -0.186484    1.966734
  H      2.243021   -1.296817   -2.151619
  H      1.855519   -2.453887   -0.878419
  H      3.547640   -2.028119   -1.206542
  H     -2.364498    2.370275   -0.693935
  H     -1.103854    3.365482    0.037322
  H     -2.182837    2.420046    1.064406
  H      2.181806    2.421454   -1.064084
  H      2.365041    2.369545    0.694047
  H      1.103746    3.365630   -0.034854

----------------------------
CARTESIAN COORDINATES (A.U.)
----------------------------
  NO LB      ZA    FRAG     MASS         X           Y           Z
   0 N     7.0000    0    14.007   -2.007294   -0.075606    0.163747
   1 C     6.0000    0    12.011    0.000218   -1.661857   -0.000667
   2 N     7.0000    0    14.007    2.007448   -0.075255   -0.164521
   3 C     6.0000    0    12.011    1.282006    2.433414   -0.095159
   4 C     6.0000    0    12.011   -1.282157    2.433154    0.095727
   5 C     6.0000    0    12.011   -4.580339   -0.984265    0.272124
   6 C     6.0000    0    12.011    4.580663   -0.983600   -0.271503
   7 C     6.0000    0    12.011   -5.404675   -1.880755   -2.350759
   8 H     1.0000    0     1.008   -5.797643    0.581090    0.869444
   9 C     6.0000    0    12.011   -4.776444   -3.123968    2.198055
  10 H     1.0000    0     1.008    5.798551    0.582600   -0.865333
  11 C     6.0000    0    12.011    4.779240   -3.120756   -2.199989
  12 C     6.0000    0    12.011    5.401750   -1.883468    2.351245
  13 C     6.0000    0    12.011    3.096108    4.578576   -0.222321
  14 C     6.0000    0    12.011   -3.096445    4.578115    0.223878
  15 H     1.0000    0     1.008   -3.504201   -4.639599    1.654432
  16 H     1.0000    0     1.008   -6.701130   -3.836002    2.279660
  17 H     1.0000    0     1.008   -4.233482   -2.456237    4.064196
  18 H     1.0000    0     1.008   -5.262891   -0.347696   -3.714135
  19 H     1.0000    0     1.008   -7.347229   -2.546577   -2.305839
  20 H     1.0000    0     1.008   -4.178960   -3.412469   -2.959642
  21 H     1.0000    0     1.008    7.344641   -2.548409    2.308203
  22 H     1.0000    0     1.008    4.175747   -3.416525    2.956162
  23 H     1.0000    0     1.008    5.257296   -0.352403    3.716589
  24 H     1.0000    0     1.008    4.238696   -2.450628   -4.065971
  25 H     1.0000    0     1.008    3.506422   -4.637174   -1.659971
  26 H     1.0000    0     1.008    6.704069   -3.832589   -2.280035
  27 H     1.0000    0     1.008   -4.468254    4.479170   -1.311347
  28 H     1.0000    0     1.008   -2.085981    6.359839    0.070529
  29 H     1.0000    0     1.008   -4.124965    4.573225    2.011436
  30 H     1.0000    0     1.008    4.123016    4.575884   -2.010828
  31 H     1.0000    0     1.008    4.469279    4.477791    1.311559
  32 H     1.0000    0     1.008    2.085778    6.360118   -0.065864

--------------------------------
INTERNAL COORDINATES (ANGSTROEM)
--------------------------------
 N      0   0   0     0.000000000000     0.00000000     0.00000000
 C      1   0   0     1.356731477363     0.00000000     0.00000000
 N      2   1   0     1.356710231462   103.54696674     0.00000000
 C      3   2   1     1.382408712586   112.03495094     0.22690824
 C      4   3   2     1.360651653763   106.18874352   359.41960687
 C      1   2   3     1.445145079946   122.30489606   177.47928113
 C      3   2   1     1.445144818642   122.30065803   177.43691098
 C      6   1   2     1.530295870281   109.61693425   285.00932546
 H      6   1   2     1.095914970946   108.28605062   166.00236872
 C      6   1   2     1.526930491226   109.70964845    46.96600228
 H      7   3   2     1.095904259133   108.28868214   166.10239939
 C      7   3   2     1.526923618094   109.71743878    47.06087046
 C      7   3   2     1.530297137721   109.60335746   285.10679446
 C      4   3   2     1.488188625961   123.51629767   179.54743848
 C      5   4   3     1.488194781497   130.28995133   180.53386202
 H     10   6   1     1.085943847573   109.19156992   301.13822114
 H     10   6   1     1.086820843763   110.32208888   180.62845636
 H     10   6   1     1.087475856318   110.31641957    60.24828201
 H      8   6   1     1.088249705153   110.52081561   301.20011827
 H      8   6   1     1.086921786210   110.50245416   180.78264189
 H      8   6   1     1.086974855499   109.26436058    60.59107853
 H     13   7   3     1.086918498205   110.50616916   180.80914367
 H     13   7   3     1.086975697388   109.26066155    60.61555838
 H     13   7   3     1.088252520450   110.51935016   301.22956847
 H     12   7   3     1.087475141366   110.31836080    60.26267934
 H     12   7   3     1.085936907984   109.19306941   301.14838074
 H     12   7   3     1.086822264754   110.31954778   180.64098386
 H     15   5   4     1.090742351586   111.02685997   121.91379471
 H     15   5   4     1.086952900127   109.92728851     2.14230818
 H     15   5   4     1.091342608634   111.06484949   242.44684500
 H     14   4   3     1.091350778819   111.06431306    62.35347774
 H     14   4   3     1.090740129460   111.02632189   301.81991146
 H     14   4   3     1.086958577216   109.92892094   182.04972892

---------------------------
INTERNAL COORDINATES (A.U.)
---------------------------
 N      0   0   0     0.000000000000     0.00000000     0.00000000
 C      1   0   0     2.563850929486     0.00000000     0.00000000
 N      2   1   0     2.563810780552   103.54696674     0.00000000
 C      3   2   1     2.612373871934   112.03495094     0.22690824
 C      4   3   2     2.571258989278   106.18874352   359.41960687
 C      1   2   3     2.730928424882   122.30489606   177.47928113
 C      3   2   1     2.730927931088   122.30065803   177.43691098
 C      6   1   2     2.891840098701   109.61693425   285.00932546
 H      6   1   2     2.070979161152   108.28605062   166.00236872
 C      6   1   2     2.885480453952   109.70964845    46.96600228
 H      7   3   2     2.070958918759   108.28868214   166.10239939
 C      7   3   2     2.885467465614   109.71743878    47.06087046
 C      7   3   2     2.891842493816   109.60335746   285.10679446
 C      4   3   2     2.812268938683   123.51629767   179.54743848
 C      5   4   3     2.812280570961   130.28995133   180.53386202
 H     10   6   1     2.052136468729   109.19156992   301.13822114
 H     10   6   1     2.053793751350   110.32208888   180.62845636
 H     10   6   1     2.055031545693   110.31641957    60.24828201
 H      8   6   1     2.056493908059   110.52081561   301.20011827
 H      8   6   1     2.053984504930   110.50245416   180.78264189
 H      8   6   1     2.054084791352   109.26436058    60.59107853
 H     13   7   3     2.053978291501   110.50616916   180.80914367
 H     13   7   3     2.054086382291   109.26066155    60.61555838
 H     13   7   3     2.056499228199   110.51935016   301.22956847
 H     12   7   3     2.055030194629   110.31836080    60.26267934
 H     12   7   3     2.052123354807   109.19306941   301.14838074
 H     12   7   3     2.053796436634   110.31954778   180.64098386
 H     15   5   4     2.061204327166   111.02685997   121.91379471
 H     15   5   4     2.054043301711   109.92728851     2.14230818
 H     15   5   4     2.062338648598   111.06484949   242.44684500
 H     14   4   3     2.062354088009   111.06431306    62.35347774
 H     14   4   3     2.061200127957   111.02632189   301.81991146
 H     14   4   3     2.054054029855   109.92892094   182.04972892

---------------------
BASIS SET INFORMATION
---------------------
There are 3 groups of distinct atoms

 Group   1 Type N   : 7s4p1d contracted to 3s2p1d pattern {511/31/1}
 Group   2 Type C   : 7s4p1d contracted to 3s2p1d pattern {511/31/1}
 Group   3 Type H   : 4s1p contracted to 2s1p pattern {31/1}

Atom   0N    basis set group =>   1
Atom   1C    basis set group =>   2
Atom   2N    basis set group =>   1
Atom   3C    basis set group =>   2
Atom   4C    basis set group =>   2
Atom   5C    basis set group =>   2
Atom   6C    basis set group =>   2
Atom   7C    basis set group =>   2
Atom   8H    basis set group =>   3
Atom   9C    basis set group =>   2
Atom  10H    basis set group =>   3
Atom  11C    basis set group =>   2
Atom  12C    basis set group =>   2
Atom  13C    basis set group =>   2
Atom  14C    basis set group =>   2
Atom  15H    basis set group =>   3
Atom  16H    basis set group =>   3
Atom  17H    basis set group =>   3
Atom  18H    basis set group =>   3
Atom  19H    basis set group =>   3
Atom  20H    basis set group =>   3
Atom  21H    basis set group =>   3
Atom  22H    basis set group =>   3
Atom  23H    basis set group =>   3
Atom  24H    basis set group =>   3
Atom  25H    basis set group =>   3
Atom  26H    basis set group =>   3
Atom  27H    basis set group =>   3
Atom  28H    basis set group =>   3
Atom  29H    basis set group =>   3
Atom  30H    basis set group =>   3
Atom  31H    basis set group =>   3
Atom  32H    basis set group =>   3
---------------------------------
AUXILIARY/J BASIS SET INFORMATION
---------------------------------
There are 3 groups of distinct atoms

 Group   1 Type N   : 12s5p4d2f1g contracted to 6s4p3d1f1g pattern {711111/2111/211/2/1}
 Group   2 Type C   : 12s5p4d2f1g contracted to 6s4p3d1f1g pattern {711111/2111/211/2/1}
 Group   3 Type H   : 5s2p1d contracted to 3s1p1d pattern {311/2/1}

Atom   0N    basis set group =>   1
Atom   1C    basis set group =>   2
Atom   2N    basis set group =>   1
Atom   3C    basis set group =>   2
Atom   4C    basis set group =>   2
Atom   5C    basis set group =>   2
Atom   6C    basis set group =>   2
Atom   7C    basis set group =>   2
Atom   8H    basis set group =>   3
Atom   9C    basis set group =>   2
Atom  10H    basis set group =>   3
Atom  11C    basis set group =>   2
Atom  12C    basis set group =>   2
Atom  13C    basis set group =>   2
Atom  14C    basis set group =>   2
Atom  15H    basis set group =>   3
Atom  16H    basis set group =>   3
Atom  17H    basis set group =>   3
Atom  18H    basis set group =>   3
Atom  19H    basis set group =>   3
Atom  20H    basis set group =>   3
Atom  21H    basis set group =>   3
Atom  22H    basis set group =>   3
Atom  23H    basis set group =>   3
Atom  24H    basis set group =>   3
Atom  25H    basis set group =>   3
Atom  26H    basis set group =>   3
Atom  27H    basis set group =>   3
Atom  28H    basis set group =>   3
Atom  29H    basis set group =>   3
Atom  30H    basis set group =>   3
Atom  31H    basis set group =>   3
Atom  32H    basis set group =>   3
------------------------------------------------------------------------------
                           ORCA GTO INTEGRAL CALCULATION
                           -- RI-GTO INTEGRALS CHOSEN --
------------------------------------------------------------------------------
------------------------------------------------------------------------------
                   ___                                                        
                  /   \      - P O W E R E D   B Y -                         
                 /     \                                                     
                 |  |  |   _    _      __       _____    __    __             
                 |  |  |  | |  | |    /  \     |  _  \  |  |  /  |          
                  \  \/   | |  | |   /    \    | | | |  |  | /  /          
                 / \  \   | |__| |  /  /\  \   | |_| |  |  |/  /          
                |  |  |   |  __  | /  /__\  \  |    /   |      \           
                |  |  |   | |  | | |   __   |  |    \   |  |\   \          
                \     /   | |  | | |  |  |  |  | |\  \  |  | \   \       
                 \___/    |_|  |_| |__|  |__|  |_| \__\ |__|  \__/        
                                                                              
                      - O R C A' S   B I G   F R I E N D -                    
                                      &                                       
                       - I N T E G R A L  F E E D E R -                       
                                                                              
 v1 FN, 2020, v2 2021                                                         
------------------------------------------------------------------------------


Reading SHARK input file 6_deprot_aq_1.SHARKINP.tmp ... ok
----------------------
SHARK INTEGRAL PACKAGE
----------------------

Number of atoms                             ...     33
Number of basis functions                   ...    282
Number of shells                            ...    138
Maximum angular momentum                    ...      2
Integral batch strategy                     ... SHARK/LIBINT Hybrid
RI-J (if used) integral strategy            ... SPLIT-RIJ (Revised 2003 algorithm where possible)
Printlevel                                  ...      1
Contraction scheme used                     ... SEGMENTED contraction
Coulomb Range Separation                    ... NOT USED
Exchange Range Separation                   ... Long Range
   Mu parameter                             ...  0.300000
   Scaling (regular/separated)              ...  0.157706  0.842294
Finite Nucleus Model                        ... NOT USED
Auxiliary Coulomb fitting basis             ... AVAILABLE
   # of basis functions in Aux-J            ...    857
   # of shells in Aux-J                     ...    295
   Maximum angular momentum in Aux-J        ...      4
Auxiliary J/K fitting basis                 ... NOT available
Auxiliary Correlation fitting basis         ... NOT available
Auxiliary 'external' fitting basis          ... NOT available
Integral threshold                          ...     2.500000e-11
Primitive cut-off                           ...     2.500000e-12
Primitive pair pre-selection threshold      ...     2.500000e-12

Calculating pre-screening integrals         ... done (  0.1 sec) Dimension = 138
Organizing shell pair data                  ... done (  0.1 sec)
Shell pair information
Total number of shell pairs                 ...      9591
Shell pairs after pre-screening             ...      8272
Total number of primitive shell pairs       ...     33125
Primitive shell pairs kept                  ...     19755
          la=0 lb=0:   2823 shell pairs
          la=1 lb=0:   3122 shell pairs
          la=1 lb=1:    889 shell pairs
          la=2 lb=0:    877 shell pairs
          la=2 lb=1:    484 shell pairs
          la=2 lb=2:     77 shell pairs

Calculating one electron integrals          ... done (  0.1 sec)
Calculating RI/J V-Matrix + Cholesky decomp.... done (  0.1 sec)
Calculating Nuclear repulsion               ... done (  0.0 sec) ENN=    859.351070352912 Eh

SHARK setup successfully completed in   0.4 seconds

Maximum memory used throughout the entire GTOINT-calculation: 47.6 MB
-------------------------------------------------------------------------------
                                 ORCA SCF
-------------------------------------------------------------------------------

------------
SCF SETTINGS
------------
Hamiltonian:
 Density Functional     Method          .... DFT(GTOs)
 Exchange Functional    Exchange        .... WB97X
 Correlation Functional Correlation     .... WB97X
 Gradients option       PostSCFGGA      .... off
 Hybrid DFT is turned on
   Fraction HF Exchange ScalHFX         ....  0.157706
   Scaling of DF-GGA-X  ScalDFX         ....  0.000000
   Scaling of DF-GGA-C  ScalDFC         ....  1.000000
   Scaling of DF-LDA-C  ScalLDAC        ....  1.000000
   Perturbative correction              ....  0.000000
   Density functional embedding theory  .... OFF
 Long-range corrected/Screened/Range-Separated Hybrid DFT is turned on
   Amount of maximum screened exact exchange              ....  0.842294
   Range separation parameter mu (erf(mu*r12)/r12)        ....  0.300000
 RI-approximation to the Coulomb term is turned on
   Number of AuxJ basis functions       .... 857
   RIJ-COSX (HFX calculated with COS-X)).... on


General Settings:
 Integral files         IntName         .... 6_deprot_aq_1
 Hartree-Fock type      HFTyp           .... RHF
 Total Charge           Charge          ....    0
 Multiplicity           Mult            ....    1
 Number of Electrons    NEL             ....  100
 Basis Dimension        Dim             ....  282
 Nuclear Repulsion      ENuc            ....    859.3510703529 Eh

Convergence Acceleration:
 DIIS                   CNVDIIS         .... on
   Start iteration      DIISMaxIt       ....     0
   Startup error        DIISStart       ....  0.200000
   # of expansion vecs  DIISMaxEq       ....     5
   Bias factor          DIISBfac        ....   1.050
   Max. coefficient     DIISMaxC        ....  10.000
 Trust-Rad. Augm. Hess. CNVTRAH         .... auto
   Auto Start mean grad. ratio tolernc. ....  1.125000
   Auto Start start iteration           ....    20
   Auto Start num. interpolation iter.  ....    10
   Max. Number of Micro iterations      ....    16
   Max. Number of Macro iterations      .... Maxiter - #DIIS iter
   Number of Davidson start vectors     ....     2
   Converg. threshold I  (grad. norm)   ....   1.000e-05
   Converg. threshold II (energy diff.) ....   1.000e-08
   Grad. Scal. Fac. for Micro threshold ....   0.100
   Minimum threshold for Micro iter.    ....   0.010
   NR start threshold (gradient norm)   ....   0.001
   Initial trust radius                 ....   0.400
   Minimum AH scaling param. (alpha)    ....   1.000
   Maximum AH scaling param. (alpha)    .... 1000.000
   Orbital update algorithm             .... Taylor
   White noise on init. David. guess    .... on
   Maximum white noise                  ....   0.010
   Quad. conv. algorithm                .... NR
 SOSCF                  CNVSOSCF        .... on
   Start iteration      SOSCFMaxIt      ....   150
   Startup grad/error   SOSCFStart      ....  0.001000
 Level Shifting         CNVShift        .... on
   Level shift para.    LevelShift      ....    0.2500
   Turn off err/grad.   ShiftErr        ....    0.0000
 Zerner damping         CNVZerner       .... off
 Static damping         CNVDamp         .... on
   Fraction old density DampFac         ....    0.8500
   Max. Damping (<1)    DampMax         ....    0.9800
   Min. Damping (>=0)   DampMin         ....    0.0000
   Turn off err/grad.   DampErr         ....    0.0300
 Fernandez-Rico         CNVRico         .... off

SCF Procedure:
 Maximum # iterations   MaxIter         ....   125
 SCF integral mode      SCFMode         .... Direct
   Integral package                     .... SHARK and LIBINT hybrid scheme
 Reset frequency        DirectResetFreq ....    20
 Integral Threshold     Thresh          ....  2.500e-11 Eh
 Primitive CutOff       TCut            ....  2.500e-12 Eh

Convergence Tolerance:
 Convergence Check Mode ConvCheckMode   .... Total+1el-Energy
 Convergence forced     ConvForced      .... 0
 Energy Change          TolE            ....  1.000e-08 Eh
 1-El. energy change                    ....  1.000e-05 Eh
 Orbital Gradient       TolG            ....  1.000e-05
 Orbital Rotation angle TolX            ....  1.000e-05
 DIIS Error             TolErr          ....  5.000e-07


Diagonalization of the overlap matrix:
Smallest eigenvalue                        ... 8.582e-04
Time for diagonalization                   ...    0.013 sec
Threshold for overlap eigenvalues          ... 1.000e-08
Number of eigenvalues below threshold      ... 0
Time for construction of square roots      ...    0.009 sec
Total time needed                          ...    0.023 sec

Time for model grid setup =    0.691 sec

------------------------------
INITIAL GUESS: MODEL POTENTIAL
------------------------------
Loading Hartree-Fock densities                     ... done
Calculating cut-offs                               ... done
Initializing the effective Hamiltonian             ... done
Setting up the integral package (SHARK)            ... done
Starting the Coulomb interaction                   ... done (   0.8 sec)
Reading the grid                                   ... done
Mapping shells                                     ... done
Starting the XC term evaluation                    ... done (   0.7 sec)
  promolecular density results
     # of electrons  =     99.993369278
     EX              =    -75.330748568
     EC              =     -3.313227053
     EX+EC           =    -78.643975621
Transforming the Hamiltonian                       ... done (   0.0 sec)
Diagonalizing the Hamiltonian                      ... done (   0.0 sec)
Back transforming the eigenvectors                 ... done (   0.0 sec)
Now organizing SCF variables                       ... done
                      ------------------
                      INITIAL GUESS DONE (   2.2 sec)
                      ------------------
-------------------
DFT GRID GENERATION
-------------------

General Integration Accuracy     IntAcc      ... 4.388
Radial Grid Type                 RadialGrid  ... OptM3 with GC (2021)
Angular Grid (max. ang.)         AngularGrid ... 4 (Lebedev-302)
Angular grid pruning method      GridPruning ... 4 (adaptive)
Weight generation scheme         WeightScheme... Becke
Basis function cutoff            BFCut       ... 1.0000e-11
Integration weight cutoff        WCut        ... 1.0000e-14
Angular grids for H and He will be reduced by one unit
Partially contracted basis set               ... off
Rotationally invariant grid construction     ... off

Total number of grid points                  ...   141264
Total number of batches                      ...     2225
Average number of points per batch           ...       63
Average number of grid points per atom       ...     4281
Time for grid setup =    2.476 sec

--------------------
COSX GRID GENERATION
--------------------

GRIDX 1
-------
General Integration Accuracy     IntAcc      ... 3.816
Radial Grid Type                 RadialGrid  ... OptM3 with GC (2021)
Angular Grid (max. ang.)         AngularGrid ... 1 (Lebedev-50)
Angular grid pruning method      GridPruning ... 4 (adaptive)
Weight generation scheme         WeightScheme... Becke
Basis function cutoff            BFCut       ... 1.0000e-11
Integration weight cutoff        WCut        ... 1.0000e-14
Angular grids for H and He will be reduced by one unit
Partially contracted basis set               ... on
Rotationally invariant grid construction     ... off

Total number of grid points                  ...    18041
Total number of batches                      ...      301
Average number of points per batch           ...       59
Average number of grid points per atom       ...      547
UseSFitting                                  ... on

GRIDX 2
-------
General Integration Accuracy     IntAcc      ... 4.020
Radial Grid Type                 RadialGrid  ... OptM3 with GC (2021)
Angular Grid (max. ang.)         AngularGrid ... 2 (Lebedev-110)
Angular grid pruning method      GridPruning ... 4 (adaptive)
Weight generation scheme         WeightScheme... Becke
Basis function cutoff            BFCut       ... 1.0000e-11
Integration weight cutoff        WCut        ... 1.0000e-14
Angular grids for H and He will be reduced by one unit
Partially contracted basis set               ... on
Rotationally invariant grid construction     ... off

Total number of grid points                  ...    37559
Total number of batches                      ...      605
Average number of points per batch           ...       62
Average number of grid points per atom       ...     1138
UseSFitting                                  ... on

GRIDX 3
-------
General Integration Accuracy     IntAcc      ... 4.338
Radial Grid Type                 RadialGrid  ... OptM3 with GC (2021)
Angular Grid (max. ang.)         AngularGrid ... 3 (Lebedev-194)
Angular grid pruning method      GridPruning ... 4 (adaptive)
Weight generation scheme         WeightScheme... Becke
Basis function cutoff            BFCut       ... 1.0000e-11
Integration weight cutoff        WCut        ... 1.0000e-14
Angular grids for H and He will be reduced by one unit
Partially contracted basis set               ... on
Rotationally invariant grid construction     ... off

Total number of grid points                  ...    81663
Total number of batches                      ...     1291
Average number of points per batch           ...       63
Average number of grid points per atom       ...     2475
UseSFitting                                  ... on

Time for X-Grid setup             =    3.269 sec


--------------------
CPCM SOLVATION MODEL
--------------------
CPCM parameters:
  Epsilon                                         ...      80.4000
  Refrac                                          ...       1.3300
  Rsolv                                           ...       1.3000
  Surface type                                    ... GAUSSIAN VDW
  Epsilon function type                           ...         CPCM
Radii:
 Radius for N  used is    3.5149 Bohr (=   1.8600 Ang.)
 Radius for C  used is    3.8550 Bohr (=   2.0400 Ang.)
 Radius for H  used is    2.4944 Bohr (=   1.3200 Ang.)
Calculating surface                               ...        done! (  0.0s)
GEPOL surface points                              ...         1739
GEPOL Volume                                      ...    1694.2539
GEPOL Surface-area                                ...     919.2872
Calculating surface distance matrix               ...        done! (  0.0s)
Performing Cholesky decomposition & store         ...        done! (  0.1s)
Overall time for CPCM initialization              ...                 0.1s
--------------
SCF ITERATIONS
--------------
ITER       Energy         Delta-E        Max-DP      RMS-DP      [F,P]     Damp
               ***  Starting incremental Fock matrix formation  ***
  0   -539.8609251967   0.000000000000 0.03733184  0.00069724  0.1566342 0.8500
  1   -539.9278171871  -0.066891990375 0.03935483  0.00065933  0.1261765 0.8500
                               ***Turning on DIIS***
  2   -539.9790180527  -0.051200865638 0.03427576  0.00054092  0.0968490 0.8500
  3   -540.0172069856  -0.038188932840 0.02739909  0.00038629  0.0733897 0.8500
  4   -540.0466865412  -0.029479555601 0.02242325  0.00029560  0.0588253 0.8500
  5   -540.0699000864  -0.023213545280 0.01884524  0.00024219  0.0487008 0.8500
  6   -540.0887399731  -0.018839886654 0.01602879  0.00020425  0.0409350 0.8500
  7   -540.1043024651  -0.015562492051 0.01378041  0.00017582  0.0346391 0.8500
  8   -540.1172951673  -0.012992702145 0.07911613  0.00100954  0.0293114 0.0000
  9   -540.1869862847  -0.069691117399 0.00154620  0.00003748  0.0012562 0.0000
                      *** Initiating the SOSCF procedure ***
                           *** Shutting down DIIS ***
                      *** Re-Reading the Fockian *** 
                      *** Removing any level shift *** 
ITER      Energy       Delta-E        Grad      Rot      Max-DP    RMS-DP
 10   -540.18701445  -0.0000281678  0.000362  0.000362  0.000669  0.000018
               *** Restarting incremental Fock matrix formation ***
 11   -540.18707991  -0.0000654591  0.000240  0.000565  0.000400  0.000014
 12   -540.18708095  -0.0000010434  0.000090  0.000442  0.000271  0.000009
 13   -540.18708120  -0.0000002406  0.000032  0.000028  0.000120  0.000003
 14   -540.18708124  -0.0000000433  0.000007  0.000010  0.000062  0.000001
 15   -540.18708125  -0.0000000137  0.000004  0.000015  0.000018  0.000000
                  ***Gradient check signals convergence***
              ***Rediagonalizing the Fockian in SOSCF/NRSCF***

               *****************************************************
               *                     SUCCESS                       *
               *           SCF CONVERGED AFTER  16 CYCLES          *
               *****************************************************

Old exchange energy                            =    -25.342221233 Eh
New exchange energy                            =    -25.342157249 Eh
Exchange energy change after final integration =      0.000063984 Eh
Total energy after final integration           =   -540.187017275 Eh
Final COS-X integration done in                =    90.942 sec

----------------
TOTAL SCF ENERGY
----------------

Total Energy       :         -540.18701728 Eh          -14699.23603 eV

Components:
Nuclear Repulsion  :          859.35107035 Eh           23384.13145 eV
Electronic Energy  :        -1399.53808763 Eh          -38083.36749 eV
One Electron Energy:        -2434.09475513 Eh          -66235.08561 eV
Two Electron Energy:         1034.55666751 Eh           28151.71813 eV
Max COSX asymmetry :            0.00000191 Eh               0.00005 eV
CPCM Dielectric    :           -0.01370067 Eh              -0.37281 eV

Virial components:
Potential Energy   :        -1074.13294745 Eh          -29228.64346 eV
Kinetic Energy     :          533.94593018 Eh           14529.40742 eV
Virial Ratio       :            2.01168861


DFT components:
N(Alpha)           :       50.000041481417 electrons
N(Beta)            :       50.000041481417 electrons
N(Total)           :      100.000082962834 electrons
E(XC)              :      -55.559172051593 Eh       
DFET-embed. en.    :        0.000000000000 Eh       
CPCM Solvation Model Properties:
Surface-charge          :           -0.02880256
Charge-correction       :           -0.00044978 Eh              -0.01224 eV
Free-energy (cav+disp)  :  This term is not implemented in the current solvation scheme

---------------
SCF CONVERGENCE
---------------

  Last Energy change         ...   -6.8244e-09  Tolerance :   1.0000e-08
  Last MAX-Density change    ...    3.9968e-15  Tolerance :   1.0000e-07
  Last RMS-Density change    ...    4.3553e-17  Tolerance :   5.0000e-09
  Last Orbital Gradient      ...    7.3235e-07  Tolerance :   1.0000e-05
  Last Orbital Rotation      ...    3.3282e-06  Tolerance :   1.0000e-05

             **** THE GBW FILE WAS UPDATED (6_deprot_aq_1.gbw) ****
             **** DENSITY 6_deprot_aq_1.scfp WAS UPDATED ****
             **** ENERGY FILE WAS UPDATED (6_deprot_aq_1.en.tmp) ****
             **** THE GBW FILE WAS UPDATED (6_deprot_aq_1.gbw) ****
             **** DENSITY 6_deprot_aq_1.scfp WAS UPDATED ****
----------------
ORBITAL ENERGIES
----------------

  NO   OCC          E(Eh)            E(eV) 
   0   2.0000     -14.437247      -392.8575 
   1   2.0000     -14.437240      -392.8573 
   2   2.0000     -10.303277      -280.3664 
   3   2.0000     -10.303244      -280.3655 
   4   2.0000     -10.287649      -279.9412 
   5   2.0000     -10.287130      -279.9270 
   6   2.0000     -10.268537      -279.4211 
   7   2.0000     -10.268478      -279.4195 
   8   2.0000     -10.265336      -279.3340 
   9   2.0000     -10.254541      -279.0402 
  10   2.0000     -10.254530      -279.0400 
  11   2.0000     -10.252094      -278.9737 
  12   2.0000     -10.252077      -278.9732 
  13   2.0000      -1.144778       -31.1510 
  14   2.0000      -1.043049       -28.3828 
  15   2.0000      -0.938559       -25.5395 
  16   2.0000      -0.899012       -24.4634 
  17   2.0000      -0.887929       -24.1618 
  18   2.0000      -0.840369       -22.8676 
  19   2.0000      -0.805797       -21.9269 
  20   2.0000      -0.805588       -21.9212 
  21   2.0000      -0.786142       -21.3920 
  22   2.0000      -0.767798       -20.8928 
  23   2.0000      -0.699858       -19.0441 
  24   2.0000      -0.682534       -18.5727 
  25   2.0000      -0.646039       -17.5796 
  26   2.0000      -0.621385       -16.9087 
  27   2.0000      -0.587138       -15.9768 
  28   2.0000      -0.558408       -15.1950 
  29   2.0000      -0.554829       -15.0977 
  30   2.0000      -0.552322       -15.0294 
  31   2.0000      -0.535967       -14.5844 
  32   2.0000      -0.533365       -14.5136 
  33   2.0000      -0.521664       -14.1952 
  34   2.0000      -0.510410       -13.8890 
  35   2.0000      -0.508397       -13.8342 
  36   2.0000      -0.506443       -13.7810 
  37   2.0000      -0.494222       -13.4485 
  38   2.0000      -0.489448       -13.3186 
  39   2.0000      -0.488258       -13.2862 
  40   2.0000      -0.473784       -12.8923 
  41   2.0000      -0.470650       -12.8070 
  42   2.0000      -0.460723       -12.5369 
  43   2.0000      -0.452369       -12.3096 
  44   2.0000      -0.442938       -12.0530 
  45   2.0000      -0.436435       -11.8760 
  46   2.0000      -0.434069       -11.8116 
  47   2.0000      -0.359197        -9.7743 
  48   2.0000      -0.310848        -8.4586 
  49   2.0000      -0.298720        -8.1286 
  50   0.0000       0.126941         3.4542 
  51   0.0000       0.140050         3.8110 
  52   0.0000       0.142253         3.8709 
  53   0.0000       0.154584         4.2064 
  54   0.0000       0.169443         4.6108 
  55   0.0000       0.186753         5.0818 
  56   0.0000       0.194451         5.2913 
  57   0.0000       0.196601         5.3498 
  58   0.0000       0.205768         5.5992 
  59   0.0000       0.209167         5.6917 
  60   0.0000       0.218943         5.9578 
  61   0.0000       0.230889         6.2828 
  62   0.0000       0.235365         6.4046 
  63   0.0000       0.243726         6.6321 
  64   0.0000       0.245307         6.6752 
  65   0.0000       0.247745         6.7415 
  66   0.0000       0.253889         6.9087 
  67   0.0000       0.272167         7.4060 
  68   0.0000       0.272361         7.4113 
  69   0.0000       0.276947         7.5361 
  70   0.0000       0.279632         7.6092 
  71   0.0000       0.284424         7.7396 
  72   0.0000       0.286707         7.8017 
  73   0.0000       0.293554         7.9880 
  74   0.0000       0.301941         8.2162 
  75   0.0000       0.318983         8.6800 
  76   0.0000       0.339721         9.2443 
  77   0.0000       0.350678         9.5424 
  78   0.0000       0.364795         9.9266 
  79   0.0000       0.366578         9.9751 
  80   0.0000       0.366996         9.9865 
  81   0.0000       0.390891        10.6367 
  82   0.0000       0.399360        10.8671 
  83   0.0000       0.464556        12.6412 
  84   0.0000       0.484809        13.1923 
  85   0.0000       0.493075        13.4173 
  86   0.0000       0.507331        13.8052 
  87   0.0000       0.514233        13.9930 
  88   0.0000       0.515049        14.0152 
  89   0.0000       0.519770        14.1437 
  90   0.0000       0.533802        14.5255 
  91   0.0000       0.538686        14.6584 
  92   0.0000       0.572004        15.5650 
  93   0.0000       0.572294        15.5729 
  94   0.0000       0.583782        15.8855 
  95   0.0000       0.592709        16.1284 
  96   0.0000       0.626811        17.0564 
  97   0.0000       0.636858        17.3298 
  98   0.0000       0.645860        17.5748 
  99   0.0000       0.665414        18.1068 
 100   0.0000       0.671676        18.2772 
 101   0.0000       0.686294        18.6750 
 102   0.0000       0.693629        18.8746 
 103   0.0000       0.694195        18.8900 
 104   0.0000       0.706000        19.2112 
 105   0.0000       0.712442        19.3865 
 106   0.0000       0.717002        19.5106 
 107   0.0000       0.727628        19.7998 
 108   0.0000       0.737866        20.0784 
 109   0.0000       0.747105        20.3298 
 110   0.0000       0.756965        20.5981 
 111   0.0000       0.761899        20.7323 
 112   0.0000       0.769345        20.9349 
 113   0.0000       0.773187        21.0395 
 114   0.0000       0.778235        21.1769 
 115   0.0000       0.787658        21.4333 
 116   0.0000       0.789540        21.4845 
 117   0.0000       0.789701        21.4889 
 118   0.0000       0.792805        21.5733 
 119   0.0000       0.799741        21.7621 
 120   0.0000       0.805658        21.9231 
 121   0.0000       0.805807        21.9271 
 122   0.0000       0.807090        21.9620 
 123   0.0000       0.815101        22.1800 
 124   0.0000       0.815198        22.1827 
 125   0.0000       0.821136        22.3442 
 126   0.0000       0.824879        22.4461 
 127   0.0000       0.829050        22.5596 
 128   0.0000       0.829386        22.5687 
 129   0.0000       0.840974        22.8841 
 130   0.0000       0.841444        22.8969 
 131   0.0000       0.847499        23.0616 
 132   0.0000       0.855868        23.2894 
 133   0.0000       0.862181        23.4611 
 134   0.0000       0.879135        23.9225 
 135   0.0000       0.884699        24.0739 
 136   0.0000       0.892761        24.2933 
 137   0.0000       0.912710        24.8361 
 138   0.0000       0.917441        24.9648 
 139   0.0000       0.977282        26.5932 
 140   0.0000       0.995292        27.0833 
 141   0.0000       1.038782        28.2667 
 142   0.0000       1.052506        28.6401 
 143   0.0000       1.069501        29.1026 
 144   0.0000       1.096629        29.8408 
 145   0.0000       1.160096        31.5678 
 146   0.0000       1.166833        31.7512 
 147   0.0000       1.180593        32.1256 
 148   0.0000       1.202541        32.7228 
 149   0.0000       1.203892        32.7596 
 150   0.0000       1.219829        33.1932 
 151   0.0000       1.252540        34.0834 
 152   0.0000       1.257102        34.2075 
 153   0.0000       1.277930        34.7743 
 154   0.0000       1.297087        35.2955 
 155   0.0000       1.301026        35.4027 
 156   0.0000       1.344879        36.5960 
 157   0.0000       1.349175        36.7129 
 158   0.0000       1.410686        38.3867 
 159   0.0000       1.427205        38.8362 
 160   0.0000       1.439351        39.1667 
 161   0.0000       1.459988        39.7283 
 162   0.0000       1.496532        40.7227 
 163   0.0000       1.517829        41.3022 
 164   0.0000       1.559396        42.4333 
 165   0.0000       1.564044        42.5598 
 166   0.0000       1.581430        43.0329 
 167   0.0000       1.631885        44.4058 
 168   0.0000       1.643781        44.7296 
 169   0.0000       1.654075        45.0097 
 170   0.0000       1.657191        45.0945 
 171   0.0000       1.660227        45.1771 
 172   0.0000       1.664256        45.2867 
 173   0.0000       1.664747        45.3001 
 174   0.0000       1.672731        45.5173 
 175   0.0000       1.683029        45.7975 
 176   0.0000       1.686475        45.8913 
 177   0.0000       1.696784        46.1718 
 178   0.0000       1.710154        46.5357 
 179   0.0000       1.795468        48.8572 
 180   0.0000       1.810752        49.2731 
 181   0.0000       1.835647        49.9505 
 182   0.0000       1.842462        50.1359 
 183   0.0000       1.845481        50.2181 
 184   0.0000       1.849723        50.3335 
 185   0.0000       1.869817        50.8803 
 186   0.0000       1.882689        51.2306 
 187   0.0000       1.895007        51.5658 
 188   0.0000       1.896683        51.6114 
 189   0.0000       1.902554        51.7711 
 190   0.0000       1.907387        51.9026 
 191   0.0000       1.908144        51.9232 
 192   0.0000       1.919713        52.2380 
 193   0.0000       1.927798        52.4580 
 194   0.0000       1.935257        52.6610 
 195   0.0000       1.949319        53.0437 
 196   0.0000       1.952204        53.1222 
 197   0.0000       1.955053        53.1997 
 198   0.0000       1.961058        53.3631 
 199   0.0000       1.969247        53.5859 
 200   0.0000       1.985623        54.0316 
 201   0.0000       2.000178        54.4276 
 202   0.0000       2.003574        54.5200 
 203   0.0000       2.004823        54.5540 
 204   0.0000       2.006357        54.5958 
 205   0.0000       2.014828        54.8263 
 206   0.0000       2.027259        55.1645 
 207   0.0000       2.040596        55.5274 
 208   0.0000       2.055901        55.9439 
 209   0.0000       2.075596        56.4798 
 210   0.0000       2.094307        56.9890 
 211   0.0000       2.108743        57.3818 
 212   0.0000       2.109275        57.3963 
 213   0.0000       2.123853        57.7930 
 214   0.0000       2.131530        58.0019 
 215   0.0000       2.150553        58.5195 
 216   0.0000       2.162967        58.8573 
 217   0.0000       2.177208        59.2448 
 218   0.0000       2.187149        59.5154 
 219   0.0000       2.252786        61.3014 
 220   0.0000       2.269141        61.7465 
 221   0.0000       2.269867        61.7662 
 222   0.0000       2.293853        62.4189 
 223   0.0000       2.293906        62.4204 
 224   0.0000       2.315070        62.9963 
 225   0.0000       2.341675        63.7202 
 226   0.0000       2.348771        63.9133 
 227   0.0000       2.371947        64.5440 
 228   0.0000       2.382154        64.8217 
 229   0.0000       2.392851        65.1128 
 230   0.0000       2.399230        65.2864 
 231   0.0000       2.446376        66.5693 
 232   0.0000       2.469835        67.2076 
 233   0.0000       2.509371        68.2835 
 234   0.0000       2.512413        68.3662 
 235   0.0000       2.531464        68.8846 
 236   0.0000       2.534564        68.9690 
 237   0.0000       2.539046        69.0910 
 238   0.0000       2.564580        69.7858 
 239   0.0000       2.569114        69.9091 
 240   0.0000       2.584905        70.3388 
 241   0.0000       2.615370        71.1678 
 242   0.0000       2.623270        71.3828 
 243   0.0000       2.628999        71.5387 
 244   0.0000       2.640155        71.8423 
 245   0.0000       2.679197        72.9047 
 246   0.0000       2.707262        73.6684 
 247   0.0000       2.709530        73.7301 
 248   0.0000       2.723749        74.1170 
 249   0.0000       2.737481        74.4906 
 250   0.0000       2.740123        74.5625 
 251   0.0000       2.783807        75.7512 
 252   0.0000       2.845384        77.4268 
 253   0.0000       2.846682        77.4621 
 254   0.0000       2.855397        77.6993 
 255   0.0000       2.856313        77.7242 
 256   0.0000       2.868910        78.0670 
 257   0.0000       2.886595        78.5483 
 258   0.0000       2.920628        79.4743 
 259   0.0000       2.975346        80.9633 
 260   0.0000       2.989848        81.3579 
 261   0.0000       3.006655        81.8152 
 262   0.0000       3.012322        81.9694 
 263   0.0000       3.024976        82.3138 
 264   0.0000       3.029681        82.4418 
 265   0.0000       3.043258        82.8112 
 266   0.0000       3.052175        83.0539 
 267   0.0000       3.053168        83.0809 
 268   0.0000       3.081847        83.8613 
 269   0.0000       3.096970        84.2728 
 270   0.0000       3.118850        84.8682 
 271   0.0000       3.125606        85.0521 
 272   0.0000       3.134931        85.3058 
 273   0.0000       3.148751        85.6819 
 274   0.0000       3.170359        86.2699 
 275   0.0000       3.179385        86.5155 
 276   0.0000       3.181599        86.5757 
 277   0.0000       3.227677        87.8296 
 278   0.0000       3.357133        91.3522 
 279   0.0000       3.471381        94.4611 
 280   0.0000       3.483320        94.7859 
 281   0.0000       3.571325        97.1807 

                    ********************************
                    * MULLIKEN POPULATION ANALYSIS *
                    ********************************

-----------------------
MULLIKEN ATOMIC CHARGES
-----------------------
   0 N :   -0.208118
   1 C :   -0.195157
   2 N :   -0.208113
   3 C :   -0.134775
   4 C :   -0.134788
   5 C :   -0.019331
   6 C :   -0.019313
   7 C :    0.021517
   8 H :    0.035923
   9 C :    0.017942
  10 H :    0.035929
  11 C :    0.017935
  12 C :    0.021505
  13 C :    0.094572
  14 C :    0.094600
  15 H :    0.018465
  16 H :    0.030872
  17 H :    0.026352
  18 H :    0.028266
  19 H :    0.034442
  20 H :    0.018765
  21 H :    0.034426
  22 H :    0.018755
  23 H :    0.028252
  24 H :    0.026375
  25 H :    0.018453
  26 H :    0.030883
  27 H :    0.047655
  28 H :    0.031175
  29 H :    0.053837
  30 H :    0.053834
  31 H :    0.047680
  32 H :    0.031183
Sum of atomic charges:   -0.0000000

--------------------------------
MULLIKEN REDUCED ORBITAL CHARGES
--------------------------------
  0 N s       :     3.389976  s :     3.389976
      pz      :     1.514784  p :     3.785819
      px      :     1.151946
      py      :     1.119089
      dz2     :     0.002219  d :     0.032323
      dxz     :     0.004037
      dyz     :     0.005893
      dx2y2   :     0.011235
      dxy     :     0.008938
  1 C s       :     3.603860  s :     3.603860
      pz      :     0.716087  p :     2.526227
      px      :     0.658045
      py      :     1.152095
      dz2     :     0.007625  d :     0.065070
      dxz     :     0.012027
      dyz     :     0.009582
      dx2y2   :     0.008236
      dxy     :     0.027599
  2 N s       :     3.389981  s :     3.389981
      pz      :     1.514804  p :     3.785809
      px      :     1.151925
      py      :     1.119080
      dz2     :     0.002220  d :     0.032324
      dxz     :     0.004036
      dyz     :     0.005893
      dx2y2   :     0.011235
      dxy     :     0.008939
  3 C s       :     3.106761  s :     3.106761
      pz      :     1.088973  p :     2.970020
      px      :     0.990393
      py      :     0.890654
      dz2     :     0.004488  d :     0.057994
      dxz     :     0.010278
      dyz     :     0.009859
      dx2y2   :     0.019449
      dxy     :     0.013921
  4 C s       :     3.106770  s :     3.106770
      pz      :     1.088977  p :     2.970022
      px      :     0.990414
      py      :     0.890631
      dz2     :     0.004487  d :     0.057996
      dxz     :     0.010279
      dyz     :     0.009859
      dx2y2   :     0.019451
      dxy     :     0.013919
  5 C s       :     3.083785  s :     3.083785
      pz      :     1.032674  p :     2.878074
      px      :     0.825849
      py      :     1.019551
      dz2     :     0.012690  d :     0.057472
      dxz     :     0.010648
      dyz     :     0.010676
      dx2y2   :     0.010845
      dxy     :     0.012612
  6 C s       :     3.083805  s :     3.083805
      pz      :     1.032634  p :     2.878036
      px      :     0.825832
      py      :     1.019570
      dz2     :     0.012703  d :     0.057472
      dxz     :     0.010637
      dyz     :     0.010675
      dx2y2   :     0.010842
      dxy     :     0.012615
  7 C s       :     2.981233  s :     2.981233
      pz      :     0.959442  p :     2.970426
      px      :     0.998854
      py      :     1.012130
      dz2     :     0.006150  d :     0.026824
      dxz     :     0.002723
      dyz     :     0.008216
      dx2y2   :     0.004483
      dxy     :     0.005252
  8 H s       :     0.942979  s :     0.942979
      pz      :     0.004520  p :     0.021098
      px      :     0.006787
      py      :     0.009791
  9 C s       :     2.979702  s :     2.979702
      pz      :     0.976595  p :     2.975542
      px      :     1.005687
      py      :     0.993259
      dz2     :     0.007450  d :     0.026814
      dxz     :     0.002041
      dyz     :     0.006321
      dx2y2   :     0.004750
      dxy     :     0.006253
 10 H s       :     0.942972  s :     0.942972
      pz      :     0.004508  p :     0.021098
      px      :     0.006792
      py      :     0.009799
 11 C s       :     2.979709  s :     2.979709
      pz      :     0.976516  p :     2.975542
      px      :     1.005693
      py      :     0.993333
      dz2     :     0.007459  d :     0.026814
      dxz     :     0.002029
      dyz     :     0.006324
      dx2y2   :     0.004745
      dxy     :     0.006257
 12 C s       :     2.981254  s :     2.981254
      pz      :     0.959394  p :     2.970418
      px      :     0.998914
      py      :     1.012109
      dz2     :     0.006162  d :     0.026824
      dxz     :     0.002710
      dyz     :     0.008212
      dx2y2   :     0.004482
      dxy     :     0.005258
 13 C s       :     2.878048  s :     2.878048
      pz      :     1.028155  p :     2.999712
      px      :     0.994497
      py      :     0.977060
      dz2     :     0.005505  d :     0.027668
      dxz     :     0.008855
      dyz     :     0.002080
      dx2y2   :     0.003452
      dxy     :     0.007776
 14 C s       :     2.878017  s :     2.878017
      pz      :     1.028160  p :     2.999715
      px      :     0.994494
      py      :     0.977061
      dz2     :     0.005503  d :     0.027668
      dxz     :     0.008861
      dyz     :     0.002077
      dx2y2   :     0.003451
      dxy     :     0.007776
 15 H s       :     0.956525  s :     0.956525
      pz      :     0.005272  p :     0.025010
      px      :     0.009899
      py      :     0.009839
 16 H s       :     0.944825  s :     0.944825
      pz      :     0.004496  p :     0.024303
      px      :     0.014045
      py      :     0.005763
 17 H s       :     0.949490  s :     0.949490
      pz      :     0.013007  p :     0.024158
      px      :     0.005770
      py      :     0.005381
 18 H s       :     0.947543  s :     0.947543
      pz      :     0.008640  p :     0.024191
      px      :     0.004953
      py      :     0.010598
 19 H s       :     0.941200  s :     0.941200
      pz      :     0.004050  p :     0.024358
      px      :     0.014254
      py      :     0.006055
 20 H s       :     0.956772  s :     0.956772
      pz      :     0.004906  p :     0.024463
      px      :     0.008864
      py      :     0.010694
 21 H s       :     0.941216  s :     0.941216
      pz      :     0.004049  p :     0.024357
      px      :     0.014257
      py      :     0.006051
 22 H s       :     0.956781  s :     0.956781
      pz      :     0.004894  p :     0.024464
      px      :     0.008868
      py      :     0.010703
 23 H s       :     0.947557  s :     0.947557
      pz      :     0.008653  p :     0.024191
      px      :     0.004955
      py      :     0.010582
 24 H s       :     0.949467  s :     0.949467
      pz      :     0.013004  p :     0.024158
      px      :     0.005764
      py      :     0.005391
 25 H s       :     0.956538  s :     0.956538
      pz      :     0.005261  p :     0.025009
      px      :     0.009901
      py      :     0.009847
 26 H s       :     0.944813  s :     0.944813
      pz      :     0.004494  p :     0.024304
      px      :     0.014047
      py      :     0.005764
 27 H s       :     0.927690  s :     0.927690
      pz      :     0.010894  p :     0.024654
      px      :     0.009386
      py      :     0.004374
 28 H s       :     0.943769  s :     0.943769
      pz      :     0.005074  p :     0.025056
      px      :     0.007268
      py      :     0.012714
 29 H s       :     0.921560  s :     0.921560
      pz      :     0.012915  p :     0.024603
      px      :     0.007299
      py      :     0.004388
 30 H s       :     0.921564  s :     0.921564
      pz      :     0.012922  p :     0.024601
      px      :     0.007291
      py      :     0.004388
 31 H s       :     0.927665  s :     0.927665
      pz      :     0.010883  p :     0.024654
      px      :     0.009396
      py      :     0.004375
 32 H s       :     0.943761  s :     0.943761
      pz      :     0.005077  p :     0.025056
      px      :     0.007267
      py      :     0.012712


                     *******************************
                     * LOEWDIN POPULATION ANALYSIS *
                     *******************************

----------------------
LOEWDIN ATOMIC CHARGES
----------------------
   0 N :    0.038334
   1 C :   -0.298661
   2 N :    0.038336
   3 C :   -0.050780
   4 C :   -0.050781
   5 C :    0.029445
   6 C :    0.029447
   7 C :   -0.054532
   8 H :    0.029215
   9 C :   -0.054454
  10 H :    0.029216
  11 C :   -0.054450
  12 C :   -0.054532
  13 C :   -0.055426
  14 C :   -0.055422
  15 H :    0.018501
  16 H :    0.027572
  17 H :    0.024991
  18 H :    0.025342
  19 H :    0.029247
  20 H :    0.021904
  21 H :    0.029230
  22 H :    0.021891
  23 H :    0.025341
  24 H :    0.024998
  25 H :    0.018505
  26 H :    0.027586
  27 H :    0.038890
  28 H :    0.041103
  29 H :    0.039972
  30 H :    0.039978
  31 H :    0.038890
  32 H :    0.041104

-------------------------------
LOEWDIN REDUCED ORBITAL CHARGES
-------------------------------
  0 N s       :     3.054741  s :     3.054741
      pz      :     1.438033  p :     3.829644
      px      :     1.196503
      py      :     1.195108
      dz2     :     0.004219  d :     0.077281
      dxz     :     0.007378
      dyz     :     0.011497
      dx2y2   :     0.028914
      dxy     :     0.025274
  1 C s       :     3.183208  s :     3.183208
      pz      :     0.766748  p :     2.974086
      px      :     0.830352
      py      :     1.376987
      dz2     :     0.017340  d :     0.141366
      dxz     :     0.026318
      dyz     :     0.013836
      dx2y2   :     0.019258
      dxy     :     0.064614
  2 N s       :     3.054741  s :     3.054741
      pz      :     1.438039  p :     3.829641
      px      :     1.196488
      py      :     1.195115
      dz2     :     0.004219  d :     0.077282
      dxz     :     0.007377
      dyz     :     0.011497
      dx2y2   :     0.028914
      dxy     :     0.025275
  3 C s       :     2.839382  s :     2.839382
      pz      :     1.067712  p :     3.070566
      px      :     1.056019
      py      :     0.946836
      dz2     :     0.009920  d :     0.140831
      dxz     :     0.020192
      dyz     :     0.019814
      dx2y2   :     0.053055
      dxy     :     0.037850
  4 C s       :     2.839376  s :     2.839376
      pz      :     1.067708  p :     3.070570
      px      :     1.056030
      py      :     0.946832
      dz2     :     0.009919  d :     0.140834
      dxz     :     0.020192
      dyz     :     0.019816
      dx2y2   :     0.053061
      dxy     :     0.037847
  5 C s       :     2.827902  s :     2.827902
      pz      :     1.053260  p :     3.010240
      px      :     0.909953
      py      :     1.047027
      dz2     :     0.028434  d :     0.132412
      dxz     :     0.022792
      dyz     :     0.026132
      dx2y2   :     0.024992
      dxy     :     0.030063
  6 C s       :     2.827903  s :     2.827903
[...]
     46       0.494119  -0.080085  -0.023506
     47       0.127553  -0.020432  -0.005886
     48      -0.286947   0.045513   0.012115
     49      -0.079416   0.012603   0.003343
     50       0.013572  -0.002177  -0.000555
     51       0.074018  -0.011696  -0.003287
     52       0.077330  -0.012229  -0.003453
     53       0.206494  -0.032699  -0.009237
     54       0.000519  -0.000133  -0.000045
     55       0.001899  -0.000310  -0.000096
     56      -0.002309   0.000530   0.000233
     57      -0.066654   0.014818   0.005039
     58      -0.019241   0.004254   0.001431
     59       0.001165  -0.000256  -0.000110
     60      -0.032925   0.008970   0.004119
     61       0.048949  -0.013278  -0.006065
     62       0.018778  -0.005102  -0.002355
     63       0.062950   0.014621  -0.005047
     64      -0.018170  -0.004197   0.001433
     65      -0.001119  -0.000258   0.000112
     66       0.031110   0.008867  -0.004123
     67       0.046267   0.013130  -0.006074
     68      -0.017706  -0.005034   0.002353
     69      -0.000495  -0.000131   0.000045
     70       0.001798   0.000299  -0.000092
     71       0.002191   0.000518  -0.000230
     72      -0.069259  -0.011443   0.003275
     73       0.072465   0.011982  -0.003447
     74      -0.193047  -0.031965   0.009197
     75       0.301806   0.051029  -0.015226
     76       0.463094   0.078459  -0.023448
     77      -0.119184  -0.019952   0.005852
     78       0.269433   0.044630  -0.012094
     79      -0.074535  -0.012354   0.003336
     80      -0.012847  -0.002151   0.000559
     81       0.006076   0.133356   0.130419
     82       0.000043   0.002118   0.001975
     83       0.007607   0.163153   0.159628
     84       0.018773   0.310336   0.315944
     85       0.033114   0.540060   0.550350
     86      -0.002127  -0.035140  -0.035619
     87       0.005723   0.109759   0.108200
     88      -0.000276  -0.003840  -0.003783
     89      -0.010173  -0.190266  -0.187458
     90      -0.004109   0.109550  -0.108380
     91      -0.000217   0.003971  -0.003926
     92       0.007374  -0.189929   0.187793
     93      -0.004192   0.133153  -0.130693
     94       0.000024  -0.002203   0.002067
     95      -0.005295   0.162885  -0.159942
     96      -0.014232   0.309886  -0.316606
     97       0.025194  -0.539092   0.551314
     98       0.001633  -0.035443   0.036056


-----------
IR SPECTRUM
-----------

 Mode   freq       eps      Int      T**2         TX        TY        TZ
       cm**-1   L/(mol*cm) km/mol    a.u.
----------------------------------------------------------------------------
  6:     52.19   0.000610    3.09  0.003650  (-0.014935  0.000005 -0.058543)
  7:     55.05   0.000001    0.00  0.000004  (-0.000005 -0.002060 -0.000098)
  8:     90.39   0.001271    6.43  0.004390  ( 0.000324 -0.000013  0.066253)
  9:    112.58   0.000000    0.00  0.000000  (-0.000003 -0.000328  0.000028)
 10:    156.86   0.000073    0.37  0.000145  (-0.004868  0.000045  0.010999)
 11:    157.53   0.000359    1.81  0.000711  ( 0.000032  0.026662 -0.000016)
 12:    183.33   0.000003    0.01  0.000005  (-0.000052 -0.002201  0.000064)
 13:    216.01   0.000001    0.01  0.000002  (-0.000018 -0.001301 -0.000001)
 14:    233.04   0.000995    5.03  0.001333  ( 0.035271 -0.000011 -0.009406)
 15:    249.13   0.000035    0.18  0.000044  ( 0.005860 -0.000027 -0.003104)
 16:    250.85   0.000000    0.00  0.000001  ( 0.000151  0.000724 -0.000086)
 17:    275.27   0.000087    0.44  0.000099  ( 0.003600  0.000027 -0.009276)
 18:    281.90   0.000140    0.71  0.000155  ( 0.010683  0.000211  0.006356)
 19:    283.27   0.000069    0.35  0.000076  ( 0.000290 -0.008700  0.000147)
 20:    289.69   0.000009    0.05  0.000010  (-0.000093 -0.003121 -0.000027)
 21:    324.93   0.000264    1.33  0.000253  ( 0.000158  0.015916 -0.000040)
 22:    325.64   0.000514    2.60  0.000493  (-0.021406  0.000125  0.005891)
 23:    400.71   0.003246   16.41  0.002528  (-0.001394  0.000004 -0.050261)
 24:    428.21   0.000938    4.74  0.000683  ( 0.011701 -0.000004  0.023378)
 25:    477.55   0.000113    0.57  0.000074  ( 0.000001 -0.008589  0.000001)
 26:    495.46   0.000003    0.01  0.000002  ( 0.000005 -0.001279  0.000004)
 27:    551.40   0.000622    3.14  0.000352  (-0.018570 -0.000002  0.002632)
 28:    617.94   0.001100    5.56  0.000555  (-0.000000  0.023566  0.000013)
 29:    638.40   0.000062    0.31  0.000030  (-0.005141 -0.000004 -0.001942)
 30:    685.25   0.000184    0.93  0.000084  (-0.007924 -0.000005 -0.004597)
 31:    698.83   0.000004    0.02  0.000002  ( 0.000011  0.001316 -0.000002)
 32:    747.91   0.001663    8.41  0.000694  ( 0.000001 -0.026344 -0.000010)
 33:    812.91   0.000597    3.02  0.000229  ( 0.015063 -0.000000  0.001499)
 34:    914.10   0.000065    0.33  0.000022  ( 0.000017  0.004698  0.000015)
 35:    931.13   0.001404    7.10  0.000471  (-0.020411  0.000023 -0.007349)
 36:    935.05   0.000081    0.41  0.000027  ( 0.000108  0.005201 -0.000066)
 37:    936.15   0.001227    6.20  0.000409  (-0.011013  0.000023  0.016958)
 38:    962.00   0.000004    0.02  0.000001  (-0.000006  0.001134 -0.000021)
 39:    963.27   0.000163    0.82  0.000053  (-0.003255 -0.000002 -0.006489)
 40:    967.99   0.000576    2.91  0.000186  ( 0.000005  0.013624  0.000006)
 41:   1041.76   0.000981    4.96  0.000294  ( 0.000577 -0.000005  0.017130)
 42:   1064.33   0.000014    0.07  0.000004  ( 0.000026 -0.002054  0.000017)
 43:   1069.48   0.002354   11.90  0.000687  ( 0.026122  0.000006 -0.002122)
 44:   1093.08   0.001326    6.70  0.000378  ( 0.000007 -0.019454 -0.000009)
 45:   1142.24   0.017377   87.82  0.004748  ( 0.068758  0.000023 -0.004460)
 46:   1148.21   0.001865    9.42  0.000507  ( 0.000064 -0.022513 -0.000014)
 47:   1172.79   0.003274   16.55  0.000871  (-0.002599 -0.000024  0.029402)
 48:   1173.25   0.000002    0.01  0.000001  (-0.000032  0.000641  0.000325)
 49:   1188.40   0.000228    1.15  0.000060  (-0.004339  0.000000 -0.006401)
 50:   1219.18   0.000234    1.18  0.000060  (-0.000005 -0.007732 -0.000002)
 51:   1228.80   0.002391   12.08  0.000607  (-0.024465 -0.000001  0.002943)
 52:   1349.06   0.001317    6.65  0.000305  ( 0.000009 -0.017453 -0.000005)
 53:   1350.81   0.000039    0.20  0.000009  ( 0.002916 -0.000004  0.000684)
 54:   1350.94   0.000008    0.04  0.000002  (-0.000018 -0.001324  0.000001)
 55:   1365.46   0.004636   23.43  0.001059  ( 0.032530  0.000007 -0.001128)
 56:   1393.73   0.000419    2.12  0.000094  ( 0.009281  0.000010 -0.002773)
 57:   1394.42   0.000958    4.84  0.000214  ( 0.000002  0.014646  0.000075)
 58:   1399.17   0.001838    9.29  0.000410  (-0.000048 -0.020248 -0.000106)
 59:   1401.07   0.000037    0.19  0.000008  (-0.000130  0.002755 -0.000755)
 60:   1401.18   0.008356   42.23  0.001861  ( 0.006293 -0.000037  0.042679)
 61:   1413.40   0.026190  132.36  0.005783  ( 0.076042 -0.000006 -0.000427)
 62:   1433.54   0.009835   49.70  0.002141  (-0.043820  0.000217  0.014854)
 63:   1434.88   0.012820   64.79  0.002788  ( 0.000176  0.052803 -0.000051)
 64:   1440.07   0.007077   35.76  0.001534  (-0.023533 -0.000007 -0.031301)
 65:   1442.76   0.000228    1.15  0.000049  ( 0.000047  0.007022  0.000030)
 66:   1446.03   0.000619    3.13  0.000134  (-0.000112  0.011355 -0.002143)
 67:   1446.04   0.000226    1.14  0.000049  ( 0.000255  0.004462  0.005359)
 68:   1452.59   0.000927    4.68  0.000199  (-0.012790  0.000026  0.005961)
 69:   1453.27   0.004142   20.93  0.000889  (-0.000035 -0.029821 -0.000038)
 70:   1453.79   0.000255    1.29  0.000055  ( 0.005869 -0.000784  0.004433)
 71:   1454.06   0.001462    7.39  0.000314  (-0.000233 -0.017714 -0.000159)
 72:   1458.27   0.000532    2.69  0.000114  (-0.000006 -0.010672 -0.000011)
 73:   1466.68   0.000303    1.53  0.000065  (-0.006727 -0.000007 -0.004390)
 74:   1469.83   0.000487    2.46  0.000104  (-0.000002  0.010174 -0.000002)
 75:   1473.72   0.009629   48.66  0.002039  (-0.044760  0.000004  0.005949)
 76:   1487.67   0.000776    3.92  0.000163  (-0.012660 -0.000024 -0.001602)
 77:   1492.82   0.003235   16.35  0.000676  ( 0.000018 -0.026005 -0.000005)
 78:   1754.14   0.000545    2.76  0.000097  (-0.000000 -0.009848 -0.000003)
 79:   3061.35   0.010365   52.38  0.001057  ( 0.017529  0.000033  0.027373)
 80:   3061.47   0.000095    0.48  0.000010  (-0.000236  0.003078 -0.000359)
 81:   3063.02   0.008437   42.64  0.000860  ( 0.028043 -0.000004 -0.008554)
 82:   3064.69   0.004180   21.13  0.000426  (-0.000008 -0.020632 -0.000003)
 83:   3071.19   0.004549   22.99  0.000462  (-0.010170  0.001866  0.018849)
 84:   3071.25   0.003037   15.35  0.000309  (-0.001093 -0.017416  0.002021)
 85:   3127.39   0.003496   17.67  0.000349  ( 0.016873 -0.000725 -0.007976)
 86:   3127.58   0.002056   10.39  0.000205  (-0.000854 -0.014290  0.000398)
 87:   3148.74   0.005193   26.25  0.000515  (-0.001676  0.000007 -0.022625)
 88:   3148.95   0.000002    0.01  0.000000  (-0.000004  0.000399 -0.000055)
 89:   3164.92   0.001478    7.47  0.000146  ( 0.002991 -0.001859  0.011548)
 90:   3164.94   0.009252   46.75  0.000912  (-0.000179 -0.030194 -0.000725)
 91:   3170.52   0.004010   20.27  0.000395  (-0.010753  0.000205  0.016705)
 92:   3170.53   0.000454    2.29  0.000045  ( 0.000360  0.006652 -0.000537)
 93:   3172.20   0.015538   78.52  0.001529  ( 0.037620 -0.000112  0.010646)
 94:   3172.25   0.001519    7.68  0.000149  ( 0.000318  0.012220  0.000083)
 95:   3182.52   0.007126   36.01  0.000699  ( 0.022315  0.000623 -0.014155)
 96:   3182.84   0.003614   18.26  0.000354  ( 0.000691 -0.018804 -0.000472)
 97:   3183.99   0.004445   22.46  0.000436  (-0.020496  0.000015  0.003950)
 98:   3187.04   0.002276   11.50  0.000223  ( 0.000014 -0.014930 -0.000005)

* The epsilon (eps) is given for a Dirac delta lineshape.
** The dipole moment derivative (T) already includes vibrational overlap.

The first frequency considered to be a vibration is 6
The total number of vibrations considered is 93


--------------------------
THERMOCHEMISTRY AT 298.15K
--------------------------

Temperature         ... 298.15 K
Pressure            ... 1.00 atm
Total Mass          ... 180.29 AMU

Throughout the following assumptions are being made:
  (1) The electronic state is orbitally nondegenerate
  (2) There are no thermally accessible electronically excited states
  (3) Hindered rotations indicated by low frequency modes are not
      treated as such but are treated as vibrations and this may
      cause some error
  (4) All equations used are the standard statistical mechanics
      equations for an ideal gas
  (5) All vibrations are strictly harmonic

freq.      52.19  E(vib)   ...       0.52 
freq.      55.05  E(vib)   ...       0.52 
freq.      90.39  E(vib)   ...       0.47 
freq.     112.58  E(vib)   ...       0.45 
freq.     156.86  E(vib)   ...       0.40 
freq.     157.53  E(vib)   ...       0.40 
freq.     183.33  E(vib)   ...       0.37 
freq.     216.01  E(vib)   ...       0.34 
freq.     233.04  E(vib)   ...       0.32 
freq.     249.13  E(vib)   ...       0.31 
freq.     250.85  E(vib)   ...       0.30 
freq.     275.27  E(vib)   ...       0.28 
freq.     281.90  E(vib)   ...       0.28 
freq.     283.27  E(vib)   ...       0.28 
freq.     289.69  E(vib)   ...       0.27 
freq.     324.93  E(vib)   ...       0.24 
freq.     325.64  E(vib)   ...       0.24 
freq.     400.71  E(vib)   ...       0.19 
freq.     428.21  E(vib)   ...       0.18 
freq.     477.55  E(vib)   ...       0.15 
freq.     495.46  E(vib)   ...       0.14 
freq.     551.40  E(vib)   ...       0.12 
freq.     617.94  E(vib)   ...       0.09 
freq.     638.40  E(vib)   ...       0.09 
freq.     685.25  E(vib)   ...       0.07 
freq.     698.83  E(vib)   ...       0.07 
freq.     747.91  E(vib)   ...       0.06 
freq.     812.91  E(vib)   ...       0.05 
freq.     914.10  E(vib)   ...       0.03 
freq.     931.13  E(vib)   ...       0.03 
freq.     935.05  E(vib)   ...       0.03 
freq.     936.15  E(vib)   ...       0.03 
freq.     962.00  E(vib)   ...       0.03 
freq.     963.27  E(vib)   ...       0.03 
freq.     967.99  E(vib)   ...       0.03 
freq.    1041.76  E(vib)   ...       0.02 
freq.    1064.33  E(vib)   ...       0.02 
freq.    1069.48  E(vib)   ...       0.02 
freq.    1093.08  E(vib)   ...       0.02 
freq.    1142.24  E(vib)   ...       0.01 
freq.    1148.21  E(vib)   ...       0.01 
freq.    1172.79  E(vib)   ...       0.01 
freq.    1173.25  E(vib)   ...       0.01 
freq.    1188.40  E(vib)   ...       0.01 
freq.    1219.18  E(vib)   ...       0.01 
freq.    1228.80  E(vib)   ...       0.01 
freq.    1349.06  E(vib)   ...       0.01 
freq.    1350.81  E(vib)   ...       0.01 
freq.    1350.94  E(vib)   ...       0.01 
freq.    1365.46  E(vib)   ...       0.01 
freq.    1393.73  E(vib)   ...       0.00 
freq.    1394.42  E(vib)   ...       0.00 
freq.    1399.17  E(vib)   ...       0.00 
freq.    1401.07  E(vib)   ...       0.00 
freq.    1401.18  E(vib)   ...       0.00 
freq.    1413.40  E(vib)   ...       0.00 
freq.    1433.54  E(vib)   ...       0.00 
freq.    1434.88  E(vib)   ...       0.00 
freq.    1440.07  E(vib)   ...       0.00 
freq.    1442.76  E(vib)   ...       0.00 
freq.    1446.03  E(vib)   ...       0.00 
freq.    1446.04  E(vib)   ...       0.00 
freq.    1452.59  E(vib)   ...       0.00 
freq.    1453.27  E(vib)   ...       0.00 
freq.    1453.79  E(vib)   ...       0.00 
freq.    1454.06  E(vib)   ...       0.00 
freq.    1458.27  E(vib)   ...       0.00 
freq.    1466.68  E(vib)   ...       0.00 
freq.    1469.83  E(vib)   ...       0.00 
freq.    1473.72  E(vib)   ...       0.00 
freq.    1487.67  E(vib)   ...       0.00 
freq.    1492.82  E(vib)   ...       0.00 
freq.    1754.14  E(vib)   ...       0.00 
freq.    3061.35  E(vib)   ...       0.00 
freq.    3061.47  E(vib)   ...       0.00 
freq.    3063.02  E(vib)   ...       0.00 
freq.    3064.69  E(vib)   ...       0.00 
freq.    3071.19  E(vib)   ...       0.00 
freq.    3071.25  E(vib)   ...       0.00 
freq.    3127.39  E(vib)   ...       0.00 
freq.    3127.58  E(vib)   ...       0.00 
freq.    3148.74  E(vib)   ...       0.00 
freq.    3148.95  E(vib)   ...       0.00 
freq.    3164.92  E(vib)   ...       0.00 
freq.    3164.94  E(vib)   ...       0.00 
freq.    3170.52  E(vib)   ...       0.00 
freq.    3170.53  E(vib)   ...       0.00 
freq.    3172.20  E(vib)   ...       0.00 
freq.    3172.25  E(vib)   ...       0.00 
freq.    3182.52  E(vib)   ...       0.00 
freq.    3182.84  E(vib)   ...       0.00 
freq.    3183.99  E(vib)   ...       0.00 
freq.    3187.04  E(vib)   ...       0.00 

------------
INNER ENERGY
------------

The inner energy is: U= E(el) + E(ZPE) + E(vib) + E(rot) + E(trans)
    E(el)   - is the total energy from the electronic structure calculation
              = E(kin-el) + E(nuc-el) + E(el-el) + E(nuc-nuc)
    E(ZPE)  - the the zero temperature vibrational energy from the frequency calculation
    E(vib)  - the the finite temperature correction to E(ZPE) due to population
              of excited vibrational states
    E(rot)  - is the rotational thermal energy
    E(trans)- is the translational thermal energy

Summary of contributions to the inner energy U:
Electronic energy                ...   -540.19777883 Eh
Zero point energy                ...      0.29803032 Eh     187.02 kcal/mol
Thermal vibrational correction   ...      0.01221563 Eh       7.67 kcal/mol
Thermal rotational correction    ...      0.00141627 Eh       0.89 kcal/mol
Thermal translational correction ...      0.00141627 Eh       0.89 kcal/mol
-----------------------------------------------------------------------
Total thermal energy                   -539.88470033 Eh


Summary of corrections to the electronic energy:
(perhaps to be used in another calculation)
Total thermal correction                  0.01504817 Eh       9.44 kcal/mol
Non-thermal (ZPE) correction              0.29803032 Eh     187.02 kcal/mol
-----------------------------------------------------------------------
Total correction                          0.31307849 Eh     196.46 kcal/mol


--------
ENTHALPY
--------

The enthalpy is H = U + kB*T
                kB is Boltzmann's constant
Total free energy                 ...   -539.88470033 Eh 
Thermal Enthalpy correction       ...      0.00094421 Eh       0.59 kcal/mol
-----------------------------------------------------------------------
Total Enthalpy                    ...   -539.88375612 Eh


Note: Only C1 symmetry has been detected, increase convergence thresholds 
      if your molecule has a higher symmetry. Symmetry factor of 1.0 is   
      used for the rotational entropy correction. 
 

Note: Rotational entropy computed according to Herzberg 
Infrared and Raman Spectra, Chapter V,1, Van Nostrand Reinhold, 1945 
Point Group:  C1, Symmetry Number:   1  
Rotational constants in cm-1:     0.035979     0.019227     0.014919 

Vibrational entropy computed according to the QRRHO of S. Grimme
Chem.Eur.J. 2012 18 9955


-------
ENTROPY
-------

The entropy contributions are T*S = T*(S(el)+S(vib)+S(rot)+S(trans))
     S(el)   - electronic entropy
     S(vib)  - vibrational entropy
     S(rot)  - rotational entropy
     S(trans)- translational entropy
The entropies will be listed as multiplied by the temperature to get
units of energy

Electronic entropy                ...      0.00000000 Eh      0.00 kcal/mol
Vibrational entropy               ...      0.02105285 Eh     13.21 kcal/mol
Rotational entropy                ...      0.01493105 Eh      9.37 kcal/mol
Translational entropy             ...      0.01970603 Eh     12.37 kcal/mol
-----------------------------------------------------------------------
Final entropy term                ...      0.05568993 Eh     34.95 kcal/mol

In case the symmetry of your molecule has not been determined correctly
or in case you have a reason to use a different symmetry number we print 
out the resulting rotational entropy values for sn=1,12 :
 --------------------------------------------------------
|  sn= 1 | S(rot)=       0.01493105 Eh      9.37 kcal/mol|
|  sn= 2 | S(rot)=       0.01427659 Eh      8.96 kcal/mol|
|  sn= 3 | S(rot)=       0.01389376 Eh      8.72 kcal/mol|
|  sn= 4 | S(rot)=       0.01362214 Eh      8.55 kcal/mol|
|  sn= 5 | S(rot)=       0.01341145 Eh      8.42 kcal/mol|
|  sn= 6 | S(rot)=       0.01323931 Eh      8.31 kcal/mol|
|  sn= 7 | S(rot)=       0.01309376 Eh      8.22 kcal/mol|
|  sn= 8 | S(rot)=       0.01296768 Eh      8.14 kcal/mol|
|  sn= 9 | S(rot)=       0.01285647 Eh      8.07 kcal/mol|
|  sn=10 | S(rot)=       0.01275699 Eh      8.01 kcal/mol|
|  sn=11 | S(rot)=       0.01266700 Eh      7.95 kcal/mol|
|  sn=12 | S(rot)=       0.01258485 Eh      7.90 kcal/mol|
 --------------------------------------------------------


-------------------
GIBBS FREE ENERGY
-------------------

The Gibbs free energy is G = H - T*S

Total enthalpy                    ...   -539.88375612 Eh 
Total entropy correction          ...     -0.05568993 Eh    -34.95 kcal/mol
-----------------------------------------------------------------------
Final Gibbs free energy         ...   -539.93944605 Eh

For completeness - the Gibbs free energy minus the electronic energy
G-E(el)                           ...      0.25833277 Eh    162.11 kcal/mol


Timings for individual modules:

Sum of individual times         ...     6175.239 sec (= 102.921 min)
GTO integral calculation        ...        2.848 sec (=   0.047 min)   0.0 %
SCF iterations                  ...     2928.338 sec (=  48.806 min)  47.4 %
SCF Gradient evaluation         ...      755.234 sec (=  12.587 min)  12.2 %
Geometry relaxation             ...        0.528 sec (=   0.009 min)   0.0 %
Analytical frequency calculation...     2488.292 sec (=  41.472 min)  40.3 %
                             ****ORCA TERMINATED NORMALLY****
TOTAL RUN TIME: 0 days 1 hours 42 minutes 56 seconds 367 msec
