
                                 *****************
                                 * O   R   C   A *
                                 *****************

                                            #,                                       
                                            ###                                      
                                            ####                                     
                                            #####                                    
                                            ######                                   
                                           ########,                                 
                                     ,,################,,,,,                         
                               ,,#################################,,                 
                          ,,##########################################,,             
                       ,#########################################, ''#####,          
                    ,#############################################,,   '####,        
                  ,##################################################,,,,####,       
                ,###########''''           ''''###############################       
              ,#####''   ,,,,##########,,,,          '''####'''          '####       
            ,##' ,,,,###########################,,,                        '##       
           ' ,,###''''                  '''############,,,                           
         ,,##''                                '''############,,,,        ,,,,,,###''
      ,#''                                            '''#######################'''  
     '                                                          ''''####''''         
             ,#######,   #######,   ,#######,      ##                                
            ,#'     '#,  ##    ##  ,#'     '#,    #''#        ######   ,####,        
            ##       ##  ##   ,#'  ##            #'  '#       #        #'  '#        
            ##       ##  #######   ##           ,######,      #####,   #    #        
            '#,     ,#'  ##    ##  '#,     ,#' ,#      #,         ##   #,  ,#        
             '#######'   ##     ##  '#######'  #'      '#     #####' # '####'        



                  #######################################################
                  #                        -***-                        #
                  #          Department of theory and spectroscopy      #
                  #    Directorship and core code : Frank Neese         #
                  #        Max Planck Institute fuer Kohlenforschung    #
                  #                Kaiser Wilhelm Platz 1               #
                  #                 D-45470 Muelheim/Ruhr               #
                  #                      Germany                        #
                  #                                                     #
                  #                  All rights reserved                #
                  #                        -***-                        #
                  #######################################################


                         Program Version 5.0.4 -  RELEASE  -


 With contributions from (in alphabetic order):
   Daniel Aravena         : Magnetic Suceptibility
   Michael Atanasov       : Ab Initio Ligand Field Theory (pilot matlab implementation)
   Alexander A. Auer      : GIAO ZORA, VPT2 properties, NMR spectrum
   Ute Becker             : Parallelization
   Giovanni Bistoni       : ED, misc. LED, open-shell LED, HFLD
   Martin Brehm           : Molecular dynamics
   Dmytro Bykov           : SCF Hessian
   Vijay G. Chilkuri      : MRCI spin determinant printing, contributions to CSF-ICE
   Dipayan Datta          : RHF DLPNO-CCSD density
   Achintya Kumar Dutta   : EOM-CC, STEOM-CC
   Dmitry Ganyushin       : Spin-Orbit,Spin-Spin,Magnetic field MRCI
   Miquel Garcia          : C-PCM and meta-GGA Hessian, CC/C-PCM, Gaussian charge scheme
   Yang Guo               : DLPNO-NEVPT2, F12-NEVPT2, CIM, IAO-localization
   Andreas Hansen         : Spin unrestricted coupled pair/coupled cluster methods
   Benjamin Helmich-Paris : MC-RPA, TRAH-SCF, COSX integrals
   Lee Huntington         : MR-EOM, pCC
   Robert Izsak           : Overlap fitted RIJCOSX, COSX-SCS-MP3, EOM
   Marcus Kettner         : VPT2
   Christian Kollmar      : KDIIS, OOCD, Brueckner-CCSD(T), CCSD density, CASPT2, CASPT2-K
   Simone Kossmann        : Meta GGA functionals, TD-DFT gradient, OOMP2, MP2 Hessian
   Martin Krupicka        : Initial AUTO-CI
   Lucas Lang             : DCDCAS
   Marvin Lechner         : AUTO-CI (C++ implementation), FIC-MRCC
   Dagmar Lenk            : GEPOL surface, SMD
   Dimitrios Liakos       : Extrapolation schemes; Compound Job, initial MDCI parallelization
   Dimitrios Manganas     : Further ROCIS development; embedding schemes
   Dimitrios Pantazis     : SARC Basis sets
   Anastasios Papadopoulos: AUTO-CI, single reference methods and gradients
   Taras Petrenko         : DFT Hessian,TD-DFT gradient, ASA, ECA, R-Raman, ABS, FL, XAS/XES, NRVS
   Peter Pinski           : DLPNO-MP2, DLPNO-MP2 Gradient
   Christoph Reimann      : Effective Core Potentials
   Marius Retegan         : Local ZFS, SOC
   Christoph Riplinger    : Optimizer, TS searches, QM/MM, DLPNO-CCSD(T), (RO)-DLPNO pert. Triples
   Tobias Risthaus        : Range-separated hybrids, TD-DFT gradient, RPA, STAB
   Michael Roemelt        : Original ROCIS implementation
   Masaaki Saitow         : Open-shell DLPNO-CCSD energy and density
   Barbara Sandhoefer     : DKH picture change effects
   Avijit Sen             : IP-ROCIS
   Kantharuban Sivalingam : CASSCF convergence, NEVPT2, FIC-MRCI
   Bernardo de Souza      : ESD, SOC TD-DFT
   Georgi Stoychev        : AutoAux, RI-MP2 NMR, DLPNO-MP2 response
   Willem Van den Heuvel  : Paramagnetic NMR
   Boris Wezisla          : Elementary symmetry handling
   Frank Wennmohs         : Technical directorship


 We gratefully acknowledge several colleagues who have allowed us to
 interface, adapt or use parts of their codes:
   Stefan Grimme, W. Hujo, H. Kruse, P. Pracht,  : VdW corrections, initial TS optimization,
                  C. Bannwarth, S. Ehlert          DFT functionals, gCP, sTDA/sTD-DF
   Ed Valeev, F. Pavosevic, A. Kumar             : LibInt (2-el integral package), F12 methods
   Garnet Chan, S. Sharma, J. Yang, R. Olivares  : DMRG
   Ulf Ekstrom                                   : XCFun DFT Library
   Mihaly Kallay                                 : mrcc  (arbitrary order and MRCC methods)
   Jiri Pittner, Ondrej Demel                    : Mk-CCSD
   Frank Weinhold                                : gennbo (NPA and NBO analysis)
   Christopher J. Cramer and Donald G. Truhlar   : smd solvation model
   Lars Goerigk                                  : TD-DFT with DH, B97 family of functionals
   V. Asgeirsson, H. Jonsson                     : NEB implementation
   FAccTs GmbH                                   : IRC, NEB, NEB-TS, DLPNO-Multilevel, CI-OPT
                                                   MM, QMMM, 2- and 3-layer-ONIOM, Crystal-QMMM,
                                                   LR-CPCM, SF, NACMEs, symmetry and pop. for TD-DFT,
                                                   nearIR, NL-DFT gradient (VV10), updates on ESD,
                                                   ML-optimized integration grids
   S Lehtola, MJT Oliveira, MAL Marques          : LibXC Library
   Liviu Ungur et al                             : ANISO software


 Your calculation uses the libint2 library for the computation of 2-el integrals
 For citations please refer to: http://libint.valeyev.net

 Your ORCA version has been built with support for libXC version: 5.1.0
 For citations please refer to: https://tddft.org/programs/libxc/

 This ORCA versions uses:
   CBLAS   interface :  Fast vector & matrix operations
   LAPACKE interface :  Fast linear algebra routines
   SCALAPACK package :  Parallel linear algebra routines
   Shared memory     :  Shared parallel matrices
   BLAS/LAPACK       :  OpenBLAS 0.3.15  USE64BITINT DYNAMIC_ARCH NO_AFFINITY SkylakeX SINGLE_THREADED
        Core in use  :  SkylakeX
   Copyright (c) 2011-2014, The OpenBLAS Project




***************************************
The coordinates will be read from file: 6_deprot_aq_6.xyz
***************************************


Your calculation utilizes the atom-pairwise dispersion correction
based on tight binding partial charges (D4)
Cite in your paper:
E.Caldeweyher, C.Bannwarth, S.Grimme, J.Chem.Phys., (2017), 147, 034112.
E.Caldeweyher, S.Ehlert, A.Hansen, H.Neugebauer, S.Grimme, J.Chem.Phys., (2018), in progress.
   

XCFun DFT library Copyright 2009-2010 Ulf Ekstrom and contributors.
See http://admol.org/xcfun for more information.
This is free software; see the source code for copying conditions.
There is ABSOLUTELY NO WARRANTY; not even for MERCHANTABILITY or FITNESS FOR A PARTICULAR PURPOSE.
For details see the documentation.
Scientific users of this library should cite U. Ekstrom, L. Visscher, R. Bast, A. J. Thorvaldsen and K. Ruud;
J.Chem.Theor.Comp. 2010, DOI: 10.1021/ct100117s
XCFun Version 0.99 

================================================================================

----- Orbital basis set information -----
Your calculation utilizes the basis: def2-SVP
   F. Weigend and R. Ahlrichs, Phys. Chem. Chem. Phys. 7, 3297 (2005).

----- AuxJ basis set information -----
Your calculation utilizes the auxiliary basis: def2/J
   F. Weigend, Phys. Chem. Chem. Phys. 8, 1057 (2006).

================================================================================
                                        WARNINGS
                       Please study these warnings very carefully!
================================================================================


WARNING: Geometry Optimization
  ===> : Switching off AutoStart
         For restart on a previous wavefunction, please use MOREAD

INFO   : the flag for use of the SHARK integral package has been found!

================================================================================
                                       INPUT FILE
================================================================================
NAME = 6_deprot_aq_6.inp
|  1> # ORCA 5.0.4 - /users/bwb16179/postgrad/2024_03/DFT_Crest_Conformers/Opt/deprot/6_deprot_aq_6.inp # write input file
|  2> # Basic Mode
|  3> #
|  4> ! Opt Freq wB97X Def2-SVP D4 SlowConv TightSCF Defgrid2 Def2/J RIJCOSX CPCM(Water)
|  5> 
|  6> 
|  7> 
|  8> %maxcore 4500
|  9> 
| 10> %geom
| 11> Maxiter 150
| 12> END
| 13> 
| 14> * xyzfile 0 1 6_deprot_aq_6.xyz
| 15> 
| 16>                          ****END OF INPUT****
================================================================================

                       *****************************
                       * Geometry Optimization Run *
                       *****************************

Geometry optimization settings:
Update method            Update   .... BFGS
Choice of coordinates    CoordSys .... Z-matrix Internals
Initial Hessian          InHess   .... Almoef's Model

Convergence Tolerances:
Energy Change            TolE     ....  5.0000e-06 Eh
Max. Gradient            TolMAXG  ....  3.0000e-04 Eh/bohr
RMS Gradient             TolRMSG  ....  1.0000e-04 Eh/bohr
Max. Displacement        TolMAXD  ....  4.0000e-03 bohr
RMS Displacement         TolRMSD  ....  2.0000e-03 bohr
Strict Convergence                ....  False
------------------------------------------------------------------------------
                        ORCA OPTIMIZATION COORDINATE SETUP
------------------------------------------------------------------------------

The optimization will be done in new redundant internal coordinates
Making redundant internal coordinates   ...  (new redundants) done
Evaluating the initial hessian          ...  (Almloef) done
Evaluating the coordinates              ...  done
Calculating the B-matrix                .... done
Calculating the G-matrix                .... done
Diagonalizing the G-matrix              .... done
Small eigenvalue found = 1.481e-02
Small eigenvalue found = 1.827e-02
Small eigenvalue found = 2.172e-02
The first mode is                       ....   77
The number of degrees of freedom        ....   93

    -----------------------------------------------------------------
                    Redundant Internal Coordinates


    -----------------------------------------------------------------
         Definition                    Initial Value    Approx d2E/dq
    -----------------------------------------------------------------
      1. B(C   1,N   0)                  1.3575         0.630610   
      2. B(N   2,C   1)                  1.3575         0.630561   
      3. B(C   3,N   2)                  1.3822         0.575825   
      4. B(C   4,N   0)                  1.3822         0.575810   
      5. B(C   4,C   3)                  1.3636         0.688496   
      6. B(C   5,N   0)                  1.4464         0.454857   
      7. B(C   6,N   2)                  1.4464         0.454853   
      8. B(C   7,C   5)                  1.5306         0.372772   
      9. B(H   8,C   5)                  1.0975         0.350362   
     10. B(C   9,C   5)                  1.5286         0.375446   
     11. B(H  10,C   6)                  1.0975         0.350358   
     12. B(C  11,C   6)                  1.5306         0.372753   
     13. B(C  12,C   6)                  1.5286         0.375467   
     14. B(C  13,C   3)                  1.4894         0.433663   
     15. B(C  14,C   4)                  1.4894         0.433687   
     16. B(H  15,C   9)                  1.0877         0.363129   
     17. B(H  16,C   9)                  1.0860         0.365388   
     18. B(H  17,C   9)                  1.0872         0.363825   
     19. B(H  18,C   7)                  1.0875         0.363460   
     20. B(H  19,C   7)                  1.0870         0.364058   
     21. B(H  20,C   7)                  1.0870         0.364061   
     22. B(H  21,C  12)                  1.0877         0.363127   
     23. B(H  22,C  12)                  1.0872         0.363822   
     24. B(H  23,C  12)                  1.0860         0.365403   
     25. B(H  24,C  11)                  1.0870         0.364056   
     26. B(H  25,C  11)                  1.0875         0.363446   
     27. B(H  26,C  11)                  1.0870         0.364053   
     28. B(H  27,C  14)                  1.0880         0.362770   
     29. B(H  28,C  14)                  1.0875         0.363453   
     30. B(H  29,C  14)                  1.0912         0.358549   
     31. B(H  30,C  13)                  1.0875         0.363464   
     32. B(H  31,C  13)                  1.0880         0.362769   
     33. B(H  32,C  13)                  1.0912         0.358538   
     34. A(C   4,N   0,C   5)          129.3918         0.400179   
     35. A(C   1,N   0,C   5)          119.0885         0.406649   
     36. A(C   1,N   0,C   4)          111.5078         0.424062   
     37. A(N   0,C   1,N   2)          104.2374         0.431022   
     38. A(C   1,N   2,C   6)          119.0856         0.406643   
     39. A(C   1,N   2,C   3)          111.5065         0.424058   
     40. A(C   3,N   2,C   6)          129.3951         0.400181   
     41. A(N   2,C   3,C  13)          125.5805         0.399393   
     42. A(C   4,C   3,C  13)          128.0206         0.414887   
     43. A(N   2,C   3,C   4)          106.3748         0.433627   
     44. A(N   0,C   4,C   3)          106.3734         0.433625   
     45. A(N   0,C   4,C  14)          125.5746         0.399395   
     46. A(C   3,C   4,C  14)          128.0291         0.414891   
     47. A(N   0,C   5,C   9)          112.9133         0.373814   
     48. A(H   8,C   5,C   9)          108.3791         0.323128   
     49. A(C   7,C   5,H   8)          107.8619         0.322749   
     50. A(C   7,C   5,C   9)          111.7728         0.363528   
     51. A(N   0,C   5,H   8)          103.5239         0.331507   
     52. A(N   0,C   5,C   7)          111.8768         0.373354   
     53. A(H  10,C   6,C  11)          107.8623         0.322746   
     54. A(N   2,C   6,C  11)          111.8648         0.373350   
     55. A(C  11,C   6,C  12)          111.7776         0.363528   
     56. A(H  10,C   6,C  12)          108.3755         0.323130   
     57. A(N   2,C   6,C  12)          112.9208         0.373817   
     58. A(N   2,C   6,H  10)          103.5265         0.331506   
     59. A(H  19,C   7,H  20)          108.2807         0.291841   
     60. A(H  18,C   7,H  20)          108.6056         0.291766   
     61. A(C   5,C   7,H  20)          111.7047         0.324787   
     62. A(H  18,C   7,H  19)          108.6904         0.291765   
     63. A(C   5,C   7,H  19)          109.6709         0.324787   
     64. A(C   5,C   7,H  18)          109.8228         0.324699   
     65. A(H  16,C   9,H  17)          108.2051         0.291979   
     66. A(C   5,C   9,H  16)          111.6547         0.325364   
     67. A(H  15,C   9,H  16)          108.9188         0.291891   
     68. A(H  15,C   9,H  17)          108.4663         0.291694   
     69. A(C   5,C   9,H  15)          110.0727         0.325032   
     70. A(C   5,C   9,H  17)          109.4493         0.325134   
     71. A(H  25,C  11,H  26)          108.6019         0.291763   
     72. A(H  24,C  11,H  26)          108.2834         0.291840   
     73. A(H  24,C  11,H  25)          108.6898         0.291763   
     74. A(C   6,C  11,H  25)          109.8230         0.324694   
     75. A(C   6,C  11,H  24)          109.6726         0.324784   
     76. A(C   6,C  11,H  26)          111.7044         0.324783   
     77. A(H  22,C  12,H  23)          108.2047         0.291980   
     78. A(H  21,C  12,H  23)          108.9179         0.291893   
     79. A(C   6,C  12,H  23)          111.6581         0.325369   
     80. A(H  21,C  12,H  22)          108.4680         0.291693   
     81. A(C   6,C  12,H  22)          109.4427         0.325137   
     82. A(C   6,C  12,H  21)          110.0753         0.325035   
     83. A(H  31,C  13,H  32)          107.8255         0.290978   
     84. A(H  30,C  13,H  32)          108.5072         0.291066   
     85. A(H  30,C  13,H  31)          107.9979         0.291603   
     86. A(C   3,C  13,H  31)          109.7328         0.332806   
     87. A(C   3,C  13,H  30)          111.6491         0.332911   
     88. A(C   3,C  13,H  32)          111.0027         0.332159   
     89. A(H  28,C  14,H  29)          108.5065         0.291066   
     90. A(H  27,C  14,H  29)          107.8261         0.290980   
     91. A(C   4,C  14,H  29)          111.0121         0.332164   
     92. A(H  27,C  14,H  28)          107.9966         0.291602   
     93. A(C   4,C  14,H  28)          111.6412         0.332913   
     94. A(C   4,C  14,H  27)          109.7325         0.332809   
     95. D(N   2,C   1,N   0,C   4)     -0.0968         0.029249   
     96. D(N   2,C   1,N   0,C   5)   -178.9599         0.029249   
     97. D(C   3,N   2,C   1,N   0)      0.1001         0.029245   
     98. D(C   6,N   2,C   1,N   0)    178.9192         0.029245   
     99. D(C  13,C   3,N   2,C   1)   -178.4008         0.026570   
    100. D(C   4,C   3,N   2,C   6)   -178.7319         0.026570   
    101. D(C  13,C   3,N   2,C   6)      2.9346         0.026570   
    102. D(C   4,C   3,N   2,C   1)     -0.0674         0.026570   
    103. D(C  14,C   4,C   3,N   2)   -178.3119         0.033294   
    104. D(C  14,C   4,N   0,C   5)     -2.8567         0.026568   
    105. D(N   0,C   4,C   3,N   2)      0.0051         0.033294   
    106. D(N   0,C   4,C   3,C  13)    178.2846         0.033294   
    107. D(C   3,C   4,N   0,C   5)    178.7731         0.026568   
    108. D(C   3,C   4,N   0,C   1)      0.0586         0.026568   
    109. D(C  14,C   4,C   3,C  13)     -0.0325         0.033294   
    110. D(C  14,C   4,N   0,C   1)    178.4288         0.026568   
    111. D(H   8,C   5,N   0,C   4)    173.1412         0.017655   
    112. D(C   9,C   5,N   0,C   4)     56.1572         0.017655   
    113. D(H   8,C   5,N   0,C   1)     -8.2274         0.017655   
    114. D(C   9,C   5,N   0,C   1)   -125.2114         0.017655   
    115. D(C   7,C   5,N   0,C   1)    107.6551         0.017655   
    116. D(C   7,C   5,N   0,C   4)    -70.9763         0.017655   
    117. D(C  12,C   6,N   2,C   3)    -56.1596         0.017654   
    118. D(C  11,C   6,N   2,C   3)     70.9765         0.017654   
    119. D(C  11,C   6,N   2,C   1)   -107.6017         0.017654   
    120. D(C  12,C   6,N   2,C   1)    125.2622         0.017654   
    121. D(H  10,C   6,N   2,C   3)   -173.1445         0.017654   
    122. D(H  10,C   6,N   2,C   1)      8.2773         0.017654   
    123. D(H  18,C   7,C   5,H   8)     62.0613         0.011099   
    124. D(H  18,C   7,C   5,N   0)    -51.1520         0.011099   
    125. D(H  18,C   7,C   5,C   9)   -178.8977         0.011099   
    126. D(H  20,C   7,C   5,C   9)    -58.3330         0.011099   
    127. D(H  20,C   7,C   5,H   8)   -177.3740         0.011099   
    128. D(H  19,C   7,C   5,C   9)     61.7215         0.011099   
    129. D(H  20,C   7,C   5,N   0)     69.4127         0.011099   
    130. D(H  19,C   7,C   5,H   8)    -57.3195         0.011099   
    131. D(H  19,C   7,C   5,N   0)   -170.5328         0.011099   
    132. D(H  17,C   9,C   5,H   8)     50.8080         0.011249   
    133. D(H  17,C   9,C   5,C   7)    -67.9263         0.011249   
    134. D(H  17,C   9,C   5,N   0)    164.8853         0.011249   
    135. D(H  16,C   9,C   5,H   8)    170.5891         0.011249   
    136. D(H  16,C   9,C   5,C   7)     51.8548         0.011249   
    137. D(H  16,C   9,C   5,N   0)    -75.3337         0.011249   
    138. D(H  15,C   9,C   5,H   8)    -68.3141         0.011249   
    139. D(H  15,C   9,C   5,C   7)    172.9516         0.011249   
    140. D(H  15,C   9,C   5,N   0)     45.7632         0.011249   
    141. D(H  26,C  11,C   6,H  10)    177.4623         0.011097   
    142. D(H  26,C  11,C   6,N   2)    -69.3273         0.011097   
    143. D(H  25,C  11,C   6,C  12)    178.9826         0.011097   
    144. D(H  25,C  11,C   6,H  10)    -61.9778         0.011097   
    145. D(H  25,C  11,C   6,N   2)     51.2326         0.011097   
    146. D(H  24,C  11,C   6,C  12)    -61.6363         0.011097   
    147. D(H  24,C  11,C   6,H  10)     57.4034         0.011097   
    148. D(H  26,C  11,C   6,C  12)     58.4226         0.011097   
    149. D(H  24,C  11,C   6,N   2)    170.6138         0.011097   
    150. D(H  23,C  12,C   6,N   2)     75.2080         0.011250   
    151. D(H  22,C  12,C   6,C  11)     67.8042         0.011250   
    152. D(H  22,C  12,C   6,H  10)    -50.9311         0.011250   
    153. D(H  22,C  12,C   6,N   2)   -165.0136         0.011250   
    154. D(H  21,C  12,C   6,C  11)   -173.0740         0.011250   
    155. D(H  21,C  12,C   6,H  10)     68.1907         0.011250   
    156. D(H  23,C  12,C   6,H  10)   -170.7095         0.011250   
    157. D(H  21,C  12,C   6,N   2)    -45.8918         0.011250   
    158. D(H  23,C  12,C   6,C  11)    -51.9742         0.011250   
    159. D(H  32,C  13,C   3,C   4)   -100.3427         0.013884   
    160. D(H  32,C  13,C   3,N   2)     77.6275         0.013884   
    161. D(H  31,C  13,C   3,C   4)     18.7400         0.013884   
    162. D(H  31,C  13,C   3,N   2)   -163.2898         0.013884   
    163. D(H  30,C  13,C   3,C   4)    138.4456         0.013884   
    164. D(H  30,C  13,C   3,N   2)    -43.5842         0.013884   
    165. D(H  29,C  14,C   4,C   3)    100.4446         0.013886   
    166. D(H  29,C  14,C   4,N   0)    -77.5701         0.013886   
    167. D(H  28,C  14,C   4,C   3)   -138.3434         0.013886   
    168. D(H  28,C  14,C   4,N   0)     43.6419         0.013886   
    169. D(H  27,C  14,C   4,C   3)    -18.6445         0.013886   
    170. D(H  27,C  14,C   4,N   0)    163.3408         0.013886   
    -----------------------------------------------------------------

Number of atoms                         .... 33
Number of degrees of freedom            .... 170

         *************************************************************
         *                GEOMETRY OPTIMIZATION CYCLE   1            *
         *************************************************************
---------------------------------
CARTESIAN COORDINATES (ANGSTROEM)
---------------------------------
  N     -1.071790   -0.376338   -0.091901
  C     -0.001203   -1.203635   -0.202226
  N      1.071100   -0.378473   -0.092304
  C      0.682779    0.936147    0.085204
  C     -0.680793    0.937526    0.085387
  C     -2.403367   -0.938770   -0.143646
  C      2.401490   -0.943748   -0.143666
  C     -3.081370   -0.926502    1.228526
  H     -2.229141   -1.985502   -0.423681
  C     -3.281065   -0.292740   -1.215575
  H      2.225177   -1.990050   -0.424020
  C      3.078693   -0.933208    1.228929
  C      3.281138   -0.299457   -1.215022
  C      1.601364    2.102188    0.207105
  C     -1.597148    2.105209    0.208179
  H     -2.727337   -0.203455   -2.147535
  H     -3.622862    0.692779   -0.913266
  H     -4.154375   -0.915739   -1.392222
  H     -2.423204   -1.374808    1.969089
  H     -4.002300   -1.502495    1.186790
  H     -3.325173    0.083679    1.547446
  H      2.728843   -0.210790   -2.147891
  H      4.154247   -0.923305   -1.389666
  H      3.623223    0.686136   -0.913322
  H      3.999172   -1.509931    1.187285
  H      2.419706   -1.381584    1.968735
  H      3.323084    0.076514    1.548877
  H     -1.058188    2.952717    0.626475
  H     -2.439247    1.887273    0.860851
  H     -1.983472    2.403708   -0.767686
  H      2.444207    1.882586    0.858241
  H      1.064537    2.950444    0.626628
  H      1.986506    2.400406   -0.769324

----------------------------
CARTESIAN COORDINATES (A.U.)
----------------------------
  NO LB      ZA    FRAG     MASS         X           Y           Z
   0 N     7.0000    0    14.007   -2.025389   -0.711175   -0.173668
   1 C     6.0000    0    12.011   -0.002273   -2.274540   -0.382153
   2 N     7.0000    0    14.007    2.024085   -0.715211   -0.174429
   3 C     6.0000    0    12.011    1.290265    1.769061    0.161012
   4 C     6.0000    0    12.011   -1.286513    1.771667    0.161357
   5 C     6.0000    0    12.011   -4.541706   -1.774018   -0.271451
   6 C     6.0000    0    12.011    4.538158   -1.783426   -0.271490
   7 C     6.0000    0    12.011   -5.822945   -1.750836    2.321577
   8 H     1.0000    0     1.008   -4.212466   -3.752056   -0.800641
   9 C     6.0000    0    12.011   -6.200314   -0.553199   -2.297104
  10 H     1.0000    0     1.008    4.204975   -3.760649   -0.801282
  11 C     6.0000    0    12.011    5.817888   -1.763507    2.322339
  12 C     6.0000    0    12.011    6.200453   -0.565892   -2.296059
  13 C     6.0000    0    12.011    3.026139    3.972560    0.391371
  14 C     6.0000    0    12.011   -3.018172    3.978268    0.393402
  15 H     1.0000    0     1.008   -5.153920   -0.384473   -4.058252
  16 H     1.0000    0     1.008   -6.846216    1.309163   -1.725823
  17 H     1.0000    0     1.008   -7.850631   -1.730495   -2.630918
  18 H     1.0000    0     1.008   -4.579192   -2.598011    3.721039
  19 H     1.0000    0     1.008   -7.563250   -2.839304    2.242708
  20 H     1.0000    0     1.008   -6.283667    0.158130    2.924249
  21 H     1.0000    0     1.008    5.156765   -0.398335   -4.058926
  22 H     1.0000    0     1.008    7.850390   -1.744794   -2.626089
  23 H     1.0000    0     1.008    6.846900    1.296610   -1.725928
  24 H     1.0000    0     1.008    7.557339   -2.853357    2.243643
  25 H     1.0000    0     1.008    4.572582   -2.610815    3.720369
  26 H     1.0000    0     1.008    6.279719    0.144590    2.926954
  27 H     1.0000    0     1.008   -1.999685    5.579827    1.183867
  28 H     1.0000    0     1.008   -4.609509    3.566428    1.626772
  29 H     1.0000    0     1.008   -3.748219    4.542350   -1.450717
  30 H     1.0000    0     1.008    4.618882    3.557572    1.621840
  31 H     1.0000    0     1.008    2.011683    5.575532    1.184155
  32 H     1.0000    0     1.008    3.753952    4.536110   -1.453811

--------------------------------
INTERNAL COORDINATES (ANGSTROEM)
--------------------------------
 N      0   0   0     0.000000000000     0.00000000     0.00000000
 C      1   0   0     1.357478852700     0.00000000     0.00000000
 N      2   1   0     1.357500219191   104.23738956     0.00000000
 C      3   2   1     1.382218317030   111.50653235     0.10012287
 C      4   3   2     1.363572719950   106.37481194   359.93261435
 C      1   2   3     1.446411350610   119.08852505   181.04005053
 C      3   2   1     1.446413477969   119.08560094   178.91918474
 C      6   1   2     1.530585662111   111.87682096   107.65512418
 H      6   1   2     1.097462389440   103.52388866   351.77257170
 C      6   1   2     1.528639839350   112.91328031   234.78864981
 H      7   3   2     1.097465787961   103.52651648     8.27727050
 C      7   3   2     1.530599195310   111.86476405   252.39834931
 C      7   3   2     1.528624996092   112.92079155   125.26216270
 C      4   3   2     1.489399583289   125.58053203   181.59915506
 C      5   4   3     1.489384661652   128.02906808   181.68805240
 H     10   6   1     1.087720206453   110.07269637    45.76316471
 H     10   6   1     1.086031723054   111.65467761   284.66634945
 H     10   6   1     1.087198698397   109.44933277   164.88528117
 H      8   6   1     1.087471812902   109.82282943   308.84799305
 H      8   6   1     1.087024213639   109.67090634   189.46724793
 H      8   6   1     1.087021754111   111.70473257    69.41271852
 H     13   7   3     1.087721166883   110.07531858   314.10822190
 H     13   7   3     1.087201106091   109.44274831   194.98644298
 H     13   7   3     1.086020209693   111.65813212    75.20803161
 H     12   7   3     1.087025549048   109.67264511   170.61377677
 H     12   7   3     1.087482338272   109.82304868    51.23259984
 H     12   7   3     1.087028443733   111.70437099   290.67267128
 H     15   5   4     1.087989416648   109.73248893   341.35545220
 H     15   5   4     1.087477137678   111.64124365   221.65661873
 H     15   5   4     1.091174734686   111.01214029   100.44459579
 H     14   4   3     1.087468834967   111.64908218   316.41584995
 H     14   4   3     1.087989634886   109.73283945   196.71018043
 H     14   4   3     1.091183029066   111.00265061    77.62749404

---------------------------
INTERNAL COORDINATES (A.U.)
---------------------------
 N      0   0   0     0.000000000000     0.00000000     0.00000000
 C      1   0   0     2.565263264192     0.00000000     0.00000000
 N      2   1   0     2.565303641009   104.23738956     0.00000000
 C      3   2   1     2.612014076476   111.50653235     0.10012287
 C      4   3   2     2.576779004392   106.37481194   359.93261435
 C      1   2   3     2.733321329649   119.08852505   181.04005053
 C      3   2   1     2.733325349774   119.08560094   178.91918474
 C      6   1   2     2.892387725896   111.87682096   107.65512418
 H      6   1   2     2.073903358321   103.52388866   351.77257170
 C      6   1   2     2.888710653773   112.91328031   234.78864981
 H      7   3   2     2.073909780595   103.52651648     8.27727050
 C      7   3   2     2.892413299936   111.86476405   252.39834931
 C      7   3   2     2.888682604081   112.92079155   125.26216270
 C      4   3   2     2.814557316393   125.58053203   181.59915506
 C      5   4   3     2.814529118586   128.02906808   181.68805240
 H     10   6   1     2.055493300528   110.07269637    45.76316471
 H     10   6   1     2.052302529323   111.65467761   284.66634945
 H     10   6   1     2.054507793126   109.44933277   164.88528117
 H      8   6   1     2.055023904744   109.82282943   308.84799305
 H      8   6   1     2.054178064718   109.67090634   189.46724793
 H      8   6   1     2.054173416884   111.70473257    69.41271852
 H     13   7   3     2.055495115478   110.07531858   314.10822190
 H     13   7   3     2.054512343008   109.44274831   194.98644298
 H     13   7   3     2.052280772223   111.65813212    75.20803161
 H     12   7   3     2.054180588277   109.67264511   170.61377677
 H     12   7   3     2.055043794811   109.82304868    51.23259984
 H     12   7   3     2.054186058439   111.70437099   290.67267128
 H     15   5   4     2.056002034069   109.73248893   341.35545220
 H     15   5   4     2.055033967112   111.64124365   221.65661873
 H     15   5   4     2.062021412811   111.01214029   100.44459579
 H     14   4   3     2.055018277262   111.64908218   316.41584995
 H     14   4   3     2.056002446480   109.73283945   196.71018043
 H     14   4   3     2.062037086917   111.00265061    77.62749404

---------------------
BASIS SET INFORMATION
---------------------
There are 3 groups of distinct atoms

 Group   1 Type N   : 7s4p1d contracted to 3s2p1d pattern {511/31/1}
 Group   2 Type C   : 7s4p1d contracted to 3s2p1d pattern {511/31/1}
 Group   3 Type H   : 4s1p contracted to 2s1p pattern {31/1}

Atom   0N    basis set group =>   1
Atom   1C    basis set group =>   2
Atom   2N    basis set group =>   1
Atom   3C    basis set group =>   2
Atom   4C    basis set group =>   2
Atom   5C    basis set group =>   2
Atom   6C    basis set group =>   2
Atom   7C    basis set group =>   2
Atom   8H    basis set group =>   3
Atom   9C    basis set group =>   2
Atom  10H    basis set group =>   3
Atom  11C    basis set group =>   2
Atom  12C    basis set group =>   2
Atom  13C    basis set group =>   2
Atom  14C    basis set group =>   2
Atom  15H    basis set group =>   3
Atom  16H    basis set group =>   3
Atom  17H    basis set group =>   3
Atom  18H    basis set group =>   3
Atom  19H    basis set group =>   3
Atom  20H    basis set group =>   3
Atom  21H    basis set group =>   3
Atom  22H    basis set group =>   3
Atom  23H    basis set group =>   3
Atom  24H    basis set group =>   3
Atom  25H    basis set group =>   3
Atom  26H    basis set group =>   3
Atom  27H    basis set group =>   3
Atom  28H    basis set group =>   3
Atom  29H    basis set group =>   3
Atom  30H    basis set group =>   3
Atom  31H    basis set group =>   3
Atom  32H    basis set group =>   3
---------------------------------
AUXILIARY/J BASIS SET INFORMATION
---------------------------------
There are 3 groups of distinct atoms

 Group   1 Type N   : 12s5p4d2f1g contracted to 6s4p3d1f1g pattern {711111/2111/211/2/1}
 Group   2 Type C   : 12s5p4d2f1g contracted to 6s4p3d1f1g pattern {711111/2111/211/2/1}
 Group   3 Type H   : 5s2p1d contracted to 3s1p1d pattern {311/2/1}

Atom   0N    basis set group =>   1
Atom   1C    basis set group =>   2
Atom   2N    basis set group =>   1
Atom   3C    basis set group =>   2
Atom   4C    basis set group =>   2
Atom   5C    basis set group =>   2
Atom   6C    basis set group =>   2
Atom   7C    basis set group =>   2
Atom   8H    basis set group =>   3
Atom   9C    basis set group =>   2
Atom  10H    basis set group =>   3
Atom  11C    basis set group =>   2
Atom  12C    basis set group =>   2
Atom  13C    basis set group =>   2
Atom  14C    basis set group =>   2
Atom  15H    basis set group =>   3
Atom  16H    basis set group =>   3
Atom  17H    basis set group =>   3
Atom  18H    basis set group =>   3
Atom  19H    basis set group =>   3
Atom  20H    basis set group =>   3
Atom  21H    basis set group =>   3
Atom  22H    basis set group =>   3
Atom  23H    basis set group =>   3
Atom  24H    basis set group =>   3
Atom  25H    basis set group =>   3
Atom  26H    basis set group =>   3
Atom  27H    basis set group =>   3
Atom  28H    basis set group =>   3
Atom  29H    basis set group =>   3
Atom  30H    basis set group =>   3
Atom  31H    basis set group =>   3
Atom  32H    basis set group =>   3
------------------------------------------------------------------------------
                           ORCA GTO INTEGRAL CALCULATION
                           -- RI-GTO INTEGRALS CHOSEN --
------------------------------------------------------------------------------
------------------------------------------------------------------------------
                   ___                                                        
                  /   \      - P O W E R E D   B Y -                         
                 /     \                                                     
                 |  |  |   _    _      __       _____    __    __             
                 |  |  |  | |  | |    /  \     |  _  \  |  |  /  |          
                  \  \/   | |  | |   /    \    | | | |  |  | /  /          
                 / \  \   | |__| |  /  /\  \   | |_| |  |  |/  /          
                |  |  |   |  __  | /  /__\  \  |    /   |      \           
                |  |  |   | |  | | |   __   |  |    \   |  |\   \          
                \     /   | |  | | |  |  |  |  | |\  \  |  | \   \       
                 \___/    |_|  |_| |__|  |__|  |_| \__\ |__|  \__/        
                                                                              
                      - O R C A' S   B I G   F R I E N D -                    
                                      &                                       
                       - I N T E G R A L  F E E D E R -                       
                                                                              
 v1 FN, 2020, v2 2021                                                         
------------------------------------------------------------------------------


Reading SHARK input file 6_deprot_aq_6.SHARKINP.tmp ... ok
----------------------
SHARK INTEGRAL PACKAGE
----------------------

Number of atoms                             ...     33
Number of basis functions                   ...    282
Number of shells                            ...    138
Maximum angular momentum                    ...      2
Integral batch strategy                     ... SHARK/LIBINT Hybrid
RI-J (if used) integral strategy            ... SPLIT-RIJ (Revised 2003 algorithm where possible)
Printlevel                                  ...      1
Contraction scheme used                     ... SEGMENTED contraction
Coulomb Range Separation                    ... NOT USED
Exchange Range Separation                   ... Long Range
   Mu parameter                             ...  0.300000
   Scaling (regular/separated)              ...  0.157706  0.842294
Finite Nucleus Model                        ... NOT USED
Auxiliary Coulomb fitting basis             ... AVAILABLE
   # of basis functions in Aux-J            ...    857
   # of shells in Aux-J                     ...    295
   Maximum angular momentum in Aux-J        ...      4
Auxiliary J/K fitting basis                 ... NOT available
Auxiliary Correlation fitting basis         ... NOT available
Auxiliary 'external' fitting basis          ... NOT available
Integral threshold                          ...     2.500000e-11
Primitive cut-off                           ...     2.500000e-12
Primitive pair pre-selection threshold      ...     2.500000e-12

Calculating pre-screening integrals         ... done (  0.1 sec) Dimension = 138
Organizing shell pair data                  ... done (  0.1 sec)
Shell pair information
Total number of shell pairs                 ...      9591
Shell pairs after pre-screening             ...      8211
Total number of primitive shell pairs       ...     33125
Primitive shell pairs kept                  ...     19837
          la=0 lb=0:   2813 shell pairs
          la=1 lb=0:   3092 shell pairs
          la=1 lb=1:    880 shell pairs
          la=2 lb=0:    861 shell pairs
          la=2 lb=1:    488 shell pairs
          la=2 lb=2:     77 shell pairs

Calculating one electron integrals          ... done (  0.1 sec)
Calculating RI/J V-Matrix + Cholesky decomp.... done (  0.1 sec)
Calculating Nuclear repulsion               ... done (  0.0 sec) ENN=    857.316494364673 Eh

SHARK setup successfully completed in   0.4 seconds

Maximum memory used throughout the entire GTOINT-calculation: 48.0 MB
-------------------------------------------------------------------------------
                                 ORCA SCF
-------------------------------------------------------------------------------

------------
SCF SETTINGS
------------
Hamiltonian:
 Density Functional     Method          .... DFT(GTOs)
 Exchange Functional    Exchange        .... WB97X
 Correlation Functional Correlation     .... WB97X
 Gradients option       PostSCFGGA      .... off
 Hybrid DFT is turned on
   Fraction HF Exchange ScalHFX         ....  0.157706
   Scaling of DF-GGA-X  ScalDFX         ....  0.000000
   Scaling of DF-GGA-C  ScalDFC         ....  1.000000
   Scaling of DF-LDA-C  ScalLDAC        ....  1.000000
   Perturbative correction              ....  0.000000
   Density functional embedding theory  .... OFF
 Long-range corrected/Screened/Range-Separated Hybrid DFT is turned on
   Amount of maximum screened exact exchange              ....  0.842294
   Range separation parameter mu (erf(mu*r12)/r12)        ....  0.300000
 RI-approximation to the Coulomb term is turned on
   Number of AuxJ basis functions       .... 857
   RIJ-COSX (HFX calculated with COS-X)).... on


General Settings:
 Integral files         IntName         .... 6_deprot_aq_6
 Hartree-Fock type      HFTyp           .... RHF
 Total Charge           Charge          ....    0
 Multiplicity           Mult            ....    1
 Number of Electrons    NEL             ....  100
 Basis Dimension        Dim             ....  282
 Nuclear Repulsion      ENuc            ....    857.3164943647 Eh

Convergence Acceleration:
 DIIS                   CNVDIIS         .... on
   Start iteration      DIISMaxIt       ....     0
   Startup error        DIISStart       ....  0.200000
   # of expansion vecs  DIISMaxEq       ....     5
   Bias factor          DIISBfac        ....   1.050
   Max. coefficient     DIISMaxC        ....  10.000
 Trust-Rad. Augm. Hess. CNVTRAH         .... auto
   Auto Start mean grad. ratio tolernc. ....  1.125000
   Auto Start start iteration           ....    20
   Auto Start num. interpolation iter.  ....    10
   Max. Number of Micro iterations      ....    16
   Max. Number of Macro iterations      .... Maxiter - #DIIS iter
   Number of Davidson start vectors     ....     2
   Converg. threshold I  (grad. norm)   ....   1.000e-05
   Converg. threshold II (energy diff.) ....   1.000e-08
   Grad. Scal. Fac. for Micro threshold ....   0.100
   Minimum threshold for Micro iter.    ....   0.010
   NR start threshold (gradient norm)   ....   0.001
   Initial trust radius                 ....   0.400
   Minimum AH scaling param. (alpha)    ....   1.000
   Maximum AH scaling param. (alpha)    .... 1000.000
   Orbital update algorithm             .... Taylor
   White noise on init. David. guess    .... on
   Maximum white noise                  ....   0.010
   Quad. conv. algorithm                .... NR
 SOSCF                  CNVSOSCF        .... on
   Start iteration      SOSCFMaxIt      ....   150
   Startup grad/error   SOSCFStart      ....  0.001000
 Level Shifting         CNVShift        .... on
   Level shift para.    LevelShift      ....    0.2500
   Turn off err/grad.   ShiftErr        ....    0.0000
 Zerner damping         CNVZerner       .... off
 Static damping         CNVDamp         .... on
   Fraction old density DampFac         ....    0.8500
   Max. Damping (<1)    DampMax         ....    0.9800
   Min. Damping (>=0)   DampMin         ....    0.0000
   Turn off err/grad.   DampErr         ....    0.0300
 Fernandez-Rico         CNVRico         .... off

SCF Procedure:
 Maximum # iterations   MaxIter         ....   125
 SCF integral mode      SCFMode         .... Direct
   Integral package                     .... SHARK and LIBINT hybrid scheme
 Reset frequency        DirectResetFreq ....    20
 Integral Threshold     Thresh          ....  2.500e-11 Eh
 Primitive CutOff       TCut            ....  2.500e-12 Eh

Convergence Tolerance:
 Convergence Check Mode ConvCheckMode   .... Total+1el-Energy
 Convergence forced     ConvForced      .... 0
 Energy Change          TolE            ....  1.000e-08 Eh
 1-El. energy change                    ....  1.000e-05 Eh
 Orbital Gradient       TolG            ....  1.000e-05
 Orbital Rotation angle TolX            ....  1.000e-05
 DIIS Error             TolErr          ....  5.000e-07


Diagonalization of the overlap matrix:
Smallest eigenvalue                        ... 8.509e-04
Time for diagonalization                   ...    0.013 sec
Threshold for overlap eigenvalues          ... 1.000e-08
Number of eigenvalues below threshold      ... 0
Time for construction of square roots      ...    0.006 sec
Total time needed                          ...    0.020 sec

Time for model grid setup =    0.681 sec

------------------------------
INITIAL GUESS: MODEL POTENTIAL
------------------------------
Loading Hartree-Fock densities                     ... done
Calculating cut-offs                               ... done
Initializing the effective Hamiltonian             ... done
Setting up the integral package (SHARK)            ... done
Starting the Coulomb interaction                   ... done (   0.8 sec)
Reading the grid                                   ... done
Mapping shells                                     ... done
Starting the XC term evaluation                    ... done (   0.7 sec)
  promolecular density results
     # of electrons  =     99.988852494
     EX              =    -75.327742416
     EC              =     -3.315557130
     EX+EC           =    -78.643299547
Transforming the Hamiltonian                       ... done (   0.0 sec)
Diagonalizing the Hamiltonian                      ... done (   0.0 sec)
Back transforming the eigenvectors                 ... done (   0.0 sec)
Now organizing SCF variables                       ... done
                      ------------------
                      INITIAL GUESS DONE (   2.2 sec)
                      ------------------
-------------------
DFT GRID GENERATION
-------------------

General Integration Accuracy     IntAcc      ... 4.388
Radial Grid Type                 RadialGrid  ... OptM3 with GC (2021)
Angular Grid (max. ang.)         AngularGrid ... 4 (Lebedev-302)
Angular grid pruning method      GridPruning ... 4 (adaptive)
Weight generation scheme         WeightScheme... Becke
Basis function cutoff            BFCut       ... 1.0000e-11
Integration weight cutoff        WCut        ... 1.0000e-14
Angular grids for H and He will be reduced by one unit
Partially contracted basis set               ... off
Rotationally invariant grid construction     ... off

Total number of grid points                  ...   141137
Total number of batches                      ...     2225
Average number of points per batch           ...       63
Average number of grid points per atom       ...     4277
Time for grid setup =    2.521 sec

--------------------
COSX GRID GENERATION
--------------------

GRIDX 1
-------
General Integration Accuracy     IntAcc      ... 3.816
Radial Grid Type                 RadialGrid  ... OptM3 with GC (2021)
Angular Grid (max. ang.)         AngularGrid ... 1 (Lebedev-50)
Angular grid pruning method      GridPruning ... 4 (adaptive)
Weight generation scheme         WeightScheme... Becke
Basis function cutoff            BFCut       ... 1.0000e-11
Integration weight cutoff        WCut        ... 1.0000e-14
Angular grids for H and He will be reduced by one unit
Partially contracted basis set               ... on
Rotationally invariant grid construction     ... off

Total number of grid points                  ...    18061
Total number of batches                      ...      300
Average number of points per batch           ...       60
Average number of grid points per atom       ...      547
UseSFitting                                  ... on

GRIDX 2
-------
General Integration Accuracy     IntAcc      ... 4.020
Radial Grid Type                 RadialGrid  ... OptM3 with GC (2021)
Angular Grid (max. ang.)         AngularGrid ... 2 (Lebedev-110)
Angular grid pruning method      GridPruning ... 4 (adaptive)
Weight generation scheme         WeightScheme... Becke
Basis function cutoff            BFCut       ... 1.0000e-11
Integration weight cutoff        WCut        ... 1.0000e-14
Angular grids for H and He will be reduced by one unit
Partially contracted basis set               ... on
Rotationally invariant grid construction     ... off

Total number of grid points                  ...    37544
Total number of batches                      ...      606
Average number of points per batch           ...       61
Average number of grid points per atom       ...     1138
UseSFitting                                  ... on

GRIDX 3
-------
General Integration Accuracy     IntAcc      ... 4.338
Radial Grid Type                 RadialGrid  ... OptM3 with GC (2021)
Angular Grid (max. ang.)         AngularGrid ... 3 (Lebedev-194)
Angular grid pruning method      GridPruning ... 4 (adaptive)
Weight generation scheme         WeightScheme... Becke
Basis function cutoff            BFCut       ... 1.0000e-11
Integration weight cutoff        WCut        ... 1.0000e-14
Angular grids for H and He will be reduced by one unit
Partially contracted basis set               ... on
Rotationally invariant grid construction     ... off

Total number of grid points                  ...    81619
Total number of batches                      ...     1294
Average number of points per batch           ...       63
Average number of grid points per atom       ...     2473
UseSFitting                                  ... on

Time for X-Grid setup             =    3.265 sec


--------------------
CPCM SOLVATION MODEL
--------------------
CPCM parameters:
  Epsilon                                         ...      80.4000
  Refrac                                          ...       1.3300
  Rsolv                                           ...       1.3000
  Surface type                                    ... GAUSSIAN VDW
  Epsilon function type                           ...         CPCM
Radii:
 Radius for N  used is    3.5149 Bohr (=   1.8600 Ang.)
 Radius for C  used is    3.8550 Bohr (=   2.0400 Ang.)
 Radius for H  used is    2.4944 Bohr (=   1.3200 Ang.)
Calculating surface                               ...        done! (  0.0s)
GEPOL surface points                              ...         1716
GEPOL Volume                                      ...    1690.9119
GEPOL Surface-area                                ...     897.9485
Calculating surface distance matrix               ...        done! (  0.0s)
Performing Cholesky decomposition & store         ...        done! (  0.1s)
Overall time for CPCM initialization              ...                 0.1s
--------------
SCF ITERATIONS
--------------
ITER       Energy         Delta-E        Max-DP      RMS-DP      [F,P]     Damp
               ***  Starting incremental Fock matrix formation  ***
  0   -539.8620899080   0.000000000000 0.03950694  0.00069250  0.1575100 0.8500
  1   -539.9278582265  -0.065768318479 0.04238251  0.00065561  0.1271601 0.8500
                               ***Turning on DIIS***
  2   -539.9782662384  -0.050408011918 0.03750906  0.00053915  0.0978896 0.8500
  3   -540.0159267084  -0.037660470052 0.03101448  0.00038797  0.0744320 0.8500
  4   -540.0450277470  -0.029101038526 0.02576091  0.00029815  0.0593787 0.8500
  5   -540.0679575976  -0.022929850609 0.02169360  0.00024443  0.0491606 0.8500
  6   -540.0865734058  -0.018615808191 0.01844274  0.00020599  0.0413756 0.8500
  7   -540.1019532751  -0.015379869319 0.01581997  0.00017706  0.0350496 0.8500
  8   -540.1147944636  -0.012841188517 0.09104281  0.00101620  0.0296404 0.0000
  9   -540.1836493971  -0.068854933527 0.00165804  0.00003692  0.0012249 0.0000
                      *** Initiating the SOSCF procedure ***
                           *** Shutting down DIIS ***
                      *** Re-Reading the Fockian *** 
                      *** Removing any level shift *** 
ITER      Energy       Delta-E        Grad      Rot      Max-DP    RMS-DP
 10   -540.18367459  -0.0000251932  0.000225  0.000225  0.000600  0.000017
               *** Restarting incremental Fock matrix formation ***
 11   -540.18358791   0.0000866797  0.000226  0.000524  0.000824  0.000013
 12   -540.18358876  -0.0000008500  0.000063  0.000247  0.000290  0.000008
 13   -540.18358895  -0.0000001912  0.000028  0.000025  0.000132  0.000003
 14   -540.18358898  -0.0000000285  0.000008  0.000021  0.000062  0.000001
 15   -540.18358899  -0.0000000055  0.000004  0.000011  0.000024  0.000000
                  ***Gradient check signals convergence***
              ***Rediagonalizing the Fockian in SOSCF/NRSCF***

               *****************************************************
               *                     SUCCESS                       *
               *           SCF CONVERGED AFTER  16 CYCLES          *
               *****************************************************

Old exchange energy                            =    -25.341222115 Eh
New exchange energy                            =    -25.341219474 Eh
Exchange energy change after final integration =      0.000002642 Eh
Total energy after final integration           =   -540.183586352 Eh
Final COS-X integration done in                =    90.655 sec

----------------
TOTAL SCF ENERGY
----------------

Total Energy       :         -540.18358635 Eh          -14699.14267 eV

Components:
Nuclear Repulsion  :          857.31649436 Eh           23328.76782 eV
Electronic Energy  :        -1397.50008072 Eh          -38027.91050 eV
One Electron Energy:        -2429.75323483 Eh          -66116.94684 eV
Two Electron Energy:         1032.25315411 Eh           28089.03634 eV
Max COSX asymmetry :            0.00000269 Eh               0.00007 eV
CPCM Dielectric    :           -0.01591354 Eh              -0.43303 eV

Virial components:
Potential Energy   :        -1074.12628886 Eh          -29228.46227 eV
Kinetic Energy     :          533.94270251 Eh           14529.31959 eV
Virial Ratio       :            2.01168830


DFT components:
N(Alpha)           :       49.999923537502 electrons
N(Beta)            :       49.999923537502 electrons
N(Total)           :       99.999847075004 electrons
E(XC)              :      -55.556764256457 Eh       
DFET-embed. en.    :        0.000000000000 Eh       
CPCM Solvation Model Properties:
Surface-charge          :           -0.02858021
Charge-correction       :           -0.00055016 Eh              -0.01497 eV
Free-energy (cav+disp)  :  This term is not implemented in the current solvation scheme

---------------
SCF CONVERGENCE
---------------

  Last Energy change         ...   -7.6966e-09  Tolerance :   1.0000e-08
  Last MAX-Density change    ...    7.5495e-15  Tolerance :   1.0000e-07
  Last RMS-Density change    ...    4.3903e-17  Tolerance :   5.0000e-09
  Last Orbital Gradient      ...    7.9758e-07  Tolerance :   1.0000e-05
  Last Orbital Rotation      ...    4.0034e-06  Tolerance :   1.0000e-05

             **** THE GBW FILE WAS UPDATED (6_deprot_aq_6.gbw) ****
             **** DENSITY 6_deprot_aq_6.scfp WAS UPDATED ****
             **** ENERGY FILE WAS UPDATED (6_deprot_aq_6.en.tmp) ****
             **** THE GBW FILE WAS UPDATED (6_deprot_aq_6.gbw) ****
             **** DENSITY 6_deprot_aq_6.scfp WAS UPDATED ****
----------------
ORBITAL ENERGIES
----------------

  NO   OCC          E(Eh)            E(eV) 
   0   2.0000     -14.438994      -392.9050 
   1   2.0000     -14.438988      -392.9048 
   2   2.0000     -10.303557      -280.3740 
   3   2.0000     -10.303528      -280.3733 
   4   2.0000     -10.290483      -280.0183 
   5   2.0000     -10.289970      -280.0043 
   6   2.0000     -10.268452      -279.4188 
   7   2.0000     -10.268388      -279.4170 
   8   2.0000     -10.267242      -279.3858 
   9   2.0000     -10.256863      -279.1034 
  10   2.0000     -10.256858      -279.1033 
  11   2.0000     -10.256605      -279.0964 
  12   2.0000     -10.256600      -279.0963 
  13   2.0000      -1.145269       -31.1643 
  14   2.0000      -1.042988       -28.3811 
  15   2.0000      -0.937938       -25.5226 
  16   2.0000      -0.904893       -24.6234 
  17   2.0000      -0.886204       -24.1148 
  18   2.0000      -0.846952       -23.0467 
  19   2.0000      -0.809330       -22.0230 
  20   2.0000      -0.808831       -22.0094 
  21   2.0000      -0.792456       -21.5638 
  22   2.0000      -0.751012       -20.4361 
  23   2.0000      -0.722109       -19.6496 
  24   2.0000      -0.679786       -18.4979 
  25   2.0000      -0.645863       -17.5748 
  26   2.0000      -0.595659       -16.2087 
  27   2.0000      -0.591219       -16.0879 
  28   2.0000      -0.586352       -15.9554 
  29   2.0000      -0.552141       -15.0245 
  30   2.0000      -0.549401       -14.9500 
  31   2.0000      -0.536896       -14.6097 
  32   2.0000      -0.535157       -14.5624 
  33   2.0000      -0.531363       -14.4591 
  34   2.0000      -0.521007       -14.1773 
  35   2.0000      -0.509850       -13.8737 
  36   2.0000      -0.505907       -13.7664 
  37   2.0000      -0.495327       -13.4785 
  38   2.0000      -0.488581       -13.2950 
  39   2.0000      -0.485449       -13.2097 
  40   2.0000      -0.479398       -13.0451 
  41   2.0000      -0.472144       -12.8477 
  42   2.0000      -0.466001       -12.6805 
  43   2.0000      -0.454101       -12.3567 
  44   2.0000      -0.439523       -11.9600 
  45   2.0000      -0.430038       -11.7019 
  46   2.0000      -0.428501       -11.6601 
  47   2.0000      -0.362650        -9.8682 
  48   2.0000      -0.316808        -8.6208 
  49   2.0000      -0.300938        -8.1889 
  50   0.0000       0.131208         3.5704 
  51   0.0000       0.132434         3.6037 
  52   0.0000       0.140966         3.8359 
  53   0.0000       0.154826         4.2130 
  54   0.0000       0.174715         4.7542 
  55   0.0000       0.180819         4.9203 
  56   0.0000       0.189911         5.1677 
  57   0.0000       0.196418         5.3448 
  58   0.0000       0.207601         5.6491 
  59   0.0000       0.212562         5.7841 
  60   0.0000       0.223067         6.0700 
  61   0.0000       0.230507         6.2724 
  62   0.0000       0.231898         6.3103 
  63   0.0000       0.235323         6.4035 
  64   0.0000       0.245098         6.6695 
  65   0.0000       0.250108         6.8058 
  66   0.0000       0.255544         6.9537 
  67   0.0000       0.267005         7.2656 
  68   0.0000       0.270814         7.3692 
  69   0.0000       0.277730         7.5574 
  70   0.0000       0.284478         7.7411 
  71   0.0000       0.284553         7.7431 
  72   0.0000       0.297237         8.0882 
  73   0.0000       0.302236         8.2243 
  74   0.0000       0.307213         8.3597 
  75   0.0000       0.331365         9.0169 
  76   0.0000       0.335042         9.1169 
  77   0.0000       0.349882         9.5208 
  78   0.0000       0.353592         9.6217 
  79   0.0000       0.377705        10.2779 
  80   0.0000       0.385729        10.4962 
  81   0.0000       0.395509        10.7624 
  82   0.0000       0.403235        10.9726 
  83   0.0000       0.452053        12.3010 
  84   0.0000       0.480580        13.0772 
  85   0.0000       0.501089        13.6353 
  86   0.0000       0.504774        13.7356 
  87   0.0000       0.517274        14.0757 
  88   0.0000       0.517302        14.0765 
  89   0.0000       0.519679        14.1412 
  90   0.0000       0.523575        14.2472 
  91   0.0000       0.539105        14.6698 
  92   0.0000       0.558785        15.2053 
  93   0.0000       0.573954        15.6181 
  94   0.0000       0.576530        15.6882 
  95   0.0000       0.584879        15.9154 
  96   0.0000       0.632255        17.2045 
  97   0.0000       0.645890        17.5755 
  98   0.0000       0.655357        17.8332 
  99   0.0000       0.661710        18.0060 
 100   0.0000       0.674052        18.3419 
 101   0.0000       0.676243        18.4015 
 102   0.0000       0.687491        18.7076 
 103   0.0000       0.693431        18.8692 
 104   0.0000       0.701000        19.0752 
 105   0.0000       0.715666        19.4743 
 106   0.0000       0.720609        19.6088 
 107   0.0000       0.725136        19.7319 
 108   0.0000       0.742806        20.2128 
 109   0.0000       0.753029        20.4910 
 110   0.0000       0.755277        20.5521 
 111   0.0000       0.769404        20.9365 
 112   0.0000       0.772655        21.0250 
 113   0.0000       0.776874        21.1398 
 114   0.0000       0.779875        21.2215 
 115   0.0000       0.782089        21.2817 
 116   0.0000       0.784062        21.3354 
 117   0.0000       0.788977        21.4692 
 118   0.0000       0.790457        21.5094 
 119   0.0000       0.795938        21.6586 
 120   0.0000       0.800403        21.7801 
 121   0.0000       0.801347        21.8058 
 122   0.0000       0.809969        22.0404 
 123   0.0000       0.810484        22.0544 
 124   0.0000       0.816692        22.2233 
 125   0.0000       0.825278        22.4570 
 126   0.0000       0.826287        22.4844 
 127   0.0000       0.833286        22.6749 
 128   0.0000       0.833852        22.6903 
 129   0.0000       0.837312        22.7844 
 130   0.0000       0.853527        23.2257 
 131   0.0000       0.853668        23.2295 
 132   0.0000       0.862093        23.4588 
 133   0.0000       0.864361        23.5205 
 134   0.0000       0.874991        23.8097 
 135   0.0000       0.887291        24.1444 
 136   0.0000       0.892212        24.2783 
 137   0.0000       0.898000        24.4358 
 138   0.0000       0.928455        25.2645 
 139   0.0000       0.959710        26.1150 
 140   0.0000       1.029225        28.0066 
 141   0.0000       1.057347        28.7719 
 142   0.0000       1.059928        28.8421 
 143   0.0000       1.099690        29.9241 
 144   0.0000       1.102613        30.0036 
 145   0.0000       1.128967        30.7207 
 146   0.0000       1.129441        30.7337 
 147   0.0000       1.147501        31.2251 
 148   0.0000       1.157519        31.4977 
 149   0.0000       1.180208        32.1151 
 150   0.0000       1.187297        32.3080 
 151   0.0000       1.238995        33.7148 
 152   0.0000       1.246659        33.9233 
 153   0.0000       1.276263        34.7289 
 154   0.0000       1.287370        35.0311 
 155   0.0000       1.324212        36.0336 
 156   0.0000       1.335890        36.3514 
 157   0.0000       1.369390        37.2630 
 158   0.0000       1.394040        37.9338 
 159   0.0000       1.426901        38.8279 
 160   0.0000       1.437792        39.1243 
 161   0.0000       1.451063        39.4854 
 162   0.0000       1.519106        41.3370 
 163   0.0000       1.542470        41.9727 
 164   0.0000       1.560754        42.4703 
 165   0.0000       1.566112        42.6161 
 166   0.0000       1.596923        43.4545 
 167   0.0000       1.601468        43.5782 
 168   0.0000       1.619909        44.0800 
 169   0.0000       1.652349        44.9627 
 170   0.0000       1.652463        44.9658 
 171   0.0000       1.657751        45.1097 
 172   0.0000       1.660840        45.1937 
 173   0.0000       1.662012        45.2257 
 174   0.0000       1.672070        45.4993 
 175   0.0000       1.673604        45.5411 
 176   0.0000       1.697817        46.1999 
 177   0.0000       1.704026        46.3689 
 178   0.0000       1.720466        46.8163 
 179   0.0000       1.775024        48.3009 
 180   0.0000       1.787165        48.6312 
 181   0.0000       1.830044        49.7980 
 182   0.0000       1.831006        49.8242 
 183   0.0000       1.864718        50.7416 
 184   0.0000       1.866381        50.7868 
 185   0.0000       1.869000        50.8581 
 186   0.0000       1.895451        51.5778 
 187   0.0000       1.901970        51.7552 
 188   0.0000       1.903736        51.8033 
 189   0.0000       1.910305        51.9820 
 190   0.0000       1.921149        52.2771 
 191   0.0000       1.921785        52.2944 
 192   0.0000       1.929798        52.5125 
 193   0.0000       1.938066        52.7375 
 194   0.0000       1.941593        52.8334 
 195   0.0000       1.955146        53.2022 
 196   0.0000       1.955271        53.2056 
 197   0.0000       1.961678        53.3800 
 198   0.0000       1.965811        53.4924 
 199   0.0000       1.971810        53.6557 
 200   0.0000       1.982195        53.9383 
 201   0.0000       1.987239        54.0755 
 202   0.0000       1.997420        54.3526 
 203   0.0000       2.005472        54.5717 
 204   0.0000       2.008629        54.6576 
 205   0.0000       2.012094        54.7518 
 206   0.0000       2.024774        55.0969 
 207   0.0000       2.043081        55.5951 
 208   0.0000       2.050380        55.7937 
 209   0.0000       2.067013        56.2463 
 210   0.0000       2.089906        56.8692 
 211   0.0000       2.094859        57.0040 
 212   0.0000       2.098514        57.1035 
 213   0.0000       2.104138        57.2565 
 214   0.0000       2.136943        58.1492 
 215   0.0000       2.161653        58.8216 
 216   0.0000       2.171436        59.0878 
 217   0.0000       2.179295        59.3016 
 218   0.0000       2.201175        59.8970 
 219   0.0000       2.218235        60.3612 
 220   0.0000       2.244714        61.0818 
 221   0.0000       2.271842        61.8200 
 222   0.0000       2.290827        62.3366 
 223   0.0000       2.308681        62.8224 
 224   0.0000       2.318594        63.0921 
 225   0.0000       2.334959        63.5375 
 226   0.0000       2.365130        64.3585 
 227   0.0000       2.375409        64.6382 
 228   0.0000       2.381408        64.8014 
 229   0.0000       2.389378        65.0183 
 230   0.0000       2.397356        65.2354 
 231   0.0000       2.411674        65.6250 
 232   0.0000       2.462406        67.0055 
 233   0.0000       2.496717        67.9391 
 234   0.0000       2.506258        68.1987 
 235   0.0000       2.525614        68.7254 
 236   0.0000       2.536514        69.0221 
 237   0.0000       2.549238        69.3683 
 238   0.0000       2.560821        69.6835 
 239   0.0000       2.570195        69.9386 
 240   0.0000       2.590155        70.4817 
 241   0.0000       2.616440        71.1969 
 242   0.0000       2.618850        71.2625 
 243   0.0000       2.631733        71.6131 
 244   0.0000       2.645437        71.9860 
 245   0.0000       2.668008        72.6002 
 246   0.0000       2.681826        72.9762 
 247   0.0000       2.706427        73.6456 
 248   0.0000       2.724227        74.1300 
 249   0.0000       2.735505        74.4369 
 250   0.0000       2.757889        75.0460 
 251   0.0000       2.766977        75.2933 
 252   0.0000       2.828504        76.9675 
 253   0.0000       2.844388        77.3997 
 254   0.0000       2.847321        77.4795 
 255   0.0000       2.857879        77.7668 
 256   0.0000       2.870373        78.1068 
 257   0.0000       2.898439        78.8705 
 258   0.0000       2.923793        79.5605 
 259   0.0000       2.977454        81.0206 
 260   0.0000       2.989453        81.3471 
 261   0.0000       3.010345        81.9156 
 262   0.0000       3.017290        82.1046 
 263   0.0000       3.042120        82.7803 
 264   0.0000       3.043606        82.8207 
 265   0.0000       3.044749        82.8518 
 266   0.0000       3.058206        83.2180 
 267   0.0000       3.059193        83.2449 
 268   0.0000       3.091809        84.1324 
 269   0.0000       3.099997        84.3552 
 270   0.0000       3.102594        84.4259 
 271   0.0000       3.111443        84.6667 
 272   0.0000       3.135722        85.3273 
 273   0.0000       3.159123        85.9641 
 274   0.0000       3.164847        86.1199 
 275   0.0000       3.165556        86.1392 
 276   0.0000       3.184191        86.6463 
 277   0.0000       3.191161        86.8359 
 278   0.0000       3.372631        91.7740 
 279   0.0000       3.452723        93.9534 
 280   0.0000       3.452769        93.9546 
 281   0.0000       3.580502        97.4304 

                    ********************************
                    * MULLIKEN POPULATION ANALYSIS *
                    ********************************

-----------------------
MULLIKEN ATOMIC CHARGES
-----------------------
   0 N :   -0.200118
   1 C :   -0.232682
   2 N :   -0.200114
   3 C :   -0.129970
   4 C :   -0.129983
   5 C :   -0.009388
   6 C :   -0.009370
   7 C :    0.014175
   8 H :    0.020544
   9 C :    0.003647
  10 H :    0.020544
  11 C :    0.014187
  12 C :    0.003717
  13 C :    0.101106
  14 C :    0.101254
  15 H :    0.033444
  16 H :    0.024114
  17 H :    0.040940
  18 H :    0.027918
  19 H :    0.038376
  20 H :    0.026329
  21 H :    0.033450
  22 H :    0.040911
  23 H :    0.024053
  24 H :    0.038363
  25 H :    0.027903
  26 H :    0.026304
  27 H :    0.032642
  28 H :    0.037075
  29 H :    0.055385
  30 H :    0.037120
  31 H :    0.032704
  32 H :    0.055418
Sum of atomic charges:   -0.0000000

--------------------------------
MULLIKEN REDUCED ORBITAL CHARGES
--------------------------------
  0 N s       :     3.382981  s :     3.382981
      pz      :     1.502097  p :     3.785059
      px      :     1.160208
      py      :     1.122753
      dz2     :     0.002434  d :     0.032078
      dxz     :     0.004038
      dyz     :     0.005707
      dx2y2   :     0.010610
      dxy     :     0.009289
  1 C s       :     3.620917  s :     3.620917
      pz      :     0.731994  p :     2.546064
      px      :     0.663315
      py      :     1.150756
      dz2     :     0.007756  d :     0.065700
      dxz     :     0.012641
      dyz     :     0.009116
      dx2y2   :     0.008230
      dxy     :     0.027957
  2 N s       :     3.382984  s :     3.382984
      pz      :     1.502123  p :     3.785054
      px      :     1.160228
      py      :     1.122703
      dz2     :     0.002434  d :     0.032077
      dxz     :     0.004037
      dyz     :     0.005707
      dx2y2   :     0.010609
      dxy     :     0.009289
  3 C s       :     3.109264  s :     3.109264
      pz      :     1.080795  p :     2.962838
      px      :     0.989803
      py      :     0.892241
      dz2     :     0.004491  d :     0.057867
      dxz     :     0.009994
      dyz     :     0.010243
      dx2y2   :     0.019158
      dxy     :     0.013981
  4 C s       :     3.109249  s :     3.109249
      pz      :     1.080820  p :     2.962867
      px      :     0.989441
      py      :     0.892606
      dz2     :     0.004490  d :     0.057867
      dxz     :     0.010001
      dyz     :     0.010236
      dx2y2   :     0.019133
      dxy     :     0.014007
  5 C s       :     3.074602  s :     3.074602
      pz      :     1.021943  p :     2.877232
      px      :     0.834976
      py      :     1.020313
      dz2     :     0.012511  d :     0.057555
      dxz     :     0.014458
      dyz     :     0.007079
      dx2y2   :     0.012438
      dxy     :     0.011070
  6 C s       :     3.074597  s :     3.074597
      pz      :     1.021954  p :     2.877216
      px      :     0.835364
      py      :     1.019899
      dz2     :     0.012513  d :     0.057557
      dxz     :     0.014455
      dyz     :     0.007081
      dx2y2   :     0.012391
      dxy     :     0.011118
  7 C s       :     2.976912  s :     2.976912
      pz      :     0.962532  p :     2.982115
      px      :     1.000687
      py      :     1.018896
      dz2     :     0.005963  d :     0.026798
      dxz     :     0.006261
      dyz     :     0.004867
      dx2y2   :     0.004142
      dxy     :     0.005564
  8 H s       :     0.958278  s :     0.958278
      pz      :     0.004163  p :     0.021178
      px      :     0.002825
      py      :     0.014190
  9 C s       :     2.984928  s :     2.984928
      pz      :     0.974849  p :     2.984777
      px      :     0.997171
      py      :     1.012757
      dz2     :     0.006339  d :     0.026648
      dxz     :     0.006452
      dyz     :     0.003123
      dx2y2   :     0.003930
      dxy     :     0.006804
 10 H s       :     0.958280  s :     0.958280
      pz      :     0.004164  p :     0.021177
      px      :     0.002836
      py      :     0.014177
 11 C s       :     2.976907  s :     2.976907
      pz      :     0.962513  p :     2.982109
      px      :     1.000727
      py      :     1.018869
      dz2     :     0.005961  d :     0.026798
      dxz     :     0.006263
      dyz     :     0.004871
      dx2y2   :     0.004129
      dxy     :     0.005574
 12 C s       :     2.984882  s :     2.984882
      pz      :     0.974919  p :     2.984752
      px      :     0.997034
      py      :     1.012799
      dz2     :     0.006358  d :     0.026650
      dxz     :     0.006444
      dyz     :     0.003107
      dx2y2   :     0.003923
      dxy     :     0.006817
 13 C s       :     2.873893  s :     2.873893
      pz      :     1.030646  p :     2.997328
      px      :     0.991917
      py      :     0.974766
      dz2     :     0.004647  d :     0.027673
      dxz     :     0.007283
      dyz     :     0.004688
      dx2y2   :     0.003396
      dxy     :     0.007659
 14 C s       :     2.873751  s :     2.873751
      pz      :     1.030635  p :     2.997323
      px      :     0.992043
      py      :     0.974645
      dz2     :     0.004641  d :     0.027672
      dxz     :     0.007296
      dyz     :     0.004683
      dx2y2   :     0.003393
      dxy     :     0.007660
 15 H s       :     0.942429  s :     0.942429
      pz      :     0.012007  p :     0.024127
      px      :     0.007245
      py      :     0.004875
 16 H s       :     0.951187  s :     0.951187
      pz      :     0.005109  p :     0.024700
      px      :     0.005817
      py      :     0.013773
 17 H s       :     0.934566  s :     0.934566
      pz      :     0.004815  p :     0.024494
      px      :     0.011436
      py      :     0.008242
 18 H s       :     0.947971  s :     0.947971
      pz      :     0.008842  p :     0.024111
      px      :     0.008566
      py      :     0.006704
 19 H s       :     0.937161  s :     0.937161
      pz      :     0.004135  p :     0.024462
      px      :     0.012316
      py      :     0.008012
 20 H s       :     0.948899  s :     0.948899
      pz      :     0.004987  p :     0.024771
      px      :     0.005502
      py      :     0.014283
 21 H s       :     0.942424  s :     0.942424
      pz      :     0.012022  p :     0.024126
      px      :     0.007229
      py      :     0.004875
 22 H s       :     0.934595  s :     0.934595
      pz      :     0.004808  p :     0.024494
      px      :     0.011432
      py      :     0.008253
 23 H s       :     0.951245  s :     0.951245
      pz      :     0.005108  p :     0.024703
      px      :     0.005818
      py      :     0.013777
 24 H s       :     0.937175  s :     0.937175
      pz      :     0.004134  p :     0.024461
      px      :     0.012309
      py      :     0.008019
 25 H s       :     0.947986  s :     0.947986
      pz      :     0.008831  p :     0.024111
      px      :     0.008575
      py      :     0.006705
 26 H s       :     0.948925  s :     0.948925
      pz      :     0.004993  p :     0.024771
      px      :     0.005504
      py      :     0.014274
 27 H s       :     0.942181  s :     0.942181
      pz      :     0.006688  p :     0.025177
      px      :     0.007423
      py      :     0.011066
 28 H s       :     0.937750  s :     0.937750
      pz      :     0.009050  p :     0.025176
      px      :     0.011303
      py      :     0.004822
 29 H s       :     0.919936  s :     0.919936
      pz      :     0.013408  p :     0.024679
      px      :     0.006064
      py      :     0.005207
 30 H s       :     0.937705  s :     0.937705
      pz      :     0.009032  p :     0.025175
      px      :     0.011313
      py      :     0.004830
 31 H s       :     0.942120  s :     0.942120
      pz      :     0.006697  p :     0.025177
      px      :     0.007401
      py      :     0.011079
 32 H s       :     0.919903  s :     0.919903
      pz      :     0.013418  p :     0.024678
      px      :     0.006053
      py      :     0.005208


                     *******************************
                     * LOEWDIN POPULATION ANALYSIS *
                     *******************************

----------------------
LOEWDIN ATOMIC CHARGES
----------------------
   0 N :    0.036180
   1 C :   -0.322010
   2 N :    0.036174
   3 C :   -0.045549
   4 C :   -0.045558
   5 C :    0.024909
   6 C :    0.024914
   7 C :   -0.056651
   8 H :    0.026099
   9 C :   -0.057494
  10 H :    0.026100
  11 C :   -0.056650
  12 C :   -0.057490
  13 C :   -0.054047
  14 C :   -0.054046
  15 H :    0.028149
  16 H :    0.024883
  17 H :    0.034779
  18 H :    0.026102
  19 H :    0.033339
  20 H :    0.023973
  21 H :    0.028150
  22 H :    0.034775
  23 H :    0.024886
  24 H :    0.033322
  25 H :    0.026096
  26 H :    0.023985
  27 H :    0.041293
  28 H :    0.034950
  29 H :    0.040099
  30 H :    0.034931
  31 H :    0.041295
  32 H :    0.040111

-------------------------------
LOEWDIN REDUCED ORBITAL CHARGES
-------------------------------
  0 N s       :     3.057941  s :     3.057941
      pz      :     1.431257  p :     3.829876
      px      :     1.198996
      py      :     1.199623
      dz2     :     0.004682  d :     0.076003
      dxz     :     0.007322
      dyz     :     0.011477
      dx2y2   :     0.026549
      dxy     :     0.025974
  1 C s       :     3.199098  s :     3.199098
      pz      :     0.785529  p :     2.979652
      px      :     0.826144
      py      :     1.367979
      dz2     :     0.017656  d :     0.143259
      dxz     :     0.027778
      dyz     :     0.012895
      dx2y2   :     0.019677
      dxy     :     0.065253
  2 N s       :     3.057942  s :     3.057942
      pz      :     1.431276  p :     3.829884
      px      :     1.199128
      py      :     1.199480
      dz2     :     0.004681  d :     0.076000
      dxz     :     0.007321
      dyz     :     0.011478
      dx2y2   :     0.026549
      dxy     :     0.025972
  3 C s       :     2.837935  s :     2.837935
      pz      :     1.062851  p :     3.067459
      px      :     1.053082
      py      :     0.951526
      dz2     :     0.009864  d :     0.140155
      dxz     :     0.019731
      dyz     :     0.020357
      dx2y2   :     0.052490
      dxy     :     0.037713
  4 C s       :     2.837933  s :     2.837933
      pz      :     1.062874  p :     3.067472
      px      :     1.052917
      py      :     0.951680
      dz2     :     0.009863  d :     0.140154
      dxz     :     0.019752
      dyz     :     0.020336
      dx2y2   :     0.052428
      dxy     :     0.037776
  5 C s       :     2.828888  s :     2.828888
      pz      :     1.049212  p :     3.012994
      px      :     0.922893
      py      :     1.040889
      dz2     :     0.028229  d :     0.133209
      dxz     :     0.034788
      dyz     :     0.014920
      dx2y2   :     0.030344
      dxy     :     0.024928
  6 C s       :     2.828890  s :     2.828890
[...]
     46      -0.008205  -0.001224  -0.000725
     47       0.267985   0.043942   0.027579
     48      -0.167597  -0.031963  -0.020807
     49       0.636894   0.118688   0.076522
     50       0.157991   0.028876   0.018512
     51       0.238384   0.048167   0.031122
     52       0.142622   0.029406   0.019145
     53       0.023683   0.005168   0.003427
     54      -0.003185  -0.038366  -0.028771
     55       0.002759   0.027838   0.020803
     56      -0.003855  -0.043317  -0.032508
     57       0.033210   0.055198   0.041281
     58       0.018040   0.028971   0.021668
     59       0.001004   0.002123   0.001583
     60      -0.006402  -0.027166  -0.021009
     61       0.029851   0.148684   0.115723
     62       0.012177   0.049652   0.038404
     63       0.102971  -0.023334   0.015268
     64      -0.005896   0.001219  -0.000754
     65       0.187756  -0.042676   0.027950
     66      -0.167927   0.046892  -0.031599
     67       0.100915  -0.028750   0.019522
     68       0.016665  -0.005021   0.003473
     69       0.118476  -0.031289   0.021248
     70       0.446957  -0.115349   0.077590
     71       0.110824  -0.028052   0.018763
     72      -0.026248   0.054168  -0.042157
     73       0.014283  -0.028586   0.022250
     74       0.000814  -0.002075   0.001611
     75       0.004431  -0.037833   0.029511
     76       0.003519  -0.027306   0.021225
     77      -0.005163   0.042642  -0.033287
     78       0.005963  -0.027051   0.021765
     79       0.028595  -0.146214   0.118392
     80       0.011101  -0.048806   0.039272
     81       0.043168  -0.242594  -0.258576
     82       0.068806  -0.376982  -0.402112
     83       0.032078  -0.175566  -0.186849
     84       0.082247  -0.349900  -0.328573
     85       0.021262  -0.090841  -0.085422
     86      -0.067941   0.293177   0.275314
     87      -0.018265   0.000346  -0.007638
     88       0.009240   0.009812   0.016051
     89      -0.036331  -0.016792  -0.035147
     90      -0.047456  -0.343775   0.335989
     91       0.012360   0.090116  -0.088198
     92      -0.039095  -0.287838   0.281324
     93      -0.025812  -0.236483   0.262506
     94       0.041521   0.369035  -0.409991
     95       0.019326   0.172063  -0.190718
     96       0.011660   0.000721   0.007492
     97       0.005925  -0.009353   0.016157
     98      -0.023364   0.015574  -0.035143


-----------
IR SPECTRUM
-----------

 Mode   freq       eps      Int      T**2         TX        TY        TZ
       cm**-1   L/(mol*cm) km/mol    a.u.
----------------------------------------------------------------------------
  6:     43.03   0.000218    1.10  0.001585  (-0.000024 -0.006992  0.039189)
  7:     55.46   0.000013    0.07  0.000075  (-0.008674  0.000029 -0.000278)
  8:     83.52   0.000005    0.03  0.000020  (-0.004503 -0.000063 -0.000107)
  9:    105.38   0.000076    0.38  0.000224  (-0.000012 -0.010917  0.010262)
 10:    109.99   0.001510    7.63  0.004284  (-0.000040 -0.013819  0.063973)
 11:    114.03   0.000006    0.03  0.000018  ( 0.004191  0.000066  0.000142)
 12:    182.45   0.000629    3.18  0.001076  ( 0.000036 -0.024333 -0.022006)
 13:    190.57   0.000062    0.31  0.000101  ( 0.010039  0.000127  0.000037)
 14:    217.22   0.000032    0.16  0.000046  ( 0.000217 -0.005038  0.004587)
 15:    220.66   0.000095    0.48  0.000134  (-0.011597 -0.000060  0.000084)
 16:    245.10   0.000121    0.61  0.000154  ( 0.001210  0.009425 -0.007991)
 17:    245.63   0.000198    1.00  0.000252  ( 0.015850 -0.000711  0.000640)
 18:    267.63   0.000042    0.21  0.000049  ( 0.000051  0.006121 -0.003335)
 19:    273.22   0.000082    0.41  0.000094  (-0.009682  0.000079 -0.000016)
 20:    282.30   0.000249    1.26  0.000275  (-0.000003  0.005771 -0.015557)
 21:    325.89   0.000033    0.17  0.000031  ( 0.000080  0.004303  0.003603)
 22:    336.83   0.000665    3.36  0.000616  ( 0.024824 -0.000034 -0.000020)
 23:    398.14   0.000047    0.24  0.000037  (-0.006070  0.000052 -0.000182)
 24:    400.05   0.004538   22.93  0.003540  ( 0.000033  0.010305 -0.058598)
 25:    461.88   0.000308    1.56  0.000208  (-0.000015 -0.014388  0.001052)
 26:    490.61   0.000032    0.16  0.000020  ( 0.004523 -0.000001 -0.000002)
 27:    553.71   0.002333   11.79  0.001315  ( 0.036257 -0.000019  0.000000)
 28:    605.13   0.000007    0.04  0.000004  (-0.000006 -0.001565 -0.001147)
 29:    652.36   0.000105    0.53  0.000050  (-0.007096  0.000002 -0.000004)
 30:    680.42   0.000091    0.46  0.000042  ( 0.000001 -0.000301 -0.006464)
 31:    706.61   0.000130    0.66  0.000057  ( 0.007572 -0.000007  0.000003)
 32:    750.97   0.001263    6.38  0.000525  ( 0.000033  0.022904  0.000294)
 33:    776.65   0.001459    7.37  0.000586  ( 0.024215 -0.000039  0.000003)
 34:    912.11   0.000945    4.78  0.000323  (-0.000014 -0.016977 -0.005927)
 35:    927.18   0.000532    2.69  0.000179  ( 0.013386 -0.000012  0.000052)
 36:    929.04   0.000805    4.07  0.000270  ( 0.000184  0.006061 -0.015280)
 37:    935.05   0.001689    8.54  0.000564  (-0.023742  0.000078 -0.000082)
 38:    954.75   0.000032    0.16  0.000010  ( 0.001464  0.001550 -0.002436)
 39:    954.84   0.000094    0.48  0.000031  ( 0.000805 -0.002981  0.004611)
 40:    971.76   0.000003    0.01  0.000001  ( 0.000007  0.000846  0.000391)
 41:   1036.59   0.003614   18.27  0.001088  (-0.032986 -0.000004  0.000018)
 42:   1038.57   0.001404    7.09  0.000422  ( 0.000033 -0.013314  0.015639)
 43:   1058.95   0.001291    6.52  0.000380  ( 0.019502 -0.000030  0.000005)
 44:   1079.48   0.005276   26.66  0.001525  (-0.000033 -0.038715 -0.005134)
 45:   1129.59   0.003717   18.78  0.001027  ( 0.032043 -0.000034 -0.000001)
 46:   1170.10   0.003917   19.79  0.001045  (-0.000078  0.002936 -0.032186)
 47:   1170.34   0.000086    0.43  0.000023  ( 0.004754  0.000033 -0.000576)
 48:   1174.27   0.000451    2.28  0.000120  (-0.000008 -0.010312  0.003685)
 49:   1190.84   0.001221    6.17  0.000320  ( 0.017886 -0.000025 -0.000001)
 50:   1209.28   0.000017    0.08  0.000004  ( 0.000036  0.002053  0.000351)
 51:   1274.02   0.018601   94.00  0.004556  (-0.067500  0.000055 -0.000008)
 52:   1327.84   0.000606    3.06  0.000142  (-0.000145 -0.011930 -0.000019)
 53:   1341.59   0.003808   19.24  0.000886  ( 0.029761 -0.000079 -0.000006)
 54:   1352.77   0.000502    2.54  0.000116  (-0.010740 -0.000660  0.000313)
 55:   1352.98   0.000177    0.90  0.000041  (-0.001340  0.005721 -0.002527)
 56:   1392.79   0.000012    0.06  0.000003  (-0.000017  0.000512 -0.001593)
 57:   1396.28   0.001020    5.15  0.000228  ( 0.015095  0.000008 -0.000142)
 58:   1396.68   0.010352   52.31  0.002313  ( 0.000137  0.008384 -0.047356)
 59:   1399.24   0.002607   13.18  0.000581  ( 0.024113  0.000013  0.000254)
 60:   1402.11   0.001605    8.11  0.000357  ( 0.000113 -0.016747  0.008757)
 61:   1403.74   0.000265    1.34  0.000059  ( 0.007672  0.000021  0.000034)
 62:   1429.60   0.009717   49.11  0.002121  ( 0.000075 -0.044822  0.010587)
 63:   1430.50   0.041181  208.11  0.008984  ( 0.094782 -0.000035 -0.000014)
 64:   1437.04   0.001620    8.19  0.000352  ( 0.000053 -0.018126  0.004834)
 65:   1437.75   0.000525    2.65  0.000114  ( 0.010667  0.000258  0.000161)
 66:   1442.93   0.003843   19.42  0.000831  ( 0.000007 -0.020202 -0.020567)
 67:   1445.10   0.000032    0.16  0.000007  (-0.002616 -0.000148 -0.000240)
 68:   1446.05   0.001084    5.48  0.000234  ( 0.000040 -0.006379 -0.013901)
 69:   1450.58   0.007488   37.84  0.001611  (-0.040137  0.000066  0.000003)
 70:   1456.69   0.004178   21.12  0.000895  (-0.000019 -0.027059 -0.012763)
 71:   1460.02   0.000583    2.95  0.000125  (-0.011155  0.000309  0.000250)
 72:   1461.84   0.004955   25.04  0.001058  ( 0.000253  0.025417  0.020290)
 73:   1463.78   0.000667    3.37  0.000142  ( 0.011927 -0.000033 -0.000022)
 74:   1471.71   0.000945    4.78  0.000200  ( 0.000076 -0.011524 -0.008222)
 75:   1474.24   0.005560   28.10  0.001177  (-0.034307  0.000005 -0.000015)
 76:   1480.29   0.000069    0.35  0.000015  (-0.000071 -0.003742 -0.000752)
 77:   1492.75   0.004961   25.07  0.001037  (-0.032203  0.000070  0.000018)
 78:   1736.09   0.000759    3.84  0.000137  ( 0.000015  0.011590  0.001481)
 79:   3068.94   0.000277    1.40  0.000028  (-0.002435 -0.001203  0.004563)
 80:   3069.03   0.009310   47.05  0.000947  ( 0.000348 -0.007928  0.029726)
 81:   3073.62   0.000393    1.98  0.000040  (-0.006270  0.000002  0.000738)
 82:   3073.78   0.002602   13.15  0.000264  (-0.000261  0.000164 -0.016251)
 83:   3076.41   0.013062   66.01  0.001325  ( 0.036400 -0.000022  0.000017)
 84:   3078.58   0.005336   26.97  0.000541  (-0.000007 -0.023249  0.000598)
 85:   3127.44   0.002934   14.83  0.000293  ( 0.000411 -0.015958 -0.006162)
 86:   3127.63   0.000522    2.64  0.000052  (-0.007150 -0.000933 -0.000373)
 87:   3165.02   0.000009    0.05  0.000001  ( 0.000443 -0.000308  0.000771)
 88:   3165.27   0.004830   24.41  0.000476  (-0.000027 -0.006474  0.020838)
 89:   3171.95   0.001143    5.77  0.000112  (-0.007059  0.000417 -0.007900)
 90:   3171.97   0.004210   21.28  0.000414  ( 0.002741  0.001051 -0.020139)
 91:   3173.07   0.012452   62.93  0.001225  ( 0.034986  0.000517 -0.000595)
 92:   3173.09   0.000606    3.06  0.000060  ( 0.005328 -0.004129  0.003759)
 93:   3175.04   0.000734    3.71  0.000072  ( 0.008312  0.001742  0.000164)
 94:   3175.49   0.012541   63.38  0.001232  (-0.000288  0.034987  0.002880)
 95:   3183.35   0.000362    1.83  0.000036  (-0.001209  0.005421  0.002162)
 96:   3183.47   0.010960   55.39  0.001074  (-0.000266 -0.030417 -0.012209)
 97:   3190.35   0.003537   17.88  0.000346  ( 0.018601 -0.000047 -0.000060)
 98:   3193.23   0.000216    1.09  0.000021  (-0.000178  0.002512 -0.003840)

* The epsilon (eps) is given for a Dirac delta lineshape.
** The dipole moment derivative (T) already includes vibrational overlap.

The first frequency considered to be a vibration is 6
The total number of vibrations considered is 93


--------------------------
THERMOCHEMISTRY AT 298.15K
--------------------------

Temperature         ... 298.15 K
Pressure            ... 1.00 atm
Total Mass          ... 180.29 AMU

Throughout the following assumptions are being made:
  (1) The electronic state is orbitally nondegenerate
  (2) There are no thermally accessible electronically excited states
  (3) Hindered rotations indicated by low frequency modes are not
      treated as such but are treated as vibrations and this may
      cause some error
  (4) All equations used are the standard statistical mechanics
      equations for an ideal gas
  (5) All vibrations are strictly harmonic

freq.      43.03  E(vib)   ...       0.53 
freq.      55.46  E(vib)   ...       0.52 
freq.      83.52  E(vib)   ...       0.48 
freq.     105.38  E(vib)   ...       0.45 
freq.     109.99  E(vib)   ...       0.45 
freq.     114.03  E(vib)   ...       0.44 
freq.     182.45  E(vib)   ...       0.37 
freq.     190.57  E(vib)   ...       0.36 
freq.     217.22  E(vib)   ...       0.34 
freq.     220.66  E(vib)   ...       0.33 
freq.     245.10  E(vib)   ...       0.31 
freq.     245.63  E(vib)   ...       0.31 
freq.     267.63  E(vib)   ...       0.29 
freq.     273.22  E(vib)   ...       0.29 
freq.     282.30  E(vib)   ...       0.28 
freq.     325.89  E(vib)   ...       0.24 
freq.     336.83  E(vib)   ...       0.24 
freq.     398.14  E(vib)   ...       0.20 
freq.     400.05  E(vib)   ...       0.19 
freq.     461.88  E(vib)   ...       0.16 
freq.     490.61  E(vib)   ...       0.15 
freq.     553.71  E(vib)   ...       0.12 
freq.     605.13  E(vib)   ...       0.10 
freq.     652.36  E(vib)   ...       0.08 
freq.     680.42  E(vib)   ...       0.08 
freq.     706.61  E(vib)   ...       0.07 
freq.     750.97  E(vib)   ...       0.06 
freq.     776.65  E(vib)   ...       0.05 
freq.     912.11  E(vib)   ...       0.03 
freq.     927.18  E(vib)   ...       0.03 
freq.     929.04  E(vib)   ...       0.03 
freq.     935.05  E(vib)   ...       0.03 
freq.     954.75  E(vib)   ...       0.03 
freq.     954.84  E(vib)   ...       0.03 
freq.     971.76  E(vib)   ...       0.03 
freq.    1036.59  E(vib)   ...       0.02 
freq.    1038.57  E(vib)   ...       0.02 
freq.    1058.95  E(vib)   ...       0.02 
freq.    1079.48  E(vib)   ...       0.02 
freq.    1129.59  E(vib)   ...       0.01 
freq.    1170.10  E(vib)   ...       0.01 
freq.    1170.34  E(vib)   ...       0.01 
freq.    1174.27  E(vib)   ...       0.01 
freq.    1190.84  E(vib)   ...       0.01 
freq.    1209.28  E(vib)   ...       0.01 
freq.    1274.02  E(vib)   ...       0.01 
freq.    1327.84  E(vib)   ...       0.01 
freq.    1341.59  E(vib)   ...       0.01 
freq.    1352.77  E(vib)   ...       0.01 
freq.    1352.98  E(vib)   ...       0.01 
freq.    1392.79  E(vib)   ...       0.00 
freq.    1396.28  E(vib)   ...       0.00 
freq.    1396.68  E(vib)   ...       0.00 
freq.    1399.24  E(vib)   ...       0.00 
freq.    1402.11  E(vib)   ...       0.00 
freq.    1403.74  E(vib)   ...       0.00 
freq.    1429.60  E(vib)   ...       0.00 
freq.    1430.50  E(vib)   ...       0.00 
freq.    1437.04  E(vib)   ...       0.00 
freq.    1437.75  E(vib)   ...       0.00 
freq.    1442.93  E(vib)   ...       0.00 
freq.    1445.10  E(vib)   ...       0.00 
freq.    1446.05  E(vib)   ...       0.00 
freq.    1450.58  E(vib)   ...       0.00 
freq.    1456.69  E(vib)   ...       0.00 
freq.    1460.02  E(vib)   ...       0.00 
freq.    1461.84  E(vib)   ...       0.00 
freq.    1463.78  E(vib)   ...       0.00 
freq.    1471.71  E(vib)   ...       0.00 
freq.    1474.24  E(vib)   ...       0.00 
freq.    1480.29  E(vib)   ...       0.00 
freq.    1492.75  E(vib)   ...       0.00 
freq.    1736.09  E(vib)   ...       0.00 
freq.    3068.94  E(vib)   ...       0.00 
freq.    3069.03  E(vib)   ...       0.00 
freq.    3073.62  E(vib)   ...       0.00 
freq.    3073.78  E(vib)   ...       0.00 
freq.    3076.41  E(vib)   ...       0.00 
freq.    3078.58  E(vib)   ...       0.00 
freq.    3127.44  E(vib)   ...       0.00 
freq.    3127.63  E(vib)   ...       0.00 
freq.    3165.02  E(vib)   ...       0.00 
freq.    3165.27  E(vib)   ...       0.00 
freq.    3171.95  E(vib)   ...       0.00 
freq.    3171.97  E(vib)   ...       0.00 
freq.    3173.07  E(vib)   ...       0.00 
freq.    3173.09  E(vib)   ...       0.00 
freq.    3175.04  E(vib)   ...       0.00 
freq.    3175.49  E(vib)   ...       0.00 
freq.    3183.35  E(vib)   ...       0.00 
freq.    3183.47  E(vib)   ...       0.00 
freq.    3190.35  E(vib)   ...       0.00 
freq.    3193.23  E(vib)   ...       0.00 

------------
INNER ENERGY
------------

The inner energy is: U= E(el) + E(ZPE) + E(vib) + E(rot) + E(trans)
    E(el)   - is the total energy from the electronic structure calculation
              = E(kin-el) + E(nuc-el) + E(el-el) + E(nuc-nuc)
    E(ZPE)  - the the zero temperature vibrational energy from the frequency calculation
    E(vib)  - the the finite temperature correction to E(ZPE) due to population
              of excited vibrational states
    E(rot)  - is the rotational thermal energy
    E(trans)- is the translational thermal energy

Summary of contributions to the inner energy U:
Electronic energy                ...   -540.19322729 Eh
Zero point energy                ...      0.29728246 Eh     186.55 kcal/mol
Thermal vibrational correction   ...      0.01266844 Eh       7.95 kcal/mol
Thermal rotational correction    ...      0.00141627 Eh       0.89 kcal/mol
Thermal translational correction ...      0.00141627 Eh       0.89 kcal/mol
-----------------------------------------------------------------------
Total thermal energy                   -539.88044384 Eh


Summary of corrections to the electronic energy:
(perhaps to be used in another calculation)
Total thermal correction                  0.01550099 Eh       9.73 kcal/mol
Non-thermal (ZPE) correction              0.29728246 Eh     186.55 kcal/mol
-----------------------------------------------------------------------
Total correction                          0.31278345 Eh     196.27 kcal/mol


--------
ENTHALPY
--------

The enthalpy is H = U + kB*T
                kB is Boltzmann's constant
Total free energy                 ...   -539.88044384 Eh 
Thermal Enthalpy correction       ...      0.00094421 Eh       0.59 kcal/mol
-----------------------------------------------------------------------
Total Enthalpy                    ...   -539.87949963 Eh


Note: Only C1 symmetry has been detected, increase convergence thresholds 
      if your molecule has a higher symmetry. Symmetry factor of 1.0 is   
      used for the rotational entropy correction. 
 

Note: Rotational entropy computed according to Herzberg 
Infrared and Raman Spectra, Chapter V,1, Van Nostrand Reinhold, 1945 
Point Group:  C1, Symmetry Number:   1  
Rotational constants in cm-1:     0.047084     0.016425     0.014487 

Vibrational entropy computed according to the QRRHO of S. Grimme
Chem.Eur.J. 2012 18 9955


-------
ENTROPY
-------

The entropy contributions are T*S = T*(S(el)+S(vib)+S(rot)+S(trans))
     S(el)   - electronic entropy
     S(vib)  - vibrational entropy
     S(rot)  - rotational entropy
     S(trans)- translational entropy
The entropies will be listed as multiplied by the temperature to get
units of energy

Electronic entropy                ...      0.00000000 Eh      0.00 kcal/mol
Vibrational entropy               ...      0.02219538 Eh     13.93 kcal/mol
Rotational entropy                ...      0.01489232 Eh      9.35 kcal/mol
Translational entropy             ...      0.01970603 Eh     12.37 kcal/mol
-----------------------------------------------------------------------
Final entropy term                ...      0.05679373 Eh     35.64 kcal/mol

In case the symmetry of your molecule has not been determined correctly
or in case you have a reason to use a different symmetry number we print 
out the resulting rotational entropy values for sn=1,12 :
 --------------------------------------------------------
|  sn= 1 | S(rot)=       0.01489232 Eh      9.35 kcal/mol|
|  sn= 2 | S(rot)=       0.01423786 Eh      8.93 kcal/mol|
|  sn= 3 | S(rot)=       0.01385503 Eh      8.69 kcal/mol|
|  sn= 4 | S(rot)=       0.01358341 Eh      8.52 kcal/mol|
|  sn= 5 | S(rot)=       0.01337272 Eh      8.39 kcal/mol|
|  sn= 6 | S(rot)=       0.01320057 Eh      8.28 kcal/mol|
|  sn= 7 | S(rot)=       0.01305503 Eh      8.19 kcal/mol|
|  sn= 8 | S(rot)=       0.01292895 Eh      8.11 kcal/mol|
|  sn= 9 | S(rot)=       0.01281774 Eh      8.04 kcal/mol|
|  sn=10 | S(rot)=       0.01271826 Eh      7.98 kcal/mol|
|  sn=11 | S(rot)=       0.01262827 Eh      7.92 kcal/mol|
|  sn=12 | S(rot)=       0.01254612 Eh      7.87 kcal/mol|
 --------------------------------------------------------


-------------------
GIBBS FREE ENERGY
-------------------

The Gibbs free energy is G = H - T*S

Total enthalpy                    ...   -539.87949963 Eh 
Total entropy correction          ...     -0.05679373 Eh    -35.64 kcal/mol
-----------------------------------------------------------------------
Final Gibbs free energy         ...   -539.93629336 Eh

For completeness - the Gibbs free energy minus the electronic energy
G-E(el)                           ...      0.25693393 Eh    161.23 kcal/mol


Timings for individual modules:

Sum of individual times         ...     6677.827 sec (= 111.297 min)
GTO integral calculation        ...        3.343 sec (=   0.056 min)   0.1 %
SCF iterations                  ...     3294.455 sec (=  54.908 min)  49.3 %
SCF Gradient evaluation         ...      881.433 sec (=  14.691 min)  13.2 %
Geometry relaxation             ...        0.621 sec (=   0.010 min)   0.0 %
Analytical frequency calculation...     2497.976 sec (=  41.633 min)  37.4 %
                             ****ORCA TERMINATED NORMALLY****
TOTAL RUN TIME: 0 days 1 hours 51 minutes 19 seconds 102 msec
