
                                 *****************
                                 * O   R   C   A *
                                 *****************

                                            #,                                       
                                            ###                                      
                                            ####                                     
                                            #####                                    
                                            ######                                   
                                           ########,                                 
                                     ,,################,,,,,                         
                               ,,#################################,,                 
                          ,,##########################################,,             
                       ,#########################################, ''#####,          
                    ,#############################################,,   '####,        
                  ,##################################################,,,,####,       
                ,###########''''           ''''###############################       
              ,#####''   ,,,,##########,,,,          '''####'''          '####       
            ,##' ,,,,###########################,,,                        '##       
           ' ,,###''''                  '''############,,,                           
         ,,##''                                '''############,,,,        ,,,,,,###''
      ,#''                                            '''#######################'''  
     '                                                          ''''####''''         
             ,#######,   #######,   ,#######,      ##                                
            ,#'     '#,  ##    ##  ,#'     '#,    #''#        ######   ,####,        
            ##       ##  ##   ,#'  ##            #'  '#       #        #'  '#        
            ##       ##  #######   ##           ,######,      #####,   #    #        
            '#,     ,#'  ##    ##  '#,     ,#' ,#      #,         ##   #,  ,#        
             '#######'   ##     ##  '#######'  #'      '#     #####' # '####'        



                  #######################################################
                  #                        -***-                        #
                  #          Department of theory and spectroscopy      #
                  #    Directorship and core code : Frank Neese         #
                  #        Max Planck Institute fuer Kohlenforschung    #
                  #                Kaiser Wilhelm Platz 1               #
                  #                 D-45470 Muelheim/Ruhr               #
                  #                      Germany                        #
                  #                                                     #
                  #                  All rights reserved                #
                  #                        -***-                        #
                  #######################################################


                         Program Version 5.0.4 -  RELEASE  -


 With contributions from (in alphabetic order):
   Daniel Aravena         : Magnetic Suceptibility
   Michael Atanasov       : Ab Initio Ligand Field Theory (pilot matlab implementation)
   Alexander A. Auer      : GIAO ZORA, VPT2 properties, NMR spectrum
   Ute Becker             : Parallelization
   Giovanni Bistoni       : ED, misc. LED, open-shell LED, HFLD
   Martin Brehm           : Molecular dynamics
   Dmytro Bykov           : SCF Hessian
   Vijay G. Chilkuri      : MRCI spin determinant printing, contributions to CSF-ICE
   Dipayan Datta          : RHF DLPNO-CCSD density
   Achintya Kumar Dutta   : EOM-CC, STEOM-CC
   Dmitry Ganyushin       : Spin-Orbit,Spin-Spin,Magnetic field MRCI
   Miquel Garcia          : C-PCM and meta-GGA Hessian, CC/C-PCM, Gaussian charge scheme
   Yang Guo               : DLPNO-NEVPT2, F12-NEVPT2, CIM, IAO-localization
   Andreas Hansen         : Spin unrestricted coupled pair/coupled cluster methods
   Benjamin Helmich-Paris : MC-RPA, TRAH-SCF, COSX integrals
   Lee Huntington         : MR-EOM, pCC
   Robert Izsak           : Overlap fitted RIJCOSX, COSX-SCS-MP3, EOM
   Marcus Kettner         : VPT2
   Christian Kollmar      : KDIIS, OOCD, Brueckner-CCSD(T), CCSD density, CASPT2, CASPT2-K
   Simone Kossmann        : Meta GGA functionals, TD-DFT gradient, OOMP2, MP2 Hessian
   Martin Krupicka        : Initial AUTO-CI
   Lucas Lang             : DCDCAS
   Marvin Lechner         : AUTO-CI (C++ implementation), FIC-MRCC
   Dagmar Lenk            : GEPOL surface, SMD
   Dimitrios Liakos       : Extrapolation schemes; Compound Job, initial MDCI parallelization
   Dimitrios Manganas     : Further ROCIS development; embedding schemes
   Dimitrios Pantazis     : SARC Basis sets
   Anastasios Papadopoulos: AUTO-CI, single reference methods and gradients
   Taras Petrenko         : DFT Hessian,TD-DFT gradient, ASA, ECA, R-Raman, ABS, FL, XAS/XES, NRVS
   Peter Pinski           : DLPNO-MP2, DLPNO-MP2 Gradient
   Christoph Reimann      : Effective Core Potentials
   Marius Retegan         : Local ZFS, SOC
   Christoph Riplinger    : Optimizer, TS searches, QM/MM, DLPNO-CCSD(T), (RO)-DLPNO pert. Triples
   Tobias Risthaus        : Range-separated hybrids, TD-DFT gradient, RPA, STAB
   Michael Roemelt        : Original ROCIS implementation
   Masaaki Saitow         : Open-shell DLPNO-CCSD energy and density
   Barbara Sandhoefer     : DKH picture change effects
   Avijit Sen             : IP-ROCIS
   Kantharuban Sivalingam : CASSCF convergence, NEVPT2, FIC-MRCI
   Bernardo de Souza      : ESD, SOC TD-DFT
   Georgi Stoychev        : AutoAux, RI-MP2 NMR, DLPNO-MP2 response
   Willem Van den Heuvel  : Paramagnetic NMR
   Boris Wezisla          : Elementary symmetry handling
   Frank Wennmohs         : Technical directorship


 We gratefully acknowledge several colleagues who have allowed us to
 interface, adapt or use parts of their codes:
   Stefan Grimme, W. Hujo, H. Kruse, P. Pracht,  : VdW corrections, initial TS optimization,
                  C. Bannwarth, S. Ehlert          DFT functionals, gCP, sTDA/sTD-DF
   Ed Valeev, F. Pavosevic, A. Kumar             : LibInt (2-el integral package), F12 methods
   Garnet Chan, S. Sharma, J. Yang, R. Olivares  : DMRG
   Ulf Ekstrom                                   : XCFun DFT Library
   Mihaly Kallay                                 : mrcc  (arbitrary order and MRCC methods)
   Jiri Pittner, Ondrej Demel                    : Mk-CCSD
   Frank Weinhold                                : gennbo (NPA and NBO analysis)
   Christopher J. Cramer and Donald G. Truhlar   : smd solvation model
   Lars Goerigk                                  : TD-DFT with DH, B97 family of functionals
   V. Asgeirsson, H. Jonsson                     : NEB implementation
   FAccTs GmbH                                   : IRC, NEB, NEB-TS, DLPNO-Multilevel, CI-OPT
                                                   MM, QMMM, 2- and 3-layer-ONIOM, Crystal-QMMM,
                                                   LR-CPCM, SF, NACMEs, symmetry and pop. for TD-DFT,
                                                   nearIR, NL-DFT gradient (VV10), updates on ESD,
                                                   ML-optimized integration grids
   S Lehtola, MJT Oliveira, MAL Marques          : LibXC Library
   Liviu Ungur et al                             : ANISO software


 Your calculation uses the libint2 library for the computation of 2-el integrals
 For citations please refer to: http://libint.valeyev.net

 Your ORCA version has been built with support for libXC version: 5.1.0
 For citations please refer to: https://tddft.org/programs/libxc/

 This ORCA versions uses:
   CBLAS   interface :  Fast vector & matrix operations
   LAPACKE interface :  Fast linear algebra routines
   SCALAPACK package :  Parallel linear algebra routines
   Shared memory     :  Shared parallel matrices
   BLAS/LAPACK       :  OpenBLAS 0.3.15  USE64BITINT DYNAMIC_ARCH NO_AFFINITY SkylakeX SINGLE_THREADED
        Core in use  :  SkylakeX
   Copyright (c) 2011-2014, The OpenBLAS Project




***************************************
The coordinates will be read from file: 6_deprot_aq_7.xyz
***************************************


Your calculation utilizes the atom-pairwise dispersion correction
based on tight binding partial charges (D4)
Cite in your paper:
E.Caldeweyher, C.Bannwarth, S.Grimme, J.Chem.Phys., (2017), 147, 034112.
E.Caldeweyher, S.Ehlert, A.Hansen, H.Neugebauer, S.Grimme, J.Chem.Phys., (2018), in progress.
   

XCFun DFT library Copyright 2009-2010 Ulf Ekstrom and contributors.
See http://admol.org/xcfun for more information.
This is free software; see the source code for copying conditions.
There is ABSOLUTELY NO WARRANTY; not even for MERCHANTABILITY or FITNESS FOR A PARTICULAR PURPOSE.
For details see the documentation.
Scientific users of this library should cite U. Ekstrom, L. Visscher, R. Bast, A. J. Thorvaldsen and K. Ruud;
J.Chem.Theor.Comp. 2010, DOI: 10.1021/ct100117s
XCFun Version 0.99 

================================================================================

----- Orbital basis set information -----
Your calculation utilizes the basis: def2-SVP
   F. Weigend and R. Ahlrichs, Phys. Chem. Chem. Phys. 7, 3297 (2005).

----- AuxJ basis set information -----
Your calculation utilizes the auxiliary basis: def2/J
   F. Weigend, Phys. Chem. Chem. Phys. 8, 1057 (2006).

================================================================================
                                        WARNINGS
                       Please study these warnings very carefully!
================================================================================


WARNING: Geometry Optimization
  ===> : Switching off AutoStart
         For restart on a previous wavefunction, please use MOREAD

INFO   : the flag for use of the SHARK integral package has been found!

================================================================================
                                       INPUT FILE
================================================================================
NAME = 6_deprot_aq_7.inp
|  1> # ORCA 5.0.4 - /users/bwb16179/postgrad/2024_03/DFT_Crest_Conformers/Opt/deprot/6_deprot_aq_7.inp # write input file
|  2> # Basic Mode
|  3> #
|  4> ! Opt Freq wB97X Def2-SVP D4 SlowConv TightSCF Defgrid2 Def2/J RIJCOSX CPCM(Water)
|  5> 
|  6> 
|  7> 
|  8> %maxcore 4500
|  9> 
| 10> %geom
| 11> Maxiter 150
| 12> END
| 13> 
| 14> * xyzfile 0 1 6_deprot_aq_7.xyz
| 15> 
| 16>                          ****END OF INPUT****
================================================================================

                       *****************************
                       * Geometry Optimization Run *
                       *****************************

Geometry optimization settings:
Update method            Update   .... BFGS
Choice of coordinates    CoordSys .... Z-matrix Internals
Initial Hessian          InHess   .... Almoef's Model

Convergence Tolerances:
Energy Change            TolE     ....  5.0000e-06 Eh
Max. Gradient            TolMAXG  ....  3.0000e-04 Eh/bohr
RMS Gradient             TolRMSG  ....  1.0000e-04 Eh/bohr
Max. Displacement        TolMAXD  ....  4.0000e-03 bohr
RMS Displacement         TolRMSD  ....  2.0000e-03 bohr
Strict Convergence                ....  False
------------------------------------------------------------------------------
                        ORCA OPTIMIZATION COORDINATE SETUP
------------------------------------------------------------------------------

The optimization will be done in new redundant internal coordinates
Making redundant internal coordinates   ...  (new redundants) done
Evaluating the initial hessian          ...  (Almloef) done
Evaluating the coordinates              ...  done
Calculating the B-matrix                .... done
Calculating the G-matrix                .... done
Diagonalizing the G-matrix              .... done
Small eigenvalue found = 1.504e-02
Small eigenvalue found = 1.815e-02
Small eigenvalue found = 2.144e-02
The first mode is                       ....   77
The number of degrees of freedom        ....   93

    -----------------------------------------------------------------
                    Redundant Internal Coordinates


    -----------------------------------------------------------------
         Definition                    Initial Value    Approx d2E/dq
    -----------------------------------------------------------------
      1. B(C   1,N   0)                  1.3576         0.630327   
      2. B(N   2,C   1)                  1.3576         0.630330   
      3. B(C   3,N   2)                  1.3821         0.576111   
      4. B(C   4,N   0)                  1.3821         0.576118   
      5. B(C   4,C   3)                  1.3633         0.689093   
      6. B(C   5,N   0)                  1.4464         0.454795   
      7. B(C   6,N   2)                  1.4464         0.454798   
      8. B(C   7,C   5)                  1.5306         0.372717   
      9. B(H   8,C   5)                  1.0975         0.350376   
     10. B(C   9,C   5)                  1.5286         0.375560   
     11. B(H  10,C   6)                  1.0975         0.350368   
     12. B(C  11,C   6)                  1.5286         0.375564   
     13. B(C  12,C   6)                  1.5306         0.372720   
     14. B(C  13,C   3)                  1.4900         0.432651   
     15. B(C  14,C   4)                  1.4900         0.432643   
     16. B(H  15,C   9)                  1.0872         0.363816   
     17. B(H  16,C   9)                  1.0877         0.363094   
     18. B(H  17,C   9)                  1.0861         0.365358   
     19. B(H  18,C   7)                  1.0875         0.363476   
     20. B(H  19,C   7)                  1.0870         0.364069   
     21. B(H  20,C   7)                  1.0870         0.364065   
     22. B(H  21,C  12)                  1.0870         0.364058   
     23. B(H  22,C  12)                  1.0875         0.363478   
     24. B(H  23,C  12)                  1.0870         0.364068   
     25. B(H  24,C  11)                  1.0877         0.363093   
     26. B(H  25,C  11)                  1.0861         0.365347   
     27. B(H  26,C  11)                  1.0872         0.363822   
     28. B(H  27,C  14)                  1.0913         0.358324   
     29. B(H  28,C  14)                  1.0876         0.363336   
     30. B(H  29,C  14)                  1.0874         0.363529   
     31. B(H  30,C  13)                  1.0913         0.358336   
     32. B(H  31,C  13)                  1.0876         0.363343   
     33. B(H  32,C  13)                  1.0874         0.363522   
     34. A(C   4,N   0,C   5)          129.4048         0.400208   
     35. A(C   1,N   0,C   5)          119.0825         0.406607   
     36. A(C   1,N   0,C   4)          111.4957         0.424068   
     37. A(N   0,C   1,N   2)          104.2375         0.430958   
     38. A(C   1,N   2,C   6)          119.0818         0.406607   
     39. A(C   1,N   2,C   3)          111.4956         0.424068   
     40. A(C   3,N   2,C   6)          129.4057         0.400207   
     41. A(N   2,C   3,C  13)          125.6320         0.399263   
     42. A(C   4,C   3,C  13)          127.9727         0.414778   
     43. A(N   2,C   3,C   4)          106.3836         0.433733   
     44. A(N   0,C   4,C   3)          106.3836         0.433734   
     45. A(N   0,C   4,C  14)          125.6321         0.399263   
     46. A(C   3,C   4,C  14)          127.9725         0.414777   
     47. A(N   0,C   5,C   9)          112.9035         0.373825   
     48. A(H   8,C   5,C   9)          108.4050         0.323146   
     49. A(C   7,C   5,H   8)          107.8455         0.322744   
     50. A(C   7,C   5,C   9)          111.7580         0.363538   
     51. A(N   0,C   5,H   8)          103.5372         0.331502   
     52. A(N   0,C   5,C   7)          111.8814         0.373335   
     53. A(H  10,C   6,C  11)          108.4080         0.323145   
     54. A(N   2,C   6,C  11)          112.9002         0.373826   
     55. A(C  11,C   6,C  12)          111.7540         0.363539   
     56. A(H  10,C   6,C  12)          107.8486         0.322743   
     57. A(N   2,C   6,C  12)          111.8831         0.373336   
     58. A(N   2,C   6,H  10)          103.5375         0.331501   
     59. A(H  19,C   7,H  20)          108.2793         0.291843   
     60. A(H  18,C   7,H  20)          108.6199         0.291768   
     61. A(C   5,C   7,H  20)          111.6983         0.324780   
     62. A(H  18,C   7,H  19)          108.6948         0.291769   
     63. A(C   5,C   7,H  19)          109.6660         0.324781   
     64. A(C   5,C   7,H  18)          109.8174         0.324694   
     65. A(H  16,C   9,H  17)          108.9241         0.291883   
     66. A(C   5,C   9,H  16)          110.0947         0.325043   
     67. A(H  15,C   9,H  16)          108.4681         0.291688   
     68. A(H  15,C   9,H  17)          108.1980         0.291974   
     69. A(C   5,C   9,H  15)          109.4550         0.325149   
     70. A(C   5,C   9,H  17)          111.6272         0.325376   
     71. A(H  25,C  11,H  26)          108.1981         0.291973   
     72. A(H  24,C  11,H  26)          108.4675         0.291689   
     73. A(H  24,C  11,H  25)          108.9254         0.291881   
     74. A(C   6,C  11,H  25)          111.6302         0.325374   
     75. A(C   6,C  11,H  24)          110.0946         0.325044   
     76. A(C   6,C  11,H  26)          109.4511         0.325151   
     77. A(H  22,C  12,H  23)          108.6949         0.291769   
     78. A(H  21,C  12,H  23)          108.2793         0.291842   
     79. A(C   6,C  12,H  23)          109.6655         0.324781   
     80. A(H  21,C  12,H  22)          108.6208         0.291768   
     81. A(C   6,C  12,H  22)          109.8155         0.324694   
     82. A(C   6,C  12,H  21)          111.6996         0.324779   
     83. A(H  31,C  13,H  32)          107.8520         0.291683   
     84. A(H  30,C  13,H  32)          108.4570         0.291047   
     85. A(H  30,C  13,H  31)          108.1230         0.291025   
     86. A(C   3,C  13,H  31)          109.6865         0.332764   
     87. A(C   3,C  13,H  30)          111.0950         0.331999   
     88. A(C   3,C  13,H  32)          111.5098         0.332791   
     89. A(H  28,C  14,H  29)          107.8520         0.291683   
     90. A(H  27,C  14,H  29)          108.4569         0.291047   
     91. A(C   4,C  14,H  29)          111.5099         0.332791   
     92. A(H  27,C  14,H  28)          108.1231         0.291022   
     93. A(C   4,C  14,H  28)          109.6872         0.332762   
     94. A(C   4,C  14,H  27)          111.0942         0.331997   
     95. D(N   2,C   1,N   0,C   4)     -0.2122         0.029221   
     96. D(N   2,C   1,N   0,C   5)   -178.8517         0.029221   
     97. D(C   3,N   2,C   1,N   0)     -0.2072         0.029222   
     98. D(C   6,N   2,C   1,N   0)   -178.8491         0.029222   
     99. D(C  13,C   3,N   2,C   1)    179.3791         0.026598   
    100. D(C   4,C   3,N   2,C   6)    179.0089         0.026598   
    101. D(C  13,C   3,N   2,C   6)     -2.1571         0.026598   
    102. D(C   4,C   3,N   2,C   1)      0.5450         0.026598   
    103. D(C  14,C   4,C   3,N   2)   -179.4332         0.033357   
    104. D(C  14,C   4,N   0,C   5)     -2.1606         0.026598   
    105. D(N   0,C   4,C   3,N   2)     -0.6395         0.033357   
    106. D(N   0,C   4,C   3,C  13)   -179.4373         0.033357   
    107. D(C   3,C   4,N   0,C   5)    179.0094         0.026598   
    108. D(C   3,C   4,N   0,C   1)      0.5482         0.026598   
    109. D(C  14,C   4,C   3,C  13)      1.7690         0.033357   
    110. D(C  14,C   4,N   0,C   1)    179.3783         0.026598   
    111. D(H   8,C   5,N   0,C   4)    172.8618         0.017650   
    112. D(C   9,C   5,N   0,C   4)     55.8439         0.017650   
    113. D(H   8,C   5,N   0,C   1)     -8.7765         0.017650   
    114. D(C   9,C   5,N   0,C   1)   -125.7945         0.017650   
    115. D(C   7,C   5,N   0,C   1)    107.0964         0.017650   
    116. D(C   7,C   5,N   0,C   4)    -71.2652         0.017650   
    117. D(C  12,C   6,N   2,C   3)    -71.2564         0.017650   
    118. D(C  11,C   6,N   2,C   3)     55.8460         0.017650   
    119. D(C  11,C   6,N   2,C   1)   -125.7896         0.017650   
    120. D(C  12,C   6,N   2,C   1)    107.1080         0.017650   
    121. D(H  10,C   6,N   2,C   3)    172.8660         0.017650   
    122. D(H  10,C   6,N   2,C   1)     -8.7695         0.017650   
    123. D(H  18,C   7,C   5,H   8)     62.0175         0.011095   
    124. D(H  18,C   7,C   5,N   0)    -51.2047         0.011095   
    125. D(H  18,C   7,C   5,C   9)   -178.9289         0.011095   
    126. D(H  20,C   7,C   5,C   9)    -58.3541         0.011095   
    127. D(H  20,C   7,C   5,H   8)   -177.4077         0.011095   
    128. D(H  19,C   7,C   5,C   9)     61.6913         0.011095   
    129. D(H  20,C   7,C   5,N   0)     69.3701         0.011095   
    130. D(H  19,C   7,C   5,H   8)    -57.3624         0.011095   
    131. D(H  19,C   7,C   5,N   0)   -170.5845         0.011095   
    132. D(H  17,C   9,C   5,H   8)    170.4952         0.011256   
    133. D(H  17,C   9,C   5,C   7)     51.7735         0.011256   
    134. D(H  17,C   9,C   5,N   0)    -75.4008         0.011256   
    135. D(H  16,C   9,C   5,H   8)    -68.4044         0.011256   
    136. D(H  16,C   9,C   5,C   7)    172.8739         0.011256   
    137. D(H  16,C   9,C   5,N   0)     45.6995         0.011256   
    138. D(H  15,C   9,C   5,H   8)     50.7367         0.011256   
    139. D(H  15,C   9,C   5,C   7)    -67.9850         0.011256   
    140. D(H  15,C   9,C   5,N   0)    164.8407         0.011256   
    141. D(H  26,C  11,C   6,H  10)     50.7306         0.011256   
    142. D(H  26,C  11,C   6,N   2)    164.8349         0.011256   
    143. D(H  25,C  11,C   6,C  12)     51.7635         0.011256   
    144. D(H  25,C  11,C   6,H  10)    170.4885         0.011256   
    145. D(H  25,C  11,C   6,N   2)    -75.4072         0.011256   
    146. D(H  24,C  11,C   6,C  12)    172.8675         0.011256   
    147. D(H  24,C  11,C   6,H  10)    -68.4075         0.011256   
    148. D(H  26,C  11,C   6,C  12)    -67.9944         0.011256   
    149. D(H  24,C  11,C   6,N   2)     45.6968         0.011256   
    150. D(H  23,C  12,C   6,N   2)   -170.5796         0.011096   
    151. D(H  22,C  12,C   6,C  11)   -178.9190         0.011096   
    152. D(H  22,C  12,C   6,H  10)     62.0242         0.011096   
    153. D(H  22,C  12,C   6,N   2)    -51.2011         0.011096   
    154. D(H  21,C  12,C   6,C  11)    -58.3434         0.011096   
    155. D(H  21,C  12,C   6,H  10)   -177.4002         0.011096   
    156. D(H  23,C  12,C   6,H  10)    -57.3543         0.011096   
    157. D(H  21,C  12,C   6,N   2)     69.3745         0.011096   
    158. D(H  23,C  12,C   6,C  11)     61.7025         0.011096   
    159. D(H  32,C  13,C   3,C   4)   -137.3846         0.013821   
    160. D(H  32,C  13,C   3,N   2)     44.0344         0.013821   
    161. D(H  31,C  13,C   3,C   4)    -17.9803         0.013821   
    162. D(H  31,C  13,C   3,N   2)    163.4387         0.013821   
    163. D(H  30,C  13,C   3,C   4)    101.4996         0.013821   
    164. D(H  30,C  13,C   3,N   2)    -77.0813         0.013821   
    165. D(H  29,C  14,C   4,C   3)   -137.4404         0.013820   
    166. D(H  29,C  14,C   4,N   0)     43.9835         0.013820   
    167. D(H  28,C  14,C   4,C   3)    -18.0357         0.013820   
    168. D(H  28,C  14,C   4,N   0)    163.3883         0.013820   
    169. D(H  27,C  14,C   4,C   3)    101.4445         0.013820   
    170. D(H  27,C  14,C   4,N   0)    -77.1316         0.013820   
    -----------------------------------------------------------------

Number of atoms                         .... 33
Number of degrees of freedom            .... 170

         *************************************************************
         *                GEOMETRY OPTIMIZATION CYCLE   1            *
         *************************************************************
---------------------------------
CARTESIAN COORDINATES (ANGSTROEM)
---------------------------------
  N     -1.071246   -0.386300   -0.024181
  C      0.000044   -1.219862    0.000123
  N      1.071274   -0.386218    0.024232
  C      0.681547    0.939709    0.010620
  C     -0.681622    0.939656   -0.010766
  C     -2.402408   -0.952162   -0.028855
  C      2.402468   -0.951998    0.028981
  C     -3.104648   -0.769473    1.318846
  H     -2.224757   -2.025538   -0.172750
  C     -3.260207   -0.445293   -1.188058
  H      2.224885   -2.025379    0.172964
  C      3.260162   -0.444891    1.188154
  C      3.104802   -0.769302   -1.318668
  C      1.597904    2.114209    0.043000
  C     -1.598066    2.114086   -0.043407
  H     -4.130702   -1.086631   -1.301819
  H     -2.689985   -0.470892   -2.114008
  H     -3.606736    0.569467   -1.015743
  H     -2.460561   -1.122062    2.120969
  H     -4.025809   -1.346429    1.332546
  H     -3.352162    0.272481    1.505071
  H      3.352358    0.272648   -1.504886
  H      2.460746   -1.121892   -2.120813
  H      4.025949   -1.346285   -1.332307
  H      2.689880   -0.470372    2.114071
  H      3.606727    0.569845    1.015716
  H      4.130631   -1.086231    1.302054
  H     -1.983259    2.283855   -1.050304
  H     -1.060798    3.006839    0.268253
  H     -2.441480    1.980520    0.629865
  H      1.983848    2.283651    1.049654
  H      1.060306    3.007016   -0.267919
  H      2.440817    1.980975   -0.630973

----------------------------
CARTESIAN COORDINATES (A.U.)
----------------------------
  NO LB      ZA    FRAG     MASS         X           Y           Z
   0 N     7.0000    0    14.007   -2.024362   -0.730001   -0.045695
   1 C     6.0000    0    12.011    0.000084   -2.305206    0.000233
   2 N     7.0000    0    14.007    2.024415   -0.729846    0.045792
   3 C     6.0000    0    12.011    1.287938    1.775793    0.020068
   4 C     6.0000    0    12.011   -1.288079    1.775692   -0.020345
   5 C     6.0000    0    12.011   -4.539893   -1.799326   -0.054529
   6 C     6.0000    0    12.011    4.540007   -1.799016    0.054766
   7 C     6.0000    0    12.011   -5.866935   -1.454093    2.492257
   8 H     1.0000    0     1.008   -4.204182   -3.827712   -0.326449
   9 C     6.0000    0    12.011   -6.160899   -0.841482   -2.245104
  10 H     1.0000    0     1.008    4.204424   -3.827412    0.326854
  11 C     6.0000    0    12.011    6.160813   -0.840722    2.245286
  12 C     6.0000    0    12.011    5.867226   -1.453771   -2.491921
  13 C     6.0000    0    12.011    3.019600    3.995276    0.081259
  14 C     6.0000    0    12.011   -3.019908    3.995044   -0.082028
  15 H     1.0000    0     1.008   -7.805895   -2.053434   -2.460082
  16 H     1.0000    0     1.008   -5.083336   -0.889856   -3.994897
  17 H     1.0000    0     1.008   -6.815744    1.076137   -1.919475
  18 H     1.0000    0     1.008   -4.649787   -2.120390    4.008051
  19 H     1.0000    0     1.008   -7.607677   -2.544383    2.518147
  20 H     1.0000    0     1.008   -6.334668    0.514915    2.844173
  21 H     1.0000    0     1.008    6.335039    0.515231   -2.843823
  22 H     1.0000    0     1.008    4.650136   -2.120068   -4.007755
  23 H     1.0000    0     1.008    7.607941   -2.544110   -2.517695
  24 H     1.0000    0     1.008    5.083137   -0.888874    3.995016
  25 H     1.0000    0     1.008    6.815725    1.076851    1.919425
  26 H     1.0000    0     1.008    7.805761   -2.052678    2.460525
  27 H     1.0000    0     1.008   -3.747816    4.315860   -1.984787
  28 H     1.0000    0     1.008   -2.004618    5.682101    0.506925
  29 H     1.0000    0     1.008   -4.613729    3.742640    1.190272
  30 H     1.0000    0     1.008    3.748930    4.315475    1.983559
  31 H     1.0000    0     1.008    2.003689    5.682437   -0.506293
  32 H     1.0000    0     1.008    4.612475    3.743500   -1.192367

--------------------------------
INTERNAL COORDINATES (ANGSTROEM)
--------------------------------
 N      0   0   0     0.000000000000     0.00000000     0.00000000
 C      1   0   0     1.357601180530     0.00000000     0.00000000
 N      2   1   0     1.357599904523   104.23747280     0.00000000
 C      3   2   1     1.382083398297   111.49555577   359.79277261
 C      4   3   2     1.363336911275   106.38361984     0.54502747
 C      1   2   3     1.446448367815   119.08251086   181.14828642
 C      3   2   1     1.446446486136   119.08178189   181.15091039
 C      6   1   2     1.530625840288   111.88141503   107.09638791
 H      6   1   2     1.097451954609   103.53717003   351.22345629
 C      6   1   2     1.528557205078   112.90352146   234.20549188
 H      7   3   2     1.097457990575   103.53749913   351.23047023
 C      7   3   2     1.528554317991   112.90023101   234.21044333
 C      7   3   2     1.530623655495   111.88314704   107.10802347
 C      4   3   2     1.490036154773   125.63197755   179.37906361
 C      5   4   3     1.490041132401   127.97252099   180.56683110
 H     10   6   1     1.087205611335   109.45496250   164.84068296
 H     10   6   1     1.087746287920   110.09471919    45.69951395
 H     10   6   1     1.086054062907   111.62720677   284.59915307
 H      8   6   1     1.087459808062   109.81744399   308.79528425
 H      8   6   1     1.087016292814   109.66604717   189.41547501
 H      8   6   1     1.087019376351   111.69825614    69.37009900
 H     13   7   3     1.087024523174   111.69963870    69.37453343
 H     13   7   3     1.087458008012   109.81554315   308.79890444
 H     13   7   3     1.087017059976   109.66553848   189.42042900
 H     12   7   3     1.087746645606   110.09462215    45.69680926
 H     12   7   3     1.086062461324   111.63024629   284.59281136
 H     12   7   3     1.087200873208   109.45107137   164.83489382
 H     15   5   4     1.091345759904   111.09420534   101.44445791
 H     15   5   4     1.087564428128   109.68715012   341.96434964
 H     15   5   4     1.087420093207   111.50986539   222.55956872
 H     14   4   3     1.091336883454   111.09495209   282.91867302
 H     14   4   3     1.087559147659   109.68646155   163.43874583
 H     14   4   3     1.087425591788   111.50980770    44.03444197

---------------------------
INTERNAL COORDINATES (A.U.)
---------------------------
 N      0   0   0     0.000000000000     0.00000000     0.00000000
 C      1   0   0     2.565494430290     0.00000000     0.00000000
 N      2   1   0     2.565492018986   104.23747280     0.00000000
 C      3   2   1     2.611759117021   111.49555577   359.79277261
 C      4   3   2     2.576333390576   106.38361984     0.54502747
 C      1   2   3     2.733391282028   119.08251086   181.14828642
 C      3   2   1     2.733387726169   119.08178189   181.15091039
 C      6   1   2     2.892463651648   111.88141503   107.09638791
 H      6   1   2     2.073883639347   103.53717003   351.22345629
 C      6   1   2     2.888554497629   112.90352146   234.20549188
 H      7   3   2     2.073895045671   103.53749913   351.23047023
 C      7   3   2     2.888549041826   112.90023101   234.21044333
 C      7   3   2     2.892459522987   111.88314704   107.10802347
 C      4   3   2     2.815760262162   125.63197755   179.37906361
 C      5   4   3     2.815769668515   127.97252099   180.56683110
 H     10   6   1     2.054520856686   109.45496250   164.84068296
 H     10   6   1     2.055542587358   110.09471919    45.69951395
 H     10   6   1     2.052344745528   111.62720677   284.59915307
 H      8   6   1     2.055001218884   109.81744399   308.79528425
 H      8   6   1     2.054163096528   109.66604717   189.41547501
 H      8   6   1     2.054168923569   111.69825614    69.37009900
 H     13   7   3     2.054178649654   111.69963870    69.37453343
 H     13   7   3     2.054997817283   109.81554315   308.79890444
 H     13   7   3     2.054164546255   109.66553848   189.42042900
 H     12   7   3     2.055543263287   110.09462215    45.69680926
 H     12   7   3     2.052360616234   111.63024629   284.59281136
 H     12   7   3     2.054511902924   109.45107137   164.83489382
 H     15   5   4     2.062344603635   111.09420534   101.44445791
 H     15   5   4     2.055198922157   109.68715012   341.96434964
 H     15   5   4     2.054926168685   111.50986539   222.55956872
 H     14   4   3     2.062327829575   111.09495209   282.91867302
 H     14   4   3     2.055188943516   109.68646155   163.43874583
 H     14   4   3     2.054936559497   111.50980770    44.03444197

---------------------
BASIS SET INFORMATION
---------------------
There are 3 groups of distinct atoms

 Group   1 Type N   : 7s4p1d contracted to 3s2p1d pattern {511/31/1}
 Group   2 Type C   : 7s4p1d contracted to 3s2p1d pattern {511/31/1}
 Group   3 Type H   : 4s1p contracted to 2s1p pattern {31/1}

Atom   0N    basis set group =>   1
Atom   1C    basis set group =>   2
Atom   2N    basis set group =>   1
Atom   3C    basis set group =>   2
Atom   4C    basis set group =>   2
Atom   5C    basis set group =>   2
Atom   6C    basis set group =>   2
Atom   7C    basis set group =>   2
Atom   8H    basis set group =>   3
Atom   9C    basis set group =>   2
Atom  10H    basis set group =>   3
Atom  11C    basis set group =>   2
Atom  12C    basis set group =>   2
Atom  13C    basis set group =>   2
Atom  14C    basis set group =>   2
Atom  15H    basis set group =>   3
Atom  16H    basis set group =>   3
Atom  17H    basis set group =>   3
Atom  18H    basis set group =>   3
Atom  19H    basis set group =>   3
Atom  20H    basis set group =>   3
Atom  21H    basis set group =>   3
Atom  22H    basis set group =>   3
Atom  23H    basis set group =>   3
Atom  24H    basis set group =>   3
Atom  25H    basis set group =>   3
Atom  26H    basis set group =>   3
Atom  27H    basis set group =>   3
Atom  28H    basis set group =>   3
Atom  29H    basis set group =>   3
Atom  30H    basis set group =>   3
Atom  31H    basis set group =>   3
Atom  32H    basis set group =>   3
---------------------------------
AUXILIARY/J BASIS SET INFORMATION
---------------------------------
There are 3 groups of distinct atoms

 Group   1 Type N   : 12s5p4d2f1g contracted to 6s4p3d1f1g pattern {711111/2111/211/2/1}
 Group   2 Type C   : 12s5p4d2f1g contracted to 6s4p3d1f1g pattern {711111/2111/211/2/1}
 Group   3 Type H   : 5s2p1d contracted to 3s1p1d pattern {311/2/1}

Atom   0N    basis set group =>   1
Atom   1C    basis set group =>   2
Atom   2N    basis set group =>   1
Atom   3C    basis set group =>   2
Atom   4C    basis set group =>   2
Atom   5C    basis set group =>   2
Atom   6C    basis set group =>   2
Atom   7C    basis set group =>   2
Atom   8H    basis set group =>   3
Atom   9C    basis set group =>   2
Atom  10H    basis set group =>   3
Atom  11C    basis set group =>   2
Atom  12C    basis set group =>   2
Atom  13C    basis set group =>   2
Atom  14C    basis set group =>   2
Atom  15H    basis set group =>   3
Atom  16H    basis set group =>   3
Atom  17H    basis set group =>   3
Atom  18H    basis set group =>   3
Atom  19H    basis set group =>   3
Atom  20H    basis set group =>   3
Atom  21H    basis set group =>   3
Atom  22H    basis set group =>   3
Atom  23H    basis set group =>   3
Atom  24H    basis set group =>   3
Atom  25H    basis set group =>   3
Atom  26H    basis set group =>   3
Atom  27H    basis set group =>   3
Atom  28H    basis set group =>   3
Atom  29H    basis set group =>   3
Atom  30H    basis set group =>   3
Atom  31H    basis set group =>   3
Atom  32H    basis set group =>   3
------------------------------------------------------------------------------
                           ORCA GTO INTEGRAL CALCULATION
                           -- RI-GTO INTEGRALS CHOSEN --
------------------------------------------------------------------------------
------------------------------------------------------------------------------
                   ___                                                        
                  /   \      - P O W E R E D   B Y -                         
                 /     \                                                     
                 |  |  |   _    _      __       _____    __    __             
                 |  |  |  | |  | |    /  \     |  _  \  |  |  /  |          
                  \  \/   | |  | |   /    \    | | | |  |  | /  /          
                 / \  \   | |__| |  /  /\  \   | |_| |  |  |/  /          
                |  |  |   |  __  | /  /__\  \  |    /   |      \           
                |  |  |   | |  | | |   __   |  |    \   |  |\   \          
                \     /   | |  | | |  |  |  |  | |\  \  |  | \   \       
                 \___/    |_|  |_| |__|  |__|  |_| \__\ |__|  \__/        
                                                                              
                      - O R C A' S   B I G   F R I E N D -                    
                                      &                                       
                       - I N T E G R A L  F E E D E R -                       
                                                                              
 v1 FN, 2020, v2 2021                                                         
------------------------------------------------------------------------------


Reading SHARK input file 6_deprot_aq_7.SHARKINP.tmp ... ok
----------------------
SHARK INTEGRAL PACKAGE
----------------------

Number of atoms                             ...     33
Number of basis functions                   ...    282
Number of shells                            ...    138
Maximum angular momentum                    ...      2
Integral batch strategy                     ... SHARK/LIBINT Hybrid
RI-J (if used) integral strategy            ... SPLIT-RIJ (Revised 2003 algorithm where possible)
Printlevel                                  ...      1
Contraction scheme used                     ... SEGMENTED contraction
Coulomb Range Separation                    ... NOT USED
Exchange Range Separation                   ... Long Range
   Mu parameter                             ...  0.300000
   Scaling (regular/separated)              ...  0.157706  0.842294
Finite Nucleus Model                        ... NOT USED
Auxiliary Coulomb fitting basis             ... AVAILABLE
   # of basis functions in Aux-J            ...    857
   # of shells in Aux-J                     ...    295
   Maximum angular momentum in Aux-J        ...      4
Auxiliary J/K fitting basis                 ... NOT available
Auxiliary Correlation fitting basis         ... NOT available
Auxiliary 'external' fitting basis          ... NOT available
Integral threshold                          ...     2.500000e-11
Primitive cut-off                           ...     2.500000e-12
Primitive pair pre-selection threshold      ...     2.500000e-12

Calculating pre-screening integrals         ... done (  0.1 sec) Dimension = 138
Organizing shell pair data                  ... done (  0.1 sec)
Shell pair information
Total number of shell pairs                 ...      9591
Shell pairs after pre-screening             ...      8229
Total number of primitive shell pairs       ...     33125
Primitive shell pairs kept                  ...     19869
          la=0 lb=0:   2819 shell pairs
          la=1 lb=0:   3102 shell pairs
          la=1 lb=1:    882 shell pairs
          la=2 lb=0:    861 shell pairs
          la=2 lb=1:    488 shell pairs
          la=2 lb=2:     77 shell pairs

Calculating one electron integrals          ... done (  0.1 sec)
Calculating RI/J V-Matrix + Cholesky decomp.... done (  0.1 sec)
Calculating Nuclear repulsion               ... done (  0.0 sec) ENN=    857.256393296682 Eh

SHARK setup successfully completed in   0.4 seconds

Maximum memory used throughout the entire GTOINT-calculation: 48.0 MB
-------------------------------------------------------------------------------
                                 ORCA SCF
-------------------------------------------------------------------------------

------------
SCF SETTINGS
------------
Hamiltonian:
 Density Functional     Method          .... DFT(GTOs)
 Exchange Functional    Exchange        .... WB97X
 Correlation Functional Correlation     .... WB97X
 Gradients option       PostSCFGGA      .... off
 Hybrid DFT is turned on
   Fraction HF Exchange ScalHFX         ....  0.157706
   Scaling of DF-GGA-X  ScalDFX         ....  0.000000
   Scaling of DF-GGA-C  ScalDFC         ....  1.000000
   Scaling of DF-LDA-C  ScalLDAC        ....  1.000000
   Perturbative correction              ....  0.000000
   Density functional embedding theory  .... OFF
 Long-range corrected/Screened/Range-Separated Hybrid DFT is turned on
   Amount of maximum screened exact exchange              ....  0.842294
   Range separation parameter mu (erf(mu*r12)/r12)        ....  0.300000
 RI-approximation to the Coulomb term is turned on
   Number of AuxJ basis functions       .... 857
   RIJ-COSX (HFX calculated with COS-X)).... on


General Settings:
 Integral files         IntName         .... 6_deprot_aq_7
 Hartree-Fock type      HFTyp           .... RHF
 Total Charge           Charge          ....    0
 Multiplicity           Mult            ....    1
 Number of Electrons    NEL             ....  100
 Basis Dimension        Dim             ....  282
 Nuclear Repulsion      ENuc            ....    857.2563932967 Eh

Convergence Acceleration:
 DIIS                   CNVDIIS         .... on
   Start iteration      DIISMaxIt       ....     0
   Startup error        DIISStart       ....  0.200000
   # of expansion vecs  DIISMaxEq       ....     5
   Bias factor          DIISBfac        ....   1.050
   Max. coefficient     DIISMaxC        ....  10.000
 Trust-Rad. Augm. Hess. CNVTRAH         .... auto
   Auto Start mean grad. ratio tolernc. ....  1.125000
   Auto Start start iteration           ....    20
   Auto Start num. interpolation iter.  ....    10
   Max. Number of Micro iterations      ....    16
   Max. Number of Macro iterations      .... Maxiter - #DIIS iter
   Number of Davidson start vectors     ....     2
   Converg. threshold I  (grad. norm)   ....   1.000e-05
   Converg. threshold II (energy diff.) ....   1.000e-08
   Grad. Scal. Fac. for Micro threshold ....   0.100
   Minimum threshold for Micro iter.    ....   0.010
   NR start threshold (gradient norm)   ....   0.001
   Initial trust radius                 ....   0.400
   Minimum AH scaling param. (alpha)    ....   1.000
   Maximum AH scaling param. (alpha)    .... 1000.000
   Orbital update algorithm             .... Taylor
   White noise on init. David. guess    .... on
   Maximum white noise                  ....   0.010
   Quad. conv. algorithm                .... NR
 SOSCF                  CNVSOSCF        .... on
   Start iteration      SOSCFMaxIt      ....   150
   Startup grad/error   SOSCFStart      ....  0.001000
 Level Shifting         CNVShift        .... on
   Level shift para.    LevelShift      ....    0.2500
   Turn off err/grad.   ShiftErr        ....    0.0000
 Zerner damping         CNVZerner       .... off
 Static damping         CNVDamp         .... on
   Fraction old density DampFac         ....    0.8500
   Max. Damping (<1)    DampMax         ....    0.9800
   Min. Damping (>=0)   DampMin         ....    0.0000
   Turn off err/grad.   DampErr         ....    0.0300
 Fernandez-Rico         CNVRico         .... off

SCF Procedure:
 Maximum # iterations   MaxIter         ....   125
 SCF integral mode      SCFMode         .... Direct
   Integral package                     .... SHARK and LIBINT hybrid scheme
 Reset frequency        DirectResetFreq ....    20
 Integral Threshold     Thresh          ....  2.500e-11 Eh
 Primitive CutOff       TCut            ....  2.500e-12 Eh

Convergence Tolerance:
 Convergence Check Mode ConvCheckMode   .... Total+1el-Energy
 Convergence forced     ConvForced      .... 0
 Energy Change          TolE            ....  1.000e-08 Eh
 1-El. energy change                    ....  1.000e-05 Eh
 Orbital Gradient       TolG            ....  1.000e-05
 Orbital Rotation angle TolX            ....  1.000e-05
 DIIS Error             TolErr          ....  5.000e-07


Diagonalization of the overlap matrix:
Smallest eigenvalue                        ... 8.540e-04
Time for diagonalization                   ...    0.013 sec
Threshold for overlap eigenvalues          ... 1.000e-08
Number of eigenvalues below threshold      ... 0
Time for construction of square roots      ...    0.007 sec
Total time needed                          ...    0.021 sec

Time for model grid setup =    0.680 sec

------------------------------
INITIAL GUESS: MODEL POTENTIAL
------------------------------
Loading Hartree-Fock densities                     ... done
Calculating cut-offs                               ... done
Initializing the effective Hamiltonian             ... done
Setting up the integral package (SHARK)            ... done
Starting the Coulomb interaction                   ... done (   0.8 sec)
Reading the grid                                   ... done
Mapping shells                                     ... done
Starting the XC term evaluation                    ... done (   0.7 sec)
  promolecular density results
     # of electrons  =     99.988014202
     EX              =    -75.327281504
     EC              =     -3.315337431
     EX+EC           =    -78.642618935
Transforming the Hamiltonian                       ... done (   0.0 sec)
Diagonalizing the Hamiltonian                      ... done (   0.0 sec)
Back transforming the eigenvectors                 ... done (   0.0 sec)
Now organizing SCF variables                       ... done
                      ------------------
                      INITIAL GUESS DONE (   2.2 sec)
                      ------------------
-------------------
DFT GRID GENERATION
-------------------

General Integration Accuracy     IntAcc      ... 4.388
Radial Grid Type                 RadialGrid  ... OptM3 with GC (2021)
Angular Grid (max. ang.)         AngularGrid ... 4 (Lebedev-302)
Angular grid pruning method      GridPruning ... 4 (adaptive)
Weight generation scheme         WeightScheme... Becke
Basis function cutoff            BFCut       ... 1.0000e-11
Integration weight cutoff        WCut        ... 1.0000e-14
Angular grids for H and He will be reduced by one unit
Partially contracted basis set               ... off
Rotationally invariant grid construction     ... off

Total number of grid points                  ...   141091
Total number of batches                      ...     2217
Average number of points per batch           ...       63
Average number of grid points per atom       ...     4275
Time for grid setup =    2.485 sec

--------------------
COSX GRID GENERATION
--------------------

GRIDX 1
-------
General Integration Accuracy     IntAcc      ... 3.816
Radial Grid Type                 RadialGrid  ... OptM3 with GC (2021)
Angular Grid (max. ang.)         AngularGrid ... 1 (Lebedev-50)
Angular grid pruning method      GridPruning ... 4 (adaptive)
Weight generation scheme         WeightScheme... Becke
Basis function cutoff            BFCut       ... 1.0000e-11
Integration weight cutoff        WCut        ... 1.0000e-14
Angular grids for H and He will be reduced by one unit
Partially contracted basis set               ... on
Rotationally invariant grid construction     ... off

Total number of grid points                  ...    18063
Total number of batches                      ...      298
Average number of points per batch           ...       60
Average number of grid points per atom       ...      547
UseSFitting                                  ... on

GRIDX 2
-------
General Integration Accuracy     IntAcc      ... 4.020
Radial Grid Type                 RadialGrid  ... OptM3 with GC (2021)
Angular Grid (max. ang.)         AngularGrid ... 2 (Lebedev-110)
Angular grid pruning method      GridPruning ... 4 (adaptive)
Weight generation scheme         WeightScheme... Becke
Basis function cutoff            BFCut       ... 1.0000e-11
Integration weight cutoff        WCut        ... 1.0000e-14
Angular grids for H and He will be reduced by one unit
Partially contracted basis set               ... on
Rotationally invariant grid construction     ... off

Total number of grid points                  ...    37562
Total number of batches                      ...      606
Average number of points per batch           ...       61
Average number of grid points per atom       ...     1138
UseSFitting                                  ... on

GRIDX 3
-------
General Integration Accuracy     IntAcc      ... 4.338
Radial Grid Type                 RadialGrid  ... OptM3 with GC (2021)
Angular Grid (max. ang.)         AngularGrid ... 3 (Lebedev-194)
Angular grid pruning method      GridPruning ... 4 (adaptive)
Weight generation scheme         WeightScheme... Becke
Basis function cutoff            BFCut       ... 1.0000e-11
Integration weight cutoff        WCut        ... 1.0000e-14
Angular grids for H and He will be reduced by one unit
Partially contracted basis set               ... on
Rotationally invariant grid construction     ... off

Total number of grid points                  ...    81650
Total number of batches                      ...     1293
Average number of points per batch           ...       63
Average number of grid points per atom       ...     2474
UseSFitting                                  ... on

Time for X-Grid setup             =    3.248 sec


--------------------
CPCM SOLVATION MODEL
--------------------
CPCM parameters:
  Epsilon                                         ...      80.4000
  Refrac                                          ...       1.3300
  Rsolv                                           ...       1.3000
  Surface type                                    ... GAUSSIAN VDW
  Epsilon function type                           ...         CPCM
Radii:
 Radius for N  used is    3.5149 Bohr (=   1.8600 Ang.)
 Radius for C  used is    3.8550 Bohr (=   2.0400 Ang.)
 Radius for H  used is    2.4944 Bohr (=   1.3200 Ang.)
Calculating surface                               ...        done! (  0.0s)
GEPOL surface points                              ...         1727
GEPOL Volume                                      ...    1701.1328
GEPOL Surface-area                                ...     905.5510
Calculating surface distance matrix               ...        done! (  0.0s)
Performing Cholesky decomposition & store         ...        done! (  0.1s)
Overall time for CPCM initialization              ...                 0.1s
--------------
SCF ITERATIONS
--------------
ITER       Energy         Delta-E        Max-DP      RMS-DP      [F,P]     Damp
               ***  Starting incremental Fock matrix formation  ***
  0   -539.8618879051   0.000000000000 0.03948918  0.00069110  0.1568679 0.8500
  1   -539.9276555747  -0.065767669587 0.04234432  0.00065493  0.1266014 0.8500
                               ***Turning on DIIS***
  2   -539.9780657303  -0.050410155633 0.03746420  0.00053874  0.0974083 0.8500
  3   -540.0157296550  -0.037663924707 0.03096013  0.00038767  0.0740173 0.8500
  4   -540.0448355821  -0.029105927101 0.02570589  0.00029789  0.0590238 0.8500
  5   -540.0677705112  -0.022934929117 0.02164282  0.00024420  0.0488583 0.8500
  6   -540.0863910218  -0.018620510585 0.01839739  0.00020580  0.0411183 0.8500
  7   -540.1017750833  -0.015384061479 0.01578006  0.00017692  0.0348304 0.8500
  8   -540.1146199352  -0.012844851959 0.09081065  0.00101546  0.0294532 0.0000
  9   -540.1834956625  -0.068875727253 0.00164831  0.00003699  0.0012324 0.0000
                      *** Initiating the SOSCF procedure ***
                           *** Shutting down DIIS ***
                      *** Re-Reading the Fockian *** 
                      *** Removing any level shift *** 
ITER      Energy       Delta-E        Grad      Rot      Max-DP    RMS-DP
 10   -540.18352147  -0.0000258104  0.000225  0.000225  0.000594  0.000017
               *** Restarting incremental Fock matrix formation ***
 11   -540.18345418   0.0000672954  0.000227  0.000526  0.000962  0.000014
 12   -540.18345506  -0.0000008775  0.000055  0.000244  0.000274  0.000008
 13   -540.18345524  -0.0000001890  0.000026  0.000024  0.000155  0.000002
 14   -540.18345528  -0.0000000378  0.000008  0.000021  0.000069  0.000001
 15   -540.18345529  -0.0000000098  0.000004  0.000012  0.000024  0.000000
                  ***Gradient check signals convergence***
              ***Rediagonalizing the Fockian in SOSCF/NRSCF***

               *****************************************************
               *                     SUCCESS                       *
               *           SCF CONVERGED AFTER  16 CYCLES          *
               *****************************************************

Old exchange energy                            =    -25.341271402 Eh
New exchange energy                            =    -25.341269623 Eh
Exchange energy change after final integration =      0.000001779 Eh
Total energy after final integration           =   -540.183453520 Eh
Final COS-X integration done in                =    90.658 sec

----------------
TOTAL SCF ENERGY
----------------

Total Energy       :         -540.18345352 Eh          -14699.13906 eV

Components:
Nuclear Repulsion  :          857.25639330 Eh           23327.13239 eV
Electronic Energy  :        -1397.43984682 Eh          -38026.27145 eV
One Electron Energy:        -2429.63685309 Eh          -66113.77993 eV
Two Electron Energy:         1032.19700627 Eh           28087.50848 eV
Max COSX asymmetry :            0.00000492 Eh               0.00013 eV
CPCM Dielectric    :           -0.01592223 Eh              -0.43327 eV

Virial components:
Potential Energy   :        -1074.12599150 Eh          -29228.45417 eV
Kinetic Energy     :          533.94253798 Eh           14529.31511 eV
Virial Ratio       :            2.01168837


DFT components:
N(Alpha)           :       50.000033953014 electrons
N(Beta)            :       50.000033953014 electrons
N(Total)           :      100.000067906028 electrons
E(XC)              :      -55.556668312906 Eh       
DFET-embed. en.    :        0.000000000000 Eh       
CPCM Solvation Model Properties:
Surface-charge          :           -0.02871223
Charge-correction       :           -0.00055384 Eh              -0.01507 eV
Free-energy (cav+disp)  :  This term is not implemented in the current solvation scheme

---------------
SCF CONVERGENCE
---------------

  Last Energy change         ...   -7.7532e-09  Tolerance :   1.0000e-08
  Last MAX-Density change    ...    3.9968e-15  Tolerance :   1.0000e-07
  Last RMS-Density change    ...    4.0907e-17  Tolerance :   5.0000e-09
  Last Orbital Gradient      ...    8.6663e-07  Tolerance :   1.0000e-05
  Last Orbital Rotation      ...    4.3026e-06  Tolerance :   1.0000e-05

             **** THE GBW FILE WAS UPDATED (6_deprot_aq_7.gbw) ****
             **** DENSITY 6_deprot_aq_7.scfp WAS UPDATED ****
             **** ENERGY FILE WAS UPDATED (6_deprot_aq_7.en.tmp) ****
             **** THE GBW FILE WAS UPDATED (6_deprot_aq_7.gbw) ****
             **** DENSITY 6_deprot_aq_7.scfp WAS UPDATED ****
----------------
ORBITAL ENERGIES
----------------

  NO   OCC          E(Eh)            E(eV) 
   0   2.0000     -14.438906      -392.9026 
   1   2.0000     -14.438901      -392.9025 
   2   2.0000     -10.303491      -280.3722 
   3   2.0000     -10.303462      -280.3715 
   4   2.0000     -10.290302      -280.0134 
   5   2.0000     -10.289785      -279.9993 
   6   2.0000     -10.268317      -279.4151 
   7   2.0000     -10.268259      -279.4135 
   8   2.0000     -10.267131      -279.3828 
   9   2.0000     -10.256857      -279.1033 
  10   2.0000     -10.256853      -279.1032 
  11   2.0000     -10.256475      -279.0929 
  12   2.0000     -10.256475      -279.0929 
  13   2.0000      -1.145154       -31.1612 
  14   2.0000      -1.042880       -28.3782 
  15   2.0000      -0.937838       -25.5199 
  16   2.0000      -0.904722       -24.6187 
  17   2.0000      -0.886127       -24.1127 
  18   2.0000      -0.846768       -23.0417 
  19   2.0000      -0.809143       -22.0179 
  20   2.0000      -0.808876       -22.0106 
  21   2.0000      -0.792334       -21.5605 
  22   2.0000      -0.750904       -20.4331 
  23   2.0000      -0.722034       -19.6475 
  24   2.0000      -0.679647       -18.4941 
  25   2.0000      -0.645755       -17.5719 
  26   2.0000      -0.595413       -16.2020 
  27   2.0000      -0.593178       -16.1412 
  28   2.0000      -0.583588       -15.8802 
  29   2.0000      -0.554221       -15.0811 
  30   2.0000      -0.548140       -14.9156 
  31   2.0000      -0.536609       -14.6019 
  32   2.0000      -0.533971       -14.5301 
  33   2.0000      -0.531426       -14.4608 
  34   2.0000      -0.521585       -14.1930 
  35   2.0000      -0.509598       -13.8669 
  36   2.0000      -0.505890       -13.7660 
  37   2.0000      -0.495487       -13.4829 
  38   2.0000      -0.488079       -13.2813 
  39   2.0000      -0.486201       -13.2302 
  40   2.0000      -0.478077       -13.0091 
  41   2.0000      -0.472636       -12.8611 
  42   2.0000      -0.465981       -12.6800 
  43   2.0000      -0.454091       -12.3564 
  44   2.0000      -0.439278       -11.9534 
  45   2.0000      -0.430476       -11.7138 
  46   2.0000      -0.428279       -11.6541 
  47   2.0000      -0.362599        -9.8668 
  48   2.0000      -0.316720        -8.6184 
  49   2.0000      -0.300636        -8.1807 
  50   0.0000       0.130900         3.5620 
  51   0.0000       0.131431         3.5764 
  52   0.0000       0.141087         3.8392 
  53   0.0000       0.154726         4.2103 
  54   0.0000       0.175159         4.7663 
  55   0.0000       0.180258         4.9051 
  56   0.0000       0.194284         5.2867 
  57   0.0000       0.196515         5.3474 
  58   0.0000       0.205453         5.5907 
  59   0.0000       0.218009         5.9323 
  60   0.0000       0.222589         6.0570 
  61   0.0000       0.231570         6.3013 
  62   0.0000       0.231621         6.3027 
  63   0.0000       0.239622         6.5205 
  64   0.0000       0.243979         6.6390 
  65   0.0000       0.247895         6.7456 
  66   0.0000       0.258252         7.0274 
  67   0.0000       0.261236         7.1086 
  68   0.0000       0.267059         7.2670 
  69   0.0000       0.271568         7.3897 
  70   0.0000       0.279120         7.5952 
  71   0.0000       0.285868         7.7789 
  72   0.0000       0.292039         7.9468 
  73   0.0000       0.305564         8.3148 
  74   0.0000       0.307331         8.3629 
  75   0.0000       0.328677         8.9437 
  76   0.0000       0.335518         9.1299 
  77   0.0000       0.346982         9.4419 
  78   0.0000       0.359016         9.7693 
  79   0.0000       0.370009        10.0684 
  80   0.0000       0.381505        10.3813 
  81   0.0000       0.392679        10.6853 
  82   0.0000       0.400879        10.9085 
  83   0.0000       0.448320        12.1994 
  84   0.0000       0.480006        13.0616 
  85   0.0000       0.482434        13.1277 
  86   0.0000       0.504604        13.7310 
  87   0.0000       0.511691        13.9238 
  88   0.0000       0.521581        14.1929 
  89   0.0000       0.522191        14.2095 
  90   0.0000       0.539278        14.6745 
  91   0.0000       0.542953        14.7745 
  92   0.0000       0.560098        15.2410 
  93   0.0000       0.569048        15.4846 
  94   0.0000       0.582465        15.8497 
  95   0.0000       0.601771        16.3750 
  96   0.0000       0.627777        17.0827 
  97   0.0000       0.641536        17.4571 
  98   0.0000       0.644254        17.5310 
  99   0.0000       0.661957        18.0128 
 100   0.0000       0.670919        18.2566 
 101   0.0000       0.680851        18.5269 
 102   0.0000       0.691318        18.8117 
 103   0.0000       0.693992        18.8845 
 104   0.0000       0.700766        19.0688 
 105   0.0000       0.716773        19.5044 
 106   0.0000       0.721415        19.6307 
 107   0.0000       0.725369        19.7383 
 108   0.0000       0.742172        20.1955 
 109   0.0000       0.750382        20.4189 
 110   0.0000       0.756243        20.5784 
 111   0.0000       0.769113        20.9286 
 112   0.0000       0.772370        21.0173 
 113   0.0000       0.776760        21.1367 
 114   0.0000       0.777163        21.1477 
 115   0.0000       0.783813        21.3286 
 116   0.0000       0.787018        21.4159 
 117   0.0000       0.790779        21.5182 
 118   0.0000       0.795899        21.6575 
 119   0.0000       0.796431        21.6720 
 120   0.0000       0.801308        21.8047 
 121   0.0000       0.806919        21.9574 
 122   0.0000       0.810848        22.0643 
 123   0.0000       0.811633        22.0857 
 124   0.0000       0.817053        22.2331 
 125   0.0000       0.821180        22.3455 
 126   0.0000       0.822768        22.3886 
 127   0.0000       0.829369        22.5683 
 128   0.0000       0.834904        22.7189 
 129   0.0000       0.843488        22.9525 
 130   0.0000       0.847703        23.0672 
 131   0.0000       0.850783        23.1510 
 132   0.0000       0.856077        23.2950 
 133   0.0000       0.863789        23.5049 
 134   0.0000       0.878479        23.9046 
 135   0.0000       0.883172        24.0323 
 136   0.0000       0.886877        24.1332 
 137   0.0000       0.908697        24.7269 
 138   0.0000       0.913854        24.8672 
 139   0.0000       0.957610        26.0579 
 140   0.0000       1.034325        28.1454 
 141   0.0000       1.053761        28.6743 
 142   0.0000       1.056210        28.7409 
 143   0.0000       1.102700        30.0060 
 144   0.0000       1.104717        30.0609 
 145   0.0000       1.114660        30.3314 
 146   0.0000       1.138276        30.9741 
 147   0.0000       1.155807        31.4511 
 148   0.0000       1.165111        31.7043 
 149   0.0000       1.175752        31.9938 
 150   0.0000       1.188738        32.3472 
 151   0.0000       1.222839        33.2751 
 152   0.0000       1.247134        33.9362 
 153   0.0000       1.280908        34.8553 
 154   0.0000       1.288756        35.0688 
 155   0.0000       1.312578        35.7171 
 156   0.0000       1.350573        36.7510 
 157   0.0000       1.367216        37.2038 
 158   0.0000       1.389440        37.8086 
 159   0.0000       1.426677        38.8218 
 160   0.0000       1.437022        39.1033 
 161   0.0000       1.461660        39.7738 
 162   0.0000       1.520745        41.3816 
 163   0.0000       1.532168        41.6924 
 164   0.0000       1.563870        42.5551 
 165   0.0000       1.569384        42.7051 
 166   0.0000       1.599043        43.5122 
 167   0.0000       1.603745        43.6401 
 168   0.0000       1.613447        43.9041 
 169   0.0000       1.652518        44.9673 
 170   0.0000       1.652600        44.9695 
 171   0.0000       1.659570        45.1592 
 172   0.0000       1.660112        45.1739 
 173   0.0000       1.667006        45.3616 
 174   0.0000       1.672699        45.5164 
 175   0.0000       1.679507        45.7017 
 176   0.0000       1.681460        45.7549 
 177   0.0000       1.712344        46.5952 
 178   0.0000       1.725805        46.9615 
 179   0.0000       1.772344        48.2279 
 180   0.0000       1.783359        48.5277 
 181   0.0000       1.829385        49.7801 
 182   0.0000       1.831162        49.8284 
 183   0.0000       1.861016        50.6408 
 184   0.0000       1.867574        50.8193 
 185   0.0000       1.875208        51.0270 
 186   0.0000       1.891190        51.4619 
 187   0.0000       1.898426        51.6588 
 188   0.0000       1.909282        51.9542 
 189   0.0000       1.911452        52.0132 
 190   0.0000       1.917019        52.1647 
 191   0.0000       1.924941        52.3803 
 192   0.0000       1.933290        52.6075 
 193   0.0000       1.934968        52.6531 
 194   0.0000       1.944324        52.9077 
 195   0.0000       1.950210        53.0679 
 196   0.0000       1.957457        53.2651 
 197   0.0000       1.959578        53.3228 
 198   0.0000       1.966580        53.5134 
 199   0.0000       1.969038        53.5802 
 200   0.0000       1.975650        53.7602 
 201   0.0000       1.981899        53.9302 
 202   0.0000       1.995777        54.3078 
 203   0.0000       2.007198        54.6186 
 204   0.0000       2.011071        54.7240 
 205   0.0000       2.011366        54.7321 
 206   0.0000       2.029103        55.2147 
 207   0.0000       2.038999        55.4840 
 208   0.0000       2.053988        55.8919 
 209   0.0000       2.066262        56.2259 
 210   0.0000       2.089878        56.8685 
 211   0.0000       2.096852        57.0583 
 212   0.0000       2.100242        57.1505 
 213   0.0000       2.102843        57.2213 
 214   0.0000       2.132622        58.0316 
 215   0.0000       2.170579        59.0645 
 216   0.0000       2.171022        59.0765 
 217   0.0000       2.182730        59.3951 
 218   0.0000       2.201800        59.9140 
 219   0.0000       2.219838        60.4049 
 220   0.0000       2.242699        61.0269 
 221   0.0000       2.269087        61.7450 
 222   0.0000       2.291443        62.3533 
 223   0.0000       2.300228        62.5924 
 224   0.0000       2.315058        62.9959 
 225   0.0000       2.334383        63.5218 
 226   0.0000       2.370110        64.4940 
 227   0.0000       2.377365        64.6914 
 228   0.0000       2.385066        64.9009 
 229   0.0000       2.386474        64.9393 
 230   0.0000       2.392820        65.1119 
 231   0.0000       2.419996        65.8514 
 232   0.0000       2.457434        66.8702 
 233   0.0000       2.499226        68.0074 
 234   0.0000       2.505367        68.1745 
 235   0.0000       2.527116        68.7663 
 236   0.0000       2.539500        69.1033 
 237   0.0000       2.545494        69.2664 
 238   0.0000       2.557114        69.5826 
 239   0.0000       2.567821        69.8740 
 240   0.0000       2.586796        70.3903 
 241   0.0000       2.606174        70.9176 
 242   0.0000       2.619781        71.2879 
 243   0.0000       2.630646        71.5835 
 244   0.0000       2.663565        72.4793 
 245   0.0000       2.665329        72.5273 
 246   0.0000       2.684991        73.0623 
 247   0.0000       2.708099        73.6911 
 248   0.0000       2.722875        74.0932 
 249   0.0000       2.737592        74.4937 
 250   0.0000       2.758056        75.0505 
 251   0.0000       2.763391        75.1957 
 252   0.0000       2.830858        77.0316 
 253   0.0000       2.842490        77.3481 
 254   0.0000       2.847742        77.4910 
 255   0.0000       2.859485        77.8105 
 256   0.0000       2.867849        78.0382 
 257   0.0000       2.899697        78.9048 
 258   0.0000       2.914632        79.3112 
 259   0.0000       2.974410        80.9378 
 260   0.0000       2.990569        81.3775 
 261   0.0000       3.010880        81.9302 
 262   0.0000       3.016028        82.0703 
 263   0.0000       3.040923        82.7477 
 264   0.0000       3.044746        82.8518 
 265   0.0000       3.051469        83.0347 
 266   0.0000       3.056186        83.1631 
 267   0.0000       3.065995        83.4300 
 268   0.0000       3.093915        84.1897 
 269   0.0000       3.102582        84.4255 
 270   0.0000       3.105323        84.5001 
 271   0.0000       3.106556        84.5337 
 272   0.0000       3.134973        85.3069 
 273   0.0000       3.158982        85.9603 
 274   0.0000       3.164301        86.1050 
 275   0.0000       3.165716        86.1435 
 276   0.0000       3.182276        86.5941 
 277   0.0000       3.191399        86.8424 
 278   0.0000       3.373180        91.7889 
 279   0.0000       3.452223        93.9398 
 280   0.0000       3.452747        93.9540 
 281   0.0000       3.580022        97.4174 

                    ********************************
                    * MULLIKEN POPULATION ANALYSIS *
                    ********************************

-----------------------
MULLIKEN ATOMIC CHARGES
-----------------------
   0 N :   -0.199963
   1 C :   -0.233140
   2 N :   -0.199960
   3 C :   -0.129378
   4 C :   -0.129365
   5 C :   -0.008337
   6 C :   -0.008329
   7 C :    0.014160
   8 H :    0.020292
   9 C :    0.003371
  10 H :    0.020299
  11 C :    0.003349
  12 C :    0.014155
  13 C :    0.095625
  14 C :    0.095589
  15 H :    0.040966
  16 H :    0.033639
  17 H :    0.024136
  18 H :    0.027762
  19 H :    0.038122
  20 H :    0.026267
  21 H :    0.026270
  22 H :    0.027761
  23 H :    0.038125
  24 H :    0.033637
  25 H :    0.024157
  26 H :    0.040958
  27 H :    0.055588
  28 H :    0.036991
  29 H :    0.037353
  30 H :    0.055586
  31 H :    0.036948
  32 H :    0.037366
Sum of atomic charges:    0.0000000

--------------------------------
MULLIKEN REDUCED ORBITAL CHARGES
--------------------------------
  0 N s       :     3.382956  s :     3.382956
      pz      :     1.509218  p :     3.784931
      px      :     1.160311
      py      :     1.115402
      dz2     :     0.002238  d :     0.032077
      dxz     :     0.003952
      dyz     :     0.005796
      dx2y2   :     0.010720
      dxy     :     0.009370
  1 C s       :     3.620881  s :     3.620881
      pz      :     0.725517  p :     2.546576
      px      :     0.663328
      py      :     1.157731
      dz2     :     0.007713  d :     0.065683
      dxz     :     0.012330
      dyz     :     0.009167
      dx2y2   :     0.008232
      dxy     :     0.028241
  2 N s       :     3.382954  s :     3.382954
      pz      :     1.509212  p :     3.784929
      px      :     1.160313
      py      :     1.115404
      dz2     :     0.002238  d :     0.032077
      dxz     :     0.003952
      dyz     :     0.005796
      dx2y2   :     0.010720
      dxy     :     0.009370
  3 C s       :     3.107789  s :     3.107789
      pz      :     1.085570  p :     2.963704
      px      :     0.991328
      py      :     0.886806
      dz2     :     0.004377  d :     0.057886
      dxz     :     0.009950
      dyz     :     0.010090
      dx2y2   :     0.019420
      dxy     :     0.014048
  4 C s       :     3.107786  s :     3.107786
      pz      :     1.085570  p :     2.963693
      px      :     0.991356
      py      :     0.886768
      dz2     :     0.004378  d :     0.057886
      dxz     :     0.009949
      dyz     :     0.010091
      dx2y2   :     0.019421
      dxy     :     0.014047
  5 C s       :     3.073967  s :     3.073967
      pz      :     1.018911  p :     2.876804
      px      :     0.834904
      py      :     1.022989
      dz2     :     0.013187  d :     0.057566
      dxz     :     0.014879
      dyz     :     0.006099
      dx2y2   :     0.012673
      dxy     :     0.010728
  6 C s       :     3.073977  s :     3.073977
      pz      :     1.018905  p :     2.876786
      px      :     0.834878
      py      :     1.023002
      dz2     :     0.013185  d :     0.057567
      dxz     :     0.014880
      dyz     :     0.006100
      dx2y2   :     0.012675
      dxy     :     0.010727
  7 C s       :     2.977023  s :     2.977023
      pz      :     0.962262  p :     2.982007
      px      :     0.999462
      py      :     1.020283
      dz2     :     0.006670  d :     0.026810
      dxz     :     0.006508
      dyz     :     0.003542
      dx2y2   :     0.004698
      dxy     :     0.005392
  8 H s       :     0.958530  s :     0.958530
      pz      :     0.003584  p :     0.021178
      px      :     0.002839
      py      :     0.014755
  9 C s       :     2.984953  s :     2.984953
      pz      :     0.969988  p :     2.985031
      px      :     0.998391
      py      :     1.016652
      dz2     :     0.006993  d :     0.026646
      dxz     :     0.006689
      dyz     :     0.002212
      dx2y2   :     0.004095
      dxy     :     0.006657
 10 H s       :     0.958523  s :     0.958523
      pz      :     0.003584  p :     0.021178
      px      :     0.002839
      py      :     0.014755
 11 C s       :     2.984969  s :     2.984969
      pz      :     0.969991  p :     2.985037
      px      :     0.998400
      py      :     1.016646
      dz2     :     0.006992  d :     0.026646
      dxz     :     0.006689
      dyz     :     0.002213
      dx2y2   :     0.004094
      dxy     :     0.006657
 12 C s       :     2.977029  s :     2.977029
      pz      :     0.962272  p :     2.982006
      px      :     0.999456
      py      :     1.020278
      dz2     :     0.006669  d :     0.026810
      dxz     :     0.006509
      dyz     :     0.003542
      dx2y2   :     0.004697
      dxy     :     0.005393
 13 C s       :     2.880488  s :     2.880488
      pz      :     1.030385  p :     2.996228
      px      :     0.991157
      py      :     0.974686
      dz2     :     0.005594  d :     0.027659
      dxz     :     0.007362
      dyz     :     0.003433
      dx2y2   :     0.003702
      dxy     :     0.007569
 14 C s       :     2.880519  s :     2.880519
      pz      :     1.030384  p :     2.996234
      px      :     0.991147
      py      :     0.974703
      dz2     :     0.005595  d :     0.027659
      dxz     :     0.007354
      dyz     :     0.003438
      dx2y2   :     0.003704
      dxy     :     0.007566
 15 H s       :     0.934542  s :     0.934542
      pz      :     0.004544  p :     0.024492
      px      :     0.011408
      py      :     0.008540
 16 H s       :     0.942240  s :     0.942240
      pz      :     0.011835  p :     0.024120
      px      :     0.007419
      py      :     0.004866
 17 H s       :     0.951172  s :     0.951172
      pz      :     0.004468  p :     0.024692
      px      :     0.005861
      py      :     0.014363
 18 H s       :     0.948127  s :     0.948127
      pz      :     0.009698  p :     0.024111
      px      :     0.008395
      py      :     0.006019
 19 H s       :     0.937416  s :     0.937416
      pz      :     0.004163  p :     0.024462
      px      :     0.012309
      py      :     0.007990
 20 H s       :     0.948957  s :     0.948957
      pz      :     0.004404  p :     0.024776
      px      :     0.005507
      py      :     0.014865
 21 H s       :     0.948954  s :     0.948954
      pz      :     0.004404  p :     0.024775
      px      :     0.005507
      py      :     0.014865
 22 H s       :     0.948128  s :     0.948128
      pz      :     0.009699  p :     0.024111
      px      :     0.008394
      py      :     0.006018
 23 H s       :     0.937413  s :     0.937413
      pz      :     0.004163  p :     0.024462
      px      :     0.012309
      py      :     0.007990
 24 H s       :     0.942243  s :     0.942243
      pz      :     0.011834  p :     0.024120
      px      :     0.007420
      py      :     0.004866
 25 H s       :     0.951152  s :     0.951152
      pz      :     0.004468  p :     0.024692
      px      :     0.005861
      py      :     0.014362
 26 H s       :     0.934550  s :     0.934550
      pz      :     0.004545  p :     0.024492
      px      :     0.011407
      py      :     0.008540
 27 H s       :     0.919764  s :     0.919764
      pz      :     0.013973  p :     0.024648
      px      :     0.006045
      py      :     0.004630
 28 H s       :     0.937939  s :     0.937939
      pz      :     0.005948  p :     0.025070
      px      :     0.007358
      py      :     0.011765
 29 H s       :     0.937409  s :     0.937409
      pz      :     0.009308  p :     0.025237
      px      :     0.011349
      py      :     0.004581
 30 H s       :     0.919765  s :     0.919765
      pz      :     0.013969  p :     0.024649
      px      :     0.006051
      py      :     0.004629
 31 H s       :     0.937981  s :     0.937981
      pz      :     0.005944  p :     0.025071
      px      :     0.007361
      py      :     0.011766
 32 H s       :     0.937398  s :     0.937398
      pz      :     0.009316  p :     0.025237
      px      :     0.011341
      py      :     0.004580


                     *******************************
                     * LOEWDIN POPULATION ANALYSIS *
                     *******************************

----------------------
LOEWDIN ATOMIC CHARGES
----------------------
   0 N :    0.036178
   1 C :   -0.322319
   2 N :    0.036179
   3 C :   -0.045790
   4 C :   -0.045789
   5 C :    0.025098
   6 C :    0.025101
   7 C :   -0.056606
   8 H :    0.026058
   9 C :   -0.057525
  10 H :    0.026060
  11 C :   -0.057527
  12 C :   -0.056607
  13 C :   -0.054409
  14 C :   -0.054411
  15 H :    0.034832
  16 H :    0.028189
  17 H :    0.024865
  18 H :    0.026025
  19 H :    0.033262
  20 H :    0.023937
  21 H :    0.023938
  22 H :    0.026024
  23 H :    0.033265
  24 H :    0.028186
  25 H :    0.024867
  26 H :    0.034828
  27 H :    0.039954
  28 H :    0.041555
  29 H :    0.035539
  30 H :    0.039948
  31 H :    0.041552
  32 H :    0.035546

-------------------------------
LOEWDIN REDUCED ORBITAL CHARGES
-------------------------------
  0 N s       :     3.057941  s :     3.057941
      pz      :     1.435232  p :     3.829876
      px      :     1.199047
      py      :     1.195597
      dz2     :     0.004292  d :     0.076005
      dxz     :     0.007014
      dyz     :     0.011567
      dx2y2   :     0.026858
      dxy     :     0.026274
  1 C s       :     3.199160  s :     3.199160
      pz      :     0.775820  p :     2.979962
      px      :     0.826016
      py      :     1.378126
      dz2     :     0.017795  d :     0.143197
      dxz     :     0.027064
      dyz     :     0.012854
      dx2y2   :     0.019602
      dxy     :     0.065881
  2 N s       :     3.057942  s :     3.057942
      pz      :     1.435229  p :     3.829875
      px      :     1.199044
      py      :     1.195602
      dz2     :     0.004292  d :     0.076005
      dxz     :     0.007014
      dyz     :     0.011567
      dx2y2   :     0.026857
      dxy     :     0.026275
  3 C s       :     2.837928  s :     2.837928
      pz      :     1.065063  p :     3.067649
      px      :     1.053077
      py      :     0.949510
      dz2     :     0.009668  d :     0.140212
      dxz     :     0.019524
      dyz     :     0.019794
      dx2y2   :     0.053239
      dxy     :     0.037987
  4 C s       :     2.837930  s :     2.837930
      pz      :     1.065057  p :     3.067647
      px      :     1.053084
      py      :     0.949505
      dz2     :     0.009668  d :     0.140212
      dxz     :     0.019523
      dyz     :     0.019796
      dx2y2   :     0.053241
      dxy     :     0.037984
  5 C s       :     2.828857  s :     2.828857
      pz      :     1.047894  p :     3.012827
      px      :     0.922980
      py      :     1.041954
      dz2     :     0.029904  d :     0.133218
      dxz     :     0.036064
      dyz     :     0.012092
      dx2y2   :     0.031267
      dxy     :     0.023891
  6 C s       :     2.828859  s :     2.828859
[...]
     46      -0.111191   0.020975   0.013722
     47      -0.005705   0.001278   0.000850
     48       0.138379  -0.020262  -0.013194
     49      -0.029309   0.004346   0.002838
     50      -0.234630   0.034441   0.022438
     51       0.146268  -0.025032  -0.016828
     52      -0.544463   0.091051   0.061002
     53      -0.043477   0.006779   0.004504
     54       0.003075  -0.027400  -0.017881
     55      -0.001920   0.014691   0.009535
     56       0.004235  -0.035437  -0.023151
     57      -0.030453   0.040591   0.026675
     58      -0.017071   0.022122   0.014557
     59       0.000869  -0.000732  -0.000517
     60       0.006860  -0.021888  -0.014839
     61      -0.030185   0.114017   0.078106
     62      -0.006636   0.017757   0.011969
     63      -0.007079  -0.021879   0.014795
     64      -0.031030  -0.114023   0.077910
     65       0.006882   0.017761  -0.011941
     66      -0.003008  -0.027397   0.017834
     67      -0.001901  -0.014696   0.009514
     68      -0.004166  -0.035439   0.023093
     69       0.031896   0.040602  -0.026613
     70      -0.017881  -0.022124   0.014520
     71      -0.000911  -0.000728   0.000514
     72      -0.146638  -0.020305   0.013183
     73      -0.031042  -0.004353   0.002834
     74       0.248600   0.034510  -0.022416
     75      -0.154928  -0.025075   0.016807
     76      -0.576778  -0.091223   0.060938
     77       0.046093   0.006798  -0.004503
     78       0.191395   0.033185  -0.021445
     79      -0.117732  -0.021007   0.013703
     80       0.006060   0.001284  -0.000851
     81       0.031440  -0.034343  -0.049099
     82      -0.004578   0.013464   0.016219
     83       0.060787  -0.087519  -0.116671
     84      -0.024377  -0.282870  -0.303217
     85      -0.041202  -0.462488  -0.493668
     86      -0.009559  -0.102388  -0.107783
     87      -0.070526  -0.278397  -0.246814
     88      -0.007254  -0.026336  -0.022808
     89       0.065562   0.268394   0.239255
     90      -0.033426  -0.034550   0.049154
     91      -0.004865  -0.013522   0.016231
     92      -0.064569  -0.087947   0.116735
     93       0.026509  -0.283427   0.302927
     94      -0.044758   0.463296  -0.493090
     95       0.010383  -0.102581   0.107674
     96       0.075861  -0.278460   0.246215
     97      -0.007796   0.026339  -0.022750
     98      -0.070559   0.268506  -0.238720


-----------
IR SPECTRUM
-----------

 Mode   freq       eps      Int      T**2         TX        TY        TZ
       cm**-1   L/(mol*cm) km/mol    a.u.
----------------------------------------------------------------------------
  6:     37.75   0.000049    0.25  0.000406  ( 0.004462 -0.000002 -0.019657)
  7:     48.43   0.000001    0.00  0.000004  (-0.000005 -0.002107 -0.000021)
  8:     97.97   0.000002    0.01  0.000005  ( 0.000007 -0.002321  0.000028)
  9:    116.68   0.001973    9.97  0.005278  ( 0.008786  0.000007  0.072116)
 10:    174.97   0.000113    0.57  0.000202  (-0.000195  0.012211  0.007238)
 11:    174.98   0.000341    1.72  0.000608  (-0.000094 -0.024394  0.003631)
 12:    192.25   0.000020    0.10  0.000033  (-0.000000  0.005729 -0.000011)
 13:    215.90   0.000095    0.48  0.000137  ( 0.000007 -0.011718 -0.000018)
 14:    230.69   0.000051    0.26  0.000069  ( 0.006088  0.000003 -0.005674)
 15:    233.74   0.000007    0.04  0.000009  ( 0.000020 -0.003067  0.000004)
 16:    239.09   0.000331    1.67  0.000432  ( 0.019477  0.000010 -0.007263)
 17:    270.89   0.000159    0.81  0.000184  (-0.013027  0.000000  0.003734)
 18:    273.26   0.000000    0.00  0.000000  (-0.000019  0.000271  0.000013)
 19:    283.60   0.000026    0.13  0.000029  (-0.000011  0.005383  0.000015)
 20:    294.59   0.000242    1.22  0.000256  (-0.000356  0.000006 -0.015996)
 21:    333.78   0.000035    0.18  0.000033  (-0.000005  0.005747  0.000005)
 22:    343.05   0.000686    3.47  0.000624  (-0.024401 -0.000000  0.005337)
 23:    392.75   0.001933    9.77  0.001536  (-0.007080 -0.000001 -0.038546)
 24:    408.32   0.002598   13.13  0.001986  (-0.001811  0.000002  0.044524)
 25:    461.99   0.000284    1.43  0.000192  (-0.000004  0.013842 -0.000004)
 26:    491.03   0.000030    0.15  0.000019  (-0.000001 -0.004368 -0.000000)
 27:    554.15   0.002286   11.55  0.001287  ( 0.035876  0.000002  0.000270)
 28:    606.01   0.000004    0.02  0.000002  ( 0.000002 -0.001397 -0.000002)
 29:    652.51   0.000071    0.36  0.000034  (-0.004617 -0.000002 -0.003524)
 30:    680.19   0.000305    1.54  0.000140  ( 0.010051  0.000004 -0.006252)
 31:    706.09   0.000000    0.00  0.000000  (-0.000001  0.000189 -0.000000)
 32:    750.58   0.001211    6.12  0.000503  ( 0.000001 -0.022434  0.000005)
 33:    776.99   0.001599    8.08  0.000642  ( 0.025287  0.000001 -0.001617)
 34:    913.07   0.001003    5.07  0.000343  ( 0.000001  0.018513 -0.000004)
 35:    927.25   0.000762    3.85  0.000256  (-0.005303 -0.000008 -0.015109)
 36:    927.41   0.000011    0.06  0.000004  ( 0.000005 -0.001950  0.000033)
 37:    934.44   0.002357   11.91  0.000787  (-0.028018  0.000001  0.001482)
 38:    957.58   0.000014    0.07  0.000004  (-0.000094  0.002048  0.000449)
 39:    957.65   0.000134    0.68  0.000044  (-0.001322 -0.000141  0.006479)
 40:    974.15   0.000001    0.00  0.000000  ( 0.000002 -0.000463 -0.000002)
 41:   1037.47   0.001182    5.98  0.000356  ( 0.011568 -0.000000 -0.014895)
 42:   1040.58   0.004817   24.34  0.001445  (-0.036699  0.000001 -0.009894)
 43:   1064.00   0.000240    1.21  0.000070  (-0.000001  0.008383  0.000002)
 44:   1081.05   0.005270   26.63  0.001521  (-0.000002  0.039003 -0.000003)
 45:   1129.33   0.002872   14.51  0.000793  ( 0.028127  0.000004  0.001531)
 46:   1170.97   0.004105   20.75  0.001094  (-0.003674  0.000003 -0.032873)
 47:   1171.14   0.000002    0.01  0.000000  (-0.000040 -0.000559 -0.000387)
 48:   1173.91   0.000320    1.61  0.000085  ( 0.000003 -0.009216  0.000013)
 49:   1191.07   0.001187    6.00  0.000311  ( 0.017637 -0.000000 -0.000239)
 50:   1210.57   0.000010    0.05  0.000003  ( 0.000003 -0.001606  0.000000)
 51:   1274.59   0.019245   97.26  0.004712  ( 0.068635  0.000002  0.001064)
 52:   1329.31   0.000620    3.13  0.000145  (-0.000002 -0.012059  0.000000)
 53:   1343.06   0.004317   21.82  0.001003  (-0.031628 -0.000001  0.001664)
 54:   1352.30   0.000052    0.27  0.000012  (-0.000373  0.003447  0.000288)
 55:   1352.32   0.000189    0.95  0.000044  (-0.005233 -0.000250  0.004019)
 56:   1392.92   0.000037    0.19  0.000008  ( 0.000009  0.002885  0.000011)
 57:   1398.50   0.000001    0.01  0.000000  ( 0.000100  0.000308  0.000370)
 58:   1398.82   0.010132   51.20  0.002260  ( 0.008408 -0.000006  0.046793)
 59:   1400.04   0.004301   21.74  0.000959  ( 0.028248  0.000003 -0.012682)
 60:   1402.35   0.001052    5.32  0.000234  ( 0.000017 -0.015299 -0.000000)
 61:   1404.07   0.000443    2.24  0.000099  ( 0.005968  0.000020  0.007933)
 62:   1432.58   0.006705   33.88  0.001460  ( 0.000149  0.038216 -0.000006)
 63:   1433.25   0.046298  233.97  0.010080  (-0.100396  0.000047  0.001038)
 64:   1438.58   0.006138   31.02  0.001332  ( 0.000018 -0.036491 -0.000001)
 65:   1443.51   0.004242   21.44  0.000917  (-0.001563  0.000003  0.030243)
 66:   1446.47   0.000372    1.88  0.000080  (-0.008261 -0.000019  0.003460)
 67:   1447.00   0.000007    0.04  0.000001  (-0.000057  0.001221  0.000036)
 68:   1452.12   0.000907    4.58  0.000195  ( 0.000016 -0.013957 -0.000007)
 69:   1453.06   0.003246   16.40  0.000697  (-0.026184 -0.000007  0.003384)
 70:   1456.69   0.003612   18.25  0.000774  ( 0.000002 -0.027816  0.000008)
 71:   1462.29   0.001029    5.20  0.000220  ( 0.005968 -0.000009 -0.013567)
 72:   1465.94   0.000643    3.25  0.000137  ( 0.009711  0.000005  0.006517)
 73:   1466.97   0.001112    5.62  0.000237  (-0.000017 -0.015379  0.000007)
 74:   1473.44   0.002917   14.74  0.000618  ( 0.000034 -0.024856 -0.000003)
 75:   1474.43   0.005914   29.89  0.001252  (-0.035140 -0.000019  0.004114)
 76:   1480.79   0.000013    0.07  0.000003  ( 0.000004 -0.001676 -0.000002)
 77:   1492.08   0.005375   27.17  0.001124  (-0.033428 -0.000002 -0.002616)
 78:   1736.09   0.000820    4.14  0.000147  (-0.000001  0.012137 -0.000000)
 79:   3069.22   0.009797   49.51  0.000996  (-0.004996  0.000133  0.031163)
 80:   3069.26   0.000085    0.43  0.000009  (-0.000357 -0.001841  0.002259)
 81:   3073.48   0.003647   18.43  0.000370  (-0.011628 -0.000001 -0.015331)
 82:   3073.59   0.000001    0.00  0.000000  ( 0.000002 -0.000304  0.000018)
 83:   3078.87   0.012712   64.24  0.001288  ( 0.035674  0.000007  0.003977)
 84:   3081.32   0.004926   24.89  0.000499  ( 0.000004 -0.022335  0.000005)
 85:   3127.43   0.002722   13.76  0.000272  (-0.000023 -0.016482 -0.000011)
 86:   3127.60   0.000651    3.29  0.000065  (-0.007252  0.000053 -0.003519)
 87:   3166.23   0.005047   25.51  0.000497  ( 0.000447 -0.000046 -0.022299)
 88:   3167.01   0.000471    2.38  0.000046  (-0.000002  0.006810 -0.000117)
 89:   3171.71   0.005467   27.63  0.000538  ( 0.005021  0.000024 -0.022643)
 90:   3171.73   0.000101    0.51  0.000010  ( 0.000051 -0.003143 -0.000174)
 91:   3172.90   0.013274   67.08  0.001306  (-0.035985 -0.000074 -0.003257)
 92:   3172.93   0.000314    1.59  0.000031  (-0.000438  0.005540 -0.000047)
 93:   3175.92   0.000290    1.47  0.000029  (-0.005237  0.000225 -0.001018)
 94:   3176.52   0.011817   59.72  0.001161  (-0.000031 -0.034072 -0.000003)
 95:   3183.04   0.000468    2.37  0.000046  (-0.001192  0.000921  0.006604)
 96:   3183.09   0.010247   51.78  0.001005  ( 0.000033  0.031695 -0.000192)
 97:   3191.37   0.003643   18.41  0.000356  ( 0.018579 -0.000005 -0.003331)
 98:   3195.76   0.000386    1.95  0.000038  ( 0.000013  0.006142 -0.000006)

* The epsilon (eps) is given for a Dirac delta lineshape.
** The dipole moment derivative (T) already includes vibrational overlap.

The first frequency considered to be a vibration is 6
The total number of vibrations considered is 93


--------------------------
THERMOCHEMISTRY AT 298.15K
--------------------------

Temperature         ... 298.15 K
Pressure            ... 1.00 atm
Total Mass          ... 180.29 AMU

Throughout the following assumptions are being made:
  (1) The electronic state is orbitally nondegenerate
  (2) There are no thermally accessible electronically excited states
  (3) Hindered rotations indicated by low frequency modes are not
      treated as such but are treated as vibrations and this may
      cause some error
  (4) All equations used are the standard statistical mechanics
      equations for an ideal gas
  (5) All vibrations are strictly harmonic

freq.      37.75  E(vib)   ...       0.54 
freq.      48.43  E(vib)   ...       0.53 
freq.      97.97  E(vib)   ...       0.46 
freq.     116.68  E(vib)   ...       0.44 
freq.     174.97  E(vib)   ...       0.38 
freq.     174.98  E(vib)   ...       0.38 
freq.     192.25  E(vib)   ...       0.36 
freq.     215.90  E(vib)   ...       0.34 
freq.     230.69  E(vib)   ...       0.32 
freq.     233.74  E(vib)   ...       0.32 
freq.     239.09  E(vib)   ...       0.32 
freq.     270.89  E(vib)   ...       0.29 
freq.     273.26  E(vib)   ...       0.29 
freq.     283.60  E(vib)   ...       0.28 
freq.     294.59  E(vib)   ...       0.27 
freq.     333.78  E(vib)   ...       0.24 
freq.     343.05  E(vib)   ...       0.23 
freq.     392.75  E(vib)   ...       0.20 
freq.     408.32  E(vib)   ...       0.19 
freq.     461.99  E(vib)   ...       0.16 
freq.     491.03  E(vib)   ...       0.14 
freq.     554.15  E(vib)   ...       0.12 
freq.     606.01  E(vib)   ...       0.10 
freq.     652.51  E(vib)   ...       0.08 
freq.     680.19  E(vib)   ...       0.08 
freq.     706.09  E(vib)   ...       0.07 
freq.     750.58  E(vib)   ...       0.06 
freq.     776.99  E(vib)   ...       0.05 
freq.     913.07  E(vib)   ...       0.03 
freq.     927.25  E(vib)   ...       0.03 
freq.     927.41  E(vib)   ...       0.03 
freq.     934.44  E(vib)   ...       0.03 
freq.     957.58  E(vib)   ...       0.03 
freq.     957.65  E(vib)   ...       0.03 
freq.     974.15  E(vib)   ...       0.03 
freq.    1037.47  E(vib)   ...       0.02 
freq.    1040.58  E(vib)   ...       0.02 
freq.    1064.00  E(vib)   ...       0.02 
freq.    1081.05  E(vib)   ...       0.02 
freq.    1129.33  E(vib)   ...       0.01 
freq.    1170.97  E(vib)   ...       0.01 
freq.    1171.14  E(vib)   ...       0.01 
freq.    1173.91  E(vib)   ...       0.01 
freq.    1191.07  E(vib)   ...       0.01 
freq.    1210.57  E(vib)   ...       0.01 
freq.    1274.59  E(vib)   ...       0.01 
freq.    1329.31  E(vib)   ...       0.01 
freq.    1343.06  E(vib)   ...       0.01 
freq.    1352.30  E(vib)   ...       0.01 
freq.    1352.32  E(vib)   ...       0.01 
freq.    1392.92  E(vib)   ...       0.00 
freq.    1398.50  E(vib)   ...       0.00 
freq.    1398.82  E(vib)   ...       0.00 
freq.    1400.04  E(vib)   ...       0.00 
freq.    1402.35  E(vib)   ...       0.00 
freq.    1404.07  E(vib)   ...       0.00 
freq.    1432.58  E(vib)   ...       0.00 
freq.    1433.25  E(vib)   ...       0.00 
freq.    1438.58  E(vib)   ...       0.00 
freq.    1443.51  E(vib)   ...       0.00 
freq.    1446.47  E(vib)   ...       0.00 
freq.    1447.00  E(vib)   ...       0.00 
freq.    1452.12  E(vib)   ...       0.00 
freq.    1453.06  E(vib)   ...       0.00 
freq.    1456.69  E(vib)   ...       0.00 
freq.    1462.29  E(vib)   ...       0.00 
freq.    1465.94  E(vib)   ...       0.00 
freq.    1466.97  E(vib)   ...       0.00 
freq.    1473.44  E(vib)   ...       0.00 
freq.    1474.43  E(vib)   ...       0.00 
freq.    1480.79  E(vib)   ...       0.00 
freq.    1492.08  E(vib)   ...       0.00 
freq.    1736.09  E(vib)   ...       0.00 
freq.    3069.22  E(vib)   ...       0.00 
freq.    3069.26  E(vib)   ...       0.00 
freq.    3073.48  E(vib)   ...       0.00 
freq.    3073.59  E(vib)   ...       0.00 
freq.    3078.87  E(vib)   ...       0.00 
freq.    3081.32  E(vib)   ...       0.00 
freq.    3127.43  E(vib)   ...       0.00 
freq.    3127.60  E(vib)   ...       0.00 
freq.    3166.23  E(vib)   ...       0.00 
freq.    3167.01  E(vib)   ...       0.00 
freq.    3171.71  E(vib)   ...       0.00 
freq.    3171.73  E(vib)   ...       0.00 
freq.    3172.90  E(vib)   ...       0.00 
freq.    3172.93  E(vib)   ...       0.00 
freq.    3175.92  E(vib)   ...       0.00 
freq.    3176.52  E(vib)   ...       0.00 
freq.    3183.04  E(vib)   ...       0.00 
freq.    3183.09  E(vib)   ...       0.00 
freq.    3191.37  E(vib)   ...       0.00 
freq.    3195.76  E(vib)   ...       0.00 

------------
INNER ENERGY
------------

The inner energy is: U= E(el) + E(ZPE) + E(vib) + E(rot) + E(trans)
    E(el)   - is the total energy from the electronic structure calculation
              = E(kin-el) + E(nuc-el) + E(el-el) + E(nuc-nuc)
    E(ZPE)  - the the zero temperature vibrational energy from the frequency calculation
    E(vib)  - the the finite temperature correction to E(ZPE) due to population
              of excited vibrational states
    E(rot)  - is the rotational thermal energy
    E(trans)- is the translational thermal energy

Summary of contributions to the inner energy U:
Electronic energy                ...   -540.19323378 Eh
Zero point energy                ...      0.29806723 Eh     187.04 kcal/mol
Thermal vibrational correction   ...      0.01224207 Eh       7.68 kcal/mol
Thermal rotational correction    ...      0.00141627 Eh       0.89 kcal/mol
Thermal translational correction ...      0.00141627 Eh       0.89 kcal/mol
-----------------------------------------------------------------------
Total thermal energy                   -539.88009194 Eh


Summary of corrections to the electronic energy:
(perhaps to be used in another calculation)
Total thermal correction                  0.01507461 Eh       9.46 kcal/mol
Non-thermal (ZPE) correction              0.29806723 Eh     187.04 kcal/mol
-----------------------------------------------------------------------
Total correction                          0.31314184 Eh     196.50 kcal/mol


--------
ENTHALPY
--------

The enthalpy is H = U + kB*T
                kB is Boltzmann's constant
Total free energy                 ...   -539.88009194 Eh 
Thermal Enthalpy correction       ...      0.00094421 Eh       0.59 kcal/mol
-----------------------------------------------------------------------
Total Enthalpy                    ...   -539.87914773 Eh


Note: Only C1 symmetry has been detected, increase convergence thresholds 
      if your molecule has a higher symmetry. Symmetry factor of 1.0 is   
      used for the rotational entropy correction. 
 

Note: Rotational entropy computed according to Herzberg 
Infrared and Raman Spectra, Chapter V,1, Van Nostrand Reinhold, 1945 
Point Group:  C1, Symmetry Number:   1  
Rotational constants in cm-1:     0.047070     0.016360     0.014499 

Vibrational entropy computed according to the QRRHO of S. Grimme
Chem.Eur.J. 2012 18 9955


-------
ENTROPY
-------

The entropy contributions are T*S = T*(S(el)+S(vib)+S(rot)+S(trans))
     S(el)   - electronic entropy
     S(vib)  - vibrational entropy
     S(rot)  - rotational entropy
     S(trans)- translational entropy
The entropies will be listed as multiplied by the temperature to get
units of energy

Electronic entropy                ...      0.00000000 Eh      0.00 kcal/mol
Vibrational entropy               ...      0.02111799 Eh     13.25 kcal/mol
Rotational entropy                ...      0.01489392 Eh      9.35 kcal/mol
Translational entropy             ...      0.01970603 Eh     12.37 kcal/mol
-----------------------------------------------------------------------
Final entropy term                ...      0.05571794 Eh     34.96 kcal/mol

In case the symmetry of your molecule has not been determined correctly
or in case you have a reason to use a different symmetry number we print 
out the resulting rotational entropy values for sn=1,12 :
 --------------------------------------------------------
|  sn= 1 | S(rot)=       0.01489392 Eh      9.35 kcal/mol|
|  sn= 2 | S(rot)=       0.01423947 Eh      8.94 kcal/mol|
|  sn= 3 | S(rot)=       0.01385663 Eh      8.70 kcal/mol|
|  sn= 4 | S(rot)=       0.01358501 Eh      8.52 kcal/mol|
|  sn= 5 | S(rot)=       0.01337432 Eh      8.39 kcal/mol|
|  sn= 6 | S(rot)=       0.01320218 Eh      8.28 kcal/mol|
|  sn= 7 | S(rot)=       0.01305663 Eh      8.19 kcal/mol|
|  sn= 8 | S(rot)=       0.01293055 Eh      8.11 kcal/mol|
|  sn= 9 | S(rot)=       0.01281934 Eh      8.04 kcal/mol|
|  sn=10 | S(rot)=       0.01271987 Eh      7.98 kcal/mol|
|  sn=11 | S(rot)=       0.01262987 Eh      7.93 kcal/mol|
|  sn=12 | S(rot)=       0.01254772 Eh      7.87 kcal/mol|
 --------------------------------------------------------


-------------------
GIBBS FREE ENERGY
-------------------

The Gibbs free energy is G = H - T*S

Total enthalpy                    ...   -539.87914773 Eh 
Total entropy correction          ...     -0.05571794 Eh    -34.96 kcal/mol
-----------------------------------------------------------------------
Final Gibbs free energy         ...   -539.93486567 Eh

For completeness - the Gibbs free energy minus the electronic energy
G-E(el)                           ...      0.25836811 Eh    162.13 kcal/mol


Timings for individual modules:

Sum of individual times         ...     6726.222 sec (= 112.104 min)
GTO integral calculation        ...        3.321 sec (=   0.055 min)   0.0 %
SCF iterations                  ...     3369.527 sec (=  56.159 min)  50.1 %
SCF Gradient evaluation         ...      877.300 sec (=  14.622 min)  13.0 %
Geometry relaxation             ...        0.624 sec (=   0.010 min)   0.0 %
Analytical frequency calculation...     2475.450 sec (=  41.258 min)  36.8 %
                             ****ORCA TERMINATED NORMALLY****
TOTAL RUN TIME: 0 days 1 hours 52 minutes 7 seconds 497 msec
