
                                 *****************
                                 * O   R   C   A *
                                 *****************

                                            #,                                       
                                            ###                                      
                                            ####                                     
                                            #####                                    
                                            ######                                   
                                           ########,                                 
                                     ,,################,,,,,                         
                               ,,#################################,,                 
                          ,,##########################################,,             
                       ,#########################################, ''#####,          
                    ,#############################################,,   '####,        
                  ,##################################################,,,,####,       
                ,###########''''           ''''###############################       
              ,#####''   ,,,,##########,,,,          '''####'''          '####       
            ,##' ,,,,###########################,,,                        '##       
           ' ,,###''''                  '''############,,,                           
         ,,##''                                '''############,,,,        ,,,,,,###''
      ,#''                                            '''#######################'''  
     '                                                          ''''####''''         
             ,#######,   #######,   ,#######,      ##                                
            ,#'     '#,  ##    ##  ,#'     '#,    #''#        ######   ,####,        
            ##       ##  ##   ,#'  ##            #'  '#       #        #'  '#        
            ##       ##  #######   ##           ,######,      #####,   #    #        
            '#,     ,#'  ##    ##  '#,     ,#' ,#      #,         ##   #,  ,#        
             '#######'   ##     ##  '#######'  #'      '#     #####' # '####'        



                  #######################################################
                  #                        -***-                        #
                  #          Department of theory and spectroscopy      #
                  #    Directorship and core code : Frank Neese         #
                  #        Max Planck Institute fuer Kohlenforschung    #
                  #                Kaiser Wilhelm Platz 1               #
                  #                 D-45470 Muelheim/Ruhr               #
                  #                      Germany                        #
                  #                                                     #
                  #                  All rights reserved                #
                  #                        -***-                        #
                  #######################################################


                         Program Version 5.0.4 -  RELEASE  -


 With contributions from (in alphabetic order):
   Daniel Aravena         : Magnetic Suceptibility
   Michael Atanasov       : Ab Initio Ligand Field Theory (pilot matlab implementation)
   Alexander A. Auer      : GIAO ZORA, VPT2 properties, NMR spectrum
   Ute Becker             : Parallelization
   Giovanni Bistoni       : ED, misc. LED, open-shell LED, HFLD
   Martin Brehm           : Molecular dynamics
   Dmytro Bykov           : SCF Hessian
   Vijay G. Chilkuri      : MRCI spin determinant printing, contributions to CSF-ICE
   Dipayan Datta          : RHF DLPNO-CCSD density
   Achintya Kumar Dutta   : EOM-CC, STEOM-CC
   Dmitry Ganyushin       : Spin-Orbit,Spin-Spin,Magnetic field MRCI
   Miquel Garcia          : C-PCM and meta-GGA Hessian, CC/C-PCM, Gaussian charge scheme
   Yang Guo               : DLPNO-NEVPT2, F12-NEVPT2, CIM, IAO-localization
   Andreas Hansen         : Spin unrestricted coupled pair/coupled cluster methods
   Benjamin Helmich-Paris : MC-RPA, TRAH-SCF, COSX integrals
   Lee Huntington         : MR-EOM, pCC
   Robert Izsak           : Overlap fitted RIJCOSX, COSX-SCS-MP3, EOM
   Marcus Kettner         : VPT2
   Christian Kollmar      : KDIIS, OOCD, Brueckner-CCSD(T), CCSD density, CASPT2, CASPT2-K
   Simone Kossmann        : Meta GGA functionals, TD-DFT gradient, OOMP2, MP2 Hessian
   Martin Krupicka        : Initial AUTO-CI
   Lucas Lang             : DCDCAS
   Marvin Lechner         : AUTO-CI (C++ implementation), FIC-MRCC
   Dagmar Lenk            : GEPOL surface, SMD
   Dimitrios Liakos       : Extrapolation schemes; Compound Job, initial MDCI parallelization
   Dimitrios Manganas     : Further ROCIS development; embedding schemes
   Dimitrios Pantazis     : SARC Basis sets
   Anastasios Papadopoulos: AUTO-CI, single reference methods and gradients
   Taras Petrenko         : DFT Hessian,TD-DFT gradient, ASA, ECA, R-Raman, ABS, FL, XAS/XES, NRVS
   Peter Pinski           : DLPNO-MP2, DLPNO-MP2 Gradient
   Christoph Reimann      : Effective Core Potentials
   Marius Retegan         : Local ZFS, SOC
   Christoph Riplinger    : Optimizer, TS searches, QM/MM, DLPNO-CCSD(T), (RO)-DLPNO pert. Triples
   Tobias Risthaus        : Range-separated hybrids, TD-DFT gradient, RPA, STAB
   Michael Roemelt        : Original ROCIS implementation
   Masaaki Saitow         : Open-shell DLPNO-CCSD energy and density
   Barbara Sandhoefer     : DKH picture change effects
   Avijit Sen             : IP-ROCIS
   Kantharuban Sivalingam : CASSCF convergence, NEVPT2, FIC-MRCI
   Bernardo de Souza      : ESD, SOC TD-DFT
   Georgi Stoychev        : AutoAux, RI-MP2 NMR, DLPNO-MP2 response
   Willem Van den Heuvel  : Paramagnetic NMR
   Boris Wezisla          : Elementary symmetry handling
   Frank Wennmohs         : Technical directorship


 We gratefully acknowledge several colleagues who have allowed us to
 interface, adapt or use parts of their codes:
   Stefan Grimme, W. Hujo, H. Kruse, P. Pracht,  : VdW corrections, initial TS optimization,
                  C. Bannwarth, S. Ehlert          DFT functionals, gCP, sTDA/sTD-DF
   Ed Valeev, F. Pavosevic, A. Kumar             : LibInt (2-el integral package), F12 methods
   Garnet Chan, S. Sharma, J. Yang, R. Olivares  : DMRG
   Ulf Ekstrom                                   : XCFun DFT Library
   Mihaly Kallay                                 : mrcc  (arbitrary order and MRCC methods)
   Jiri Pittner, Ondrej Demel                    : Mk-CCSD
   Frank Weinhold                                : gennbo (NPA and NBO analysis)
   Christopher J. Cramer and Donald G. Truhlar   : smd solvation model
   Lars Goerigk                                  : TD-DFT with DH, B97 family of functionals
   V. Asgeirsson, H. Jonsson                     : NEB implementation
   FAccTs GmbH                                   : IRC, NEB, NEB-TS, DLPNO-Multilevel, CI-OPT
                                                   MM, QMMM, 2- and 3-layer-ONIOM, Crystal-QMMM,
                                                   LR-CPCM, SF, NACMEs, symmetry and pop. for TD-DFT,
                                                   nearIR, NL-DFT gradient (VV10), updates on ESD,
                                                   ML-optimized integration grids
   S Lehtola, MJT Oliveira, MAL Marques          : LibXC Library
   Liviu Ungur et al                             : ANISO software


 Your calculation uses the libint2 library for the computation of 2-el integrals
 For citations please refer to: http://libint.valeyev.net

 Your ORCA version has been built with support for libXC version: 5.1.0
 For citations please refer to: https://tddft.org/programs/libxc/

 This ORCA versions uses:
   CBLAS   interface :  Fast vector & matrix operations
   LAPACKE interface :  Fast linear algebra routines
   SCALAPACK package :  Parallel linear algebra routines
   Shared memory     :  Shared parallel matrices
   BLAS/LAPACK       :  OpenBLAS 0.3.15  USE64BITINT DYNAMIC_ARCH NO_AFFINITY SkylakeX SINGLE_THREADED
        Core in use  :  SkylakeX
   Copyright (c) 2011-2014, The OpenBLAS Project




***************************************
The coordinates will be read from file: 6_deprot_aq_5.xyz
***************************************


Your calculation utilizes the atom-pairwise dispersion correction
based on tight binding partial charges (D4)
Cite in your paper:
E.Caldeweyher, C.Bannwarth, S.Grimme, J.Chem.Phys., (2017), 147, 034112.
E.Caldeweyher, S.Ehlert, A.Hansen, H.Neugebauer, S.Grimme, J.Chem.Phys., (2018), in progress.
   

XCFun DFT library Copyright 2009-2010 Ulf Ekstrom and contributors.
See http://admol.org/xcfun for more information.
This is free software; see the source code for copying conditions.
There is ABSOLUTELY NO WARRANTY; not even for MERCHANTABILITY or FITNESS FOR A PARTICULAR PURPOSE.
For details see the documentation.
Scientific users of this library should cite U. Ekstrom, L. Visscher, R. Bast, A. J. Thorvaldsen and K. Ruud;
J.Chem.Theor.Comp. 2010, DOI: 10.1021/ct100117s
XCFun Version 0.99 

================================================================================

----- Orbital basis set information -----
Your calculation utilizes the basis: def2-SVP
   F. Weigend and R. Ahlrichs, Phys. Chem. Chem. Phys. 7, 3297 (2005).

----- AuxJ basis set information -----
Your calculation utilizes the auxiliary basis: def2/J
   F. Weigend, Phys. Chem. Chem. Phys. 8, 1057 (2006).

================================================================================
                                        WARNINGS
                       Please study these warnings very carefully!
================================================================================


WARNING: Geometry Optimization
  ===> : Switching off AutoStart
         For restart on a previous wavefunction, please use MOREAD

INFO   : the flag for use of the SHARK integral package has been found!

================================================================================
                                       INPUT FILE
================================================================================
NAME = 6_deprot_aq_5.inp
|  1> # ORCA 5.0.4 - /users/bwb16179/postgrad/2024_03/DFT_Crest_Conformers/Opt/deprot/6_deprot_aq_5.inp # write input file
|  2> # Basic Mode
|  3> #
|  4> ! Opt Freq wB97X Def2-SVP D4 SlowConv TightSCF Defgrid2 Def2/J RIJCOSX CPCM(Water)
|  5> 
|  6> 
|  7> 
|  8> %maxcore 4500
|  9> 
| 10> %geom
| 11> Maxiter 150
| 12> END
| 13> 
| 14> * xyzfile 0 1 6_deprot_aq_5.xyz
| 15> 
| 16>                          ****END OF INPUT****
================================================================================

                       *****************************
                       * Geometry Optimization Run *
                       *****************************

Geometry optimization settings:
Update method            Update   .... BFGS
Choice of coordinates    CoordSys .... Z-matrix Internals
Initial Hessian          InHess   .... Almoef's Model

Convergence Tolerances:
Energy Change            TolE     ....  5.0000e-06 Eh
Max. Gradient            TolMAXG  ....  3.0000e-04 Eh/bohr
RMS Gradient             TolRMSG  ....  1.0000e-04 Eh/bohr
Max. Displacement        TolMAXD  ....  4.0000e-03 bohr
RMS Displacement         TolRMSD  ....  2.0000e-03 bohr
Strict Convergence                ....  False
------------------------------------------------------------------------------
                        ORCA OPTIMIZATION COORDINATE SETUP
------------------------------------------------------------------------------

The optimization will be done in new redundant internal coordinates
Making redundant internal coordinates   ...  (new redundants) done
Evaluating the initial hessian          ...  (Almloef) done
Evaluating the coordinates              ...  done
Calculating the B-matrix                .... done
Calculating the G-matrix                .... done
Diagonalizing the G-matrix              .... done
Small eigenvalue found = 1.331e-02
Small eigenvalue found = 1.940e-02
Small eigenvalue found = 2.209e-02
The first mode is                       ....   77
The number of degrees of freedom        ....   93

    -----------------------------------------------------------------
                    Redundant Internal Coordinates


    -----------------------------------------------------------------
         Definition                    Initial Value    Approx d2E/dq
    -----------------------------------------------------------------
      1. B(C   1,N   0)                  1.3559         0.634252   
      2. B(N   2,C   1)                  1.3582         0.628927   
      3. B(C   3,N   2)                  1.3848         0.570425   
      4. B(C   4,N   0)                  1.3806         0.579355   
      5. B(C   4,C   3)                  1.3621         0.692172   
      6. B(C   5,N   0)                  1.4452         0.456838   
      7. B(C   6,N   2)                  1.4466         0.454483   
      8. B(C   7,C   5)                  1.5268         0.377978   
      9. B(H   8,C   5)                  1.0959         0.352343   
     10. B(C   9,C   5)                  1.5303         0.373228   
     11. B(H  10,C   6)                  1.0975         0.350328   
     12. B(C  11,C   6)                  1.5298         0.373888   
     13. B(C  12,C   6)                  1.5293         0.374475   
     14. B(C  13,C   3)                  1.4888         0.434655   
     15. B(C  14,C   4)                  1.4887         0.434825   
     16. B(H  15,C   9)                  1.0870         0.364146   
     17. B(H  16,C   9)                  1.0869         0.364179   
     18. B(H  17,C   9)                  1.0883         0.362404   
     19. B(H  18,C   7)                  1.0859         0.365571   
     20. B(H  19,C   7)                  1.0874         0.363509   
     21. B(H  20,C   7)                  1.0868         0.364338   
     22. B(H  21,C  12)                  1.0876         0.363229   
     23. B(H  22,C  12)                  1.0871         0.363960   
     24. B(H  23,C  12)                  1.0866         0.364667   
     25. B(H  24,C  11)                  1.0871         0.363954   
     26. B(H  25,C  11)                  1.0876         0.363247   
     27. B(H  26,C  11)                  1.0867         0.364501   
     28. B(H  27,C  14)                  1.0907         0.359220   
     29. B(H  28,C  14)                  1.0914         0.358310   
     30. B(H  29,C  14)                  1.0867         0.364429   
     31. B(H  30,C  13)                  1.0875         0.363450   
     32. B(H  31,C  13)                  1.0896         0.360569   
     33. B(H  32,C  13)                  1.0891         0.361337   
     34. A(C   4,N   0,C   5)          125.7477         0.400919   
     35. A(C   1,N   0,C   5)          122.4268         0.407376   
     36. A(C   1,N   0,C   4)          111.7685         0.424965   
     37. A(N   0,C   1,N   2)          103.9175         0.431267   
     38. A(C   1,N   2,C   6)          118.7894         0.406398   
     39. A(C   1,N   2,C   3)          111.7419         0.423148   
     40. A(C   3,N   2,C   6)          129.4687         0.399461   
     41. A(N   2,C   3,C  13)          125.7056         0.398892   
     42. A(C   4,C   3,C  13)          128.2179         0.415448   
     43. A(N   2,C   3,C   4)          106.0760         0.433307   
     44. A(N   0,C   4,C   3)          106.4931         0.434520   
     45. A(N   0,C   4,C  14)          123.1193         0.400011   
     46. A(C   3,C   4,C  14)          130.3872         0.415477   
     47. A(N   0,C   5,C   9)          109.6266         0.373712   
     48. A(H   8,C   5,C   9)          109.1736         0.323113   
     49. A(C   7,C   5,H   8)          109.1398         0.323784   
     50. A(C   7,C   5,C   9)          110.8552         0.364022   
     51. A(N   0,C   5,H   8)          108.3030         0.332056   
     52. A(N   0,C   5,C   7)          109.6965         0.374528   
     53. A(H  10,C   6,C  11)          108.1411         0.322902   
     54. A(N   2,C   6,C  11)          112.6043         0.373493   
     55. A(C  11,C   6,C  12)          111.4955         0.363553   
     56. A(H  10,C   6,C  12)          108.1997         0.322985   
     57. A(N   2,C   6,C  12)          112.5853         0.373594   
     58. A(N   2,C   6,H  10)          103.3046         0.331457   
     59. A(H  19,C   7,H  20)          108.9201         0.291807   
     60. A(H  18,C   7,H  20)          109.6322         0.292066   
     61. A(C   5,C   7,H  20)          110.3081         0.325569   
     62. A(H  18,C   7,H  19)          108.4413         0.291962   
     63. A(C   5,C   7,H  19)          110.3035         0.325447   
     64. A(C   5,C   7,H  18)          109.2062         0.325750   
     65. A(H  16,C   9,H  17)          108.7413         0.291647   
     66. A(C   5,C   9,H  16)          110.4853         0.324870   
     67. A(H  15,C   9,H  16)          109.2021         0.291867   
     68. A(H  15,C   9,H  17)          108.5681         0.291643   
     69. A(C   5,C   9,H  15)          109.2637         0.324865   
     70. A(C   5,C   9,H  17)          110.5428         0.324609   
     71. A(H  25,C  11,H  26)          108.9122         0.291794   
     72. A(H  24,C  11,H  26)          108.1131         0.291883   
     73. A(H  24,C  11,H  25)          108.5762         0.291725   
     74. A(C   6,C  11,H  25)          110.0712         0.324827   
     75. A(C   6,C  11,H  24)          109.5275         0.324931   
     76. A(C   6,C  11,H  26)          111.5705         0.325011   
     77. A(H  22,C  12,H  23)          108.1604         0.291905   
     78. A(H  21,C  12,H  23)          108.9302         0.291813   
     79. A(C   6,C  12,H  23)          111.5115         0.325120   
     80. A(H  21,C  12,H  22)          108.5787         0.291724   
     81. A(C   6,C  12,H  22)          109.5304         0.325016   
     82. A(C   6,C  12,H  21)          110.0618         0.324909   
     83. A(H  31,C  13,H  32)          108.5457         0.291056   
     84. A(H  30,C  13,H  32)          107.9476         0.291420   
     85. A(H  30,C  13,H  31)          107.8787         0.291322   
     86. A(C   3,C  13,H  31)          111.3772         0.332596   
     87. A(C   3,C  13,H  30)          109.4989         0.333035   
     88. A(C   3,C  13,H  32)          111.4652         0.332713   
     89. A(H  28,C  14,H  29)          108.1009         0.291158   
     90. A(H  27,C  14,H  29)          108.2296         0.291274   
     91. A(C   4,C  14,H  29)          110.1938         0.333205   
     92. A(H  27,C  14,H  28)          108.2752         0.290500   
     93. A(C   4,C  14,H  28)          110.9848         0.332271   
     94. A(C   4,C  14,H  27)          110.9570         0.332411   
     95. D(N   2,C   1,N   0,C   4)     -0.5195         0.029614   
     96. D(N   2,C   1,N   0,C   5)   -177.9200         0.029614   
     97. D(C   3,N   2,C   1,N   0)      0.2856         0.029082   
     98. D(C   6,N   2,C   1,N   0)   -179.6877         0.029082   
     99. D(C  13,C   3,N   2,C   1)   -179.6896         0.026043   
    100. D(C   4,C   3,N   2,C   6)   -179.9843         0.026043   
    101. D(C  13,C   3,N   2,C   6)      0.2801         0.026043   
    102. D(C   4,C   3,N   2,C   1)      0.0460         0.026043   
    103. D(C  14,C   4,C   3,N   2)    179.8939         0.033680   
    104. D(C  14,C   4,N   0,C   5)     -2.3660         0.026917   
    105. D(N   0,C   4,C   3,N   2)     -0.3552         0.033680   
    106. D(N   0,C   4,C   3,C  13)    179.3715         0.033680   
    107. D(C   3,C   4,N   0,C   5)    177.8606         0.026917   
    108. D(C   3,C   4,N   0,C   1)      0.5642         0.026917   
    109. D(C  14,C   4,C   3,C  13)     -0.3794         0.033680   
    110. D(C  14,C   4,N   0,C   1)   -179.6624         0.026917   
    111. D(H   8,C   5,N   0,C   4)     17.6726         0.017811   
    112. D(C   9,C   5,N   0,C   4)   -101.3548         0.017811   
    113. D(H   8,C   5,N   0,C   1)   -165.3022         0.017811   
    114. D(C   9,C   5,N   0,C   1)     75.6703         0.017811   
    115. D(C   7,C   5,N   0,C   1)    -46.2753         0.017811   
    116. D(C   7,C   5,N   0,C   4)    136.6995         0.017811   
    117. D(C  12,C   6,N   2,C   3)    -62.9889         0.017625   
    118. D(C  11,C   6,N   2,C   3)     64.1012         0.017625   
    119. D(C  11,C   6,N   2,C   1)   -115.9309         0.017625   
    120. D(C  12,C   6,N   2,C   1)    116.9790         0.017625   
    121. D(H  10,C   6,N   2,C   3)   -179.4740         0.017625   
    122. D(H  10,C   6,N   2,C   1)      0.4939         0.017625   
    123. D(H  18,C   7,C   5,H   8)    177.3321         0.011393   
    124. D(H  18,C   7,C   5,N   0)     58.8217         0.011393   
    125. D(H  18,C   7,C   5,C   9)    -62.3869         0.011393   
    126. D(H  20,C   7,C   5,C   9)     58.1626         0.011393   
    127. D(H  20,C   7,C   5,H   8)    -62.1184         0.011393   
    128. D(H  19,C   7,C   5,C   9)    178.5315         0.011393   
    129. D(H  20,C   7,C   5,N   0)    179.3712         0.011393   
    130. D(H  19,C   7,C   5,H   8)     58.2504         0.011393   
    131. D(H  19,C   7,C   5,N   0)    -60.2599         0.011393   
    132. D(H  17,C   9,C   5,H   8)    -59.7611         0.011124   
    133. D(H  17,C   9,C   5,C   7)    179.9780         0.011124   
    134. D(H  17,C   9,C   5,N   0)     58.7282         0.011124   
    135. D(H  16,C   9,C   5,H   8)     60.6550         0.011124   
    136. D(H  16,C   9,C   5,C   7)    -59.6059         0.011124   
    137. D(H  16,C   9,C   5,N   0)    179.1443         0.011124   
    138. D(H  15,C   9,C   5,H   8)   -179.1799         0.011124   
    139. D(H  15,C   9,C   5,C   7)     60.5592         0.011124   
    140. D(H  15,C   9,C   5,N   0)    -60.6906         0.011124   
    141. D(H  26,C  11,C   6,H  10)    171.4684         0.011161   
    142. D(H  26,C  11,C   6,N   2)    -75.0328         0.011161   
    143. D(H  25,C  11,C   6,C  12)    173.6662         0.011161   
    144. D(H  25,C  11,C   6,H  10)    -67.5001         0.011161   
    145. D(H  25,C  11,C   6,N   2)     45.9986         0.011161   
    146. D(H  24,C  11,C   6,C  12)    -67.0295         0.011161   
    147. D(H  24,C  11,C   6,H  10)     51.8041         0.011161   
    148. D(H  26,C  11,C   6,C  12)     52.6348         0.011161   
    149. D(H  24,C  11,C   6,N   2)    165.3029         0.011161   
    150. D(H  23,C  12,C   6,N   2)     74.0484         0.011194   
    151. D(H  22,C  12,C   6,C  11)     66.0584         0.011194   
    152. D(H  22,C  12,C   6,H  10)    -52.7403         0.011194   
    153. D(H  22,C  12,C   6,N   2)   -166.2638         0.011194   
    154. D(H  21,C  12,C   6,C  11)   -174.6382         0.011194   
    155. D(H  21,C  12,C   6,H  10)     66.5631         0.011194   
    156. D(H  23,C  12,C   6,H  10)   -172.4281         0.011194   
    157. D(H  21,C  12,C   6,N   2)    -46.9604         0.011194   
    158. D(H  23,C  12,C   6,C  11)    -53.6294         0.011194   
    159. D(H  32,C  13,C   3,C   4)    121.9569         0.013947   
    160. D(H  32,C  13,C   3,N   2)    -58.3665         0.013947   
    161. D(H  31,C  13,C   3,C   4)   -116.6482         0.013947   
    162. D(H  31,C  13,C   3,N   2)     63.0284         0.013947   
    163. D(H  30,C  13,C   3,C   4)      2.5840         0.013947   
    164. D(H  30,C  13,C   3,N   2)   -177.7394         0.013947   
    165. D(H  29,C  14,C   4,C   3)     -3.1759         0.013957   
    166. D(H  29,C  14,C   4,N   0)    177.1093         0.013957   
    167. D(H  28,C  14,C   4,C   3)    116.5354         0.013957   
    168. D(H  28,C  14,C   4,N   0)    -63.1794         0.013957   
    169. D(H  27,C  14,C   4,C   3)   -123.0302         0.013957   
    170. D(H  27,C  14,C   4,N   0)     57.2550         0.013957   
    -----------------------------------------------------------------

Number of atoms                         .... 33
Number of degrees of freedom            .... 170

         *************************************************************
         *                GEOMETRY OPTIMIZATION CYCLE   1            *
         *************************************************************
---------------------------------
CARTESIAN COORDINATES (ANGSTROEM)
---------------------------------
  N     -1.160081   -0.086531   -0.073373
  C     -0.181181   -1.014344   -0.212705
  N      0.966795   -0.299460   -0.086939
  C      0.712996    1.044051    0.132576
  C     -0.642797    1.174567    0.145667
  C     -2.563445   -0.431030   -0.097363
  C      2.233152   -0.990790   -0.192559
  C     -2.842389   -1.372065   -1.266890
  H     -3.141725    0.490185   -0.231573
  C     -2.955758   -1.081682    1.230950
  H      1.938047   -2.031861   -0.375772
  C      3.037951   -0.945613    1.107617
  C      3.065331   -0.513530   -1.383608
  C      1.742198    2.105395    0.307940
  C     -1.493937    2.380211    0.340927
  H     -2.372521   -1.987937    1.372417
  H     -4.013229   -1.333025    1.233733
  H     -2.754536   -0.407007    2.060795
  H     -2.234222   -2.265258   -1.159612
  H     -2.584734   -0.891419   -2.207691
  H     -3.893774   -1.646517   -1.287722
  H      2.445670   -0.464902   -2.276147
  H      3.877339   -1.213594   -1.563432
  H      3.497393    0.466506   -1.200623
  H      3.838020   -1.680395    1.065454
  H      2.395257   -1.181296    1.952804
  H      3.485073    0.031933    1.266956
  H     -2.177805    2.243293    1.179456
  H     -2.085141    2.590060   -0.552102
  H     -0.873291    3.248253    0.546651
  H      1.252945    3.056638    0.503844
  H      2.350717    2.220576   -0.588590
  H      2.400450    1.887350    1.147718

----------------------------
CARTESIAN COORDINATES (A.U.)
----------------------------
  NO LB      ZA    FRAG     MASS         X           Y           Z
   0 N     7.0000    0    14.007   -2.192235   -0.163521   -0.138654
   1 C     6.0000    0    12.011   -0.342382   -1.916832   -0.401954
   2 N     7.0000    0    14.007    1.826978   -0.565898   -0.164291
   3 C     6.0000    0    12.011    1.347367    1.972971    0.250533
   4 C     6.0000    0    12.011   -1.214710    2.219611    0.275270
   5 C     6.0000    0    12.011   -4.844208   -0.814529   -0.183989
   6 C     6.0000    0    12.011    4.220046   -1.872322   -0.363884
   7 C     6.0000    0    12.011   -5.371338   -2.592828   -2.394074
   8 H     1.0000    0     1.008   -5.937001    0.926316   -0.437610
   9 C     6.0000    0    12.011   -5.585574   -2.044082    2.326159
  10 H     1.0000    0     1.008    3.662378   -3.839660   -0.710106
  11 C     6.0000    0    12.011    5.740896   -1.786950    2.093094
  12 C     6.0000    0    12.011    5.792636   -0.970432   -2.614641
  13 C     6.0000    0    12.011    3.292278    3.978619    0.581922
  14 C     6.0000    0    12.011   -2.823132    4.497947    0.644258
  15 H     1.0000    0     1.008   -4.483415   -3.756657    2.593493
  16 H     1.0000    0     1.008   -7.583903   -2.519052    2.331418
  17 H     1.0000    0     1.008   -5.205319   -0.769131    3.894338
  18 H     1.0000    0     1.008   -4.222067   -4.280717   -2.191348
  19 H     1.0000    0     1.008   -4.884439   -1.684538   -4.171932
  20 H     1.0000    0     1.008   -7.358166   -3.111466   -2.433442
  21 H     1.0000    0     1.008    4.621646   -0.878538   -4.301295
  22 H     1.0000    0     1.008    7.327108   -2.293360   -2.954457
  23 H     1.0000    0     1.008    6.609114    0.881569   -2.268849
  24 H     1.0000    0     1.008    7.252807   -3.175485    2.013416
  25 H     1.0000    0     1.008    4.526380   -2.232326    3.690265
  26 H     1.0000    0     1.008    6.585833    0.060344    2.394199
  27 H     1.0000    0     1.008   -4.115455    4.239209    2.228849
  28 H     1.0000    0     1.008   -3.940346    4.894505   -1.043321
  29 H     1.0000    0     1.008   -1.650281    6.138308    1.033020
  30 H     1.0000    0     1.008    2.367723    5.776209    0.952127
  31 H     1.0000    0     1.008    4.442212    4.196281   -1.112274
  32 H     1.0000    0     1.008    4.536193    3.566574    2.168872

--------------------------------
INTERNAL COORDINATES (ANGSTROEM)
--------------------------------
 N      0   0   0     0.000000000000     0.00000000     0.00000000
 C      1   0   0     1.355911100166     0.00000000     0.00000000
 N      2   1   0     1.358206244545   103.91753685     0.00000000
 C      3   2   1     1.384783095119   111.74193295     0.28559288
 C      4   3   2     1.362123134450   106.07595392     0.04595003
 C      1   2   3     1.445228204203   122.42679694   182.08000069
 C      3   2   1     1.446634884231   118.78935885   180.31225884
 C      6   1   2     1.526810597809   109.69649616   313.72469617
 H      6   1   2     1.095928122149   108.30299895   194.69779337
 C      6   1   2     1.530252714373   109.62662891    75.67034936
 H      7   3   2     1.097489039289   103.30457561     0.49391388
 C      7   3   2     1.529771837820   112.60426462   244.06909737
 C      7   3   2     1.529344956792   112.58525289   116.97899320
 C      4   3   2     1.488778118532   125.70555101   180.31038266
 C      5   4   3     1.488671696203   130.38715809   179.89394681
 H     10   6   1     1.086958252138   109.26371990   299.30940739
 H     10   6   1     1.086933655008   110.48528522   179.14429107
 H     10   6   1     1.088264143726   110.54281705    58.72818229
 H      8   6   1     1.085895709040   109.20618042    58.82170876
 H      8   6   1     1.087435085071   110.30353026   299.74006736
 H      8   6   1     1.086814937535   110.30808116   179.37124355
 H     13   7   3     1.087644698529   110.06182098   313.03962950
 H     13   7   3     1.087097976410   109.53041340   193.73621971
 H     13   7   3     1.086569155925   111.51152100    74.04840412
 H     12   7   3     1.087102182435   109.52750128   165.30287662
 H     12   7   3     1.087631745308   110.07120672    45.99864413
 H     12   7   3     1.086693501469   111.57053449   284.96716325
 H     15   5   4     1.090666357062   110.95698595   236.96983814
 H     15   5   4     1.091356569528   110.98481787   116.53540600
 H     15   5   4     1.086747418791   110.19377733   356.82405841
 H     14   4   3     1.087479314494   109.49890514   182.26057385
 H     14   4   3     1.089645717226   111.37722378    63.02838371
 H     14   4   3     1.089066466207   111.46518344   301.63351729

---------------------------
INTERNAL COORDINATES (A.U.)
---------------------------
 N      0   0   0     0.000000000000     0.00000000     0.00000000
 C      1   0   0     2.562300641257     0.00000000     0.00000000
 N      2   1   0     2.566637835571   103.91753685     0.00000000
 C      3   2   1     2.616860804658   111.74193295     0.28559288
 C      4   3   2     2.574039684788   106.07595392     0.04595003
 C      1   2   3     2.731085506963   122.42679694   182.08000069
 C      3   2   1     2.733743746973   118.78935885   180.31225884
 C      6   1   2     2.885253888227   109.69649616   313.72469617
 H      6   1   2     2.071004013324   108.30299895   194.69779337
 C      6   1   2     2.891758545855   109.62662891    75.67034936
 H      7   3   2     2.073953719236   103.30457561     0.49391388
 C      7   3   2     2.890849820865   112.60426462   244.06909737
 C      7   3   2     2.890043132630   112.58525289   116.97899320
 C      4   3   2     2.813382918200   125.70555101   180.31038266
 C      5   4   3     2.813181809143   130.38715809   179.89394681
 H     10   6   1     2.054053415547   109.26371990   299.30940739
 H     10   6   1     2.054006933707   110.48528522   179.14429107
 H     10   6   1     2.056521193009   110.54281705    58.72818229
 H      8   6   1     2.052045500086   109.20618042    58.82170876
 H      8   6   1     2.054954499201   110.30353026   299.74006736
 H      8   6   1     2.053782590196   110.30808116   179.37124355
 H     13   7   3     2.055350611232   110.06182098   313.03962950
 H     13   7   3     2.054317456155   109.53041340   193.73621971
 H     13   7   3     2.053318130264   111.51152100    74.04840412
 H     12   7   3     2.054325404391   109.52750128   165.30287662
 H     12   7   3     2.055326133190   110.07120672    45.99864413
 H     12   7   3     2.053553109289   111.57053449   284.96716325
 H     15   5   4     2.061060718329   110.95698595   236.96983814
 H     15   5   4     2.062365030864   110.98481787   116.53540600
 H     15   5   4     2.053654998260   110.19377733   356.82405841
 H     14   4   3     2.055038080698   109.49890514   182.26057385
 H     14   4   3     2.059131988558   111.37722378    63.02838371
 H     14   4   3     2.058037362768   111.46518344   301.63351729

---------------------
BASIS SET INFORMATION
---------------------
There are 3 groups of distinct atoms

 Group   1 Type N   : 7s4p1d contracted to 3s2p1d pattern {511/31/1}
 Group   2 Type C   : 7s4p1d contracted to 3s2p1d pattern {511/31/1}
 Group   3 Type H   : 4s1p contracted to 2s1p pattern {31/1}

Atom   0N    basis set group =>   1
Atom   1C    basis set group =>   2
Atom   2N    basis set group =>   1
Atom   3C    basis set group =>   2
Atom   4C    basis set group =>   2
Atom   5C    basis set group =>   2
Atom   6C    basis set group =>   2
Atom   7C    basis set group =>   2
Atom   8H    basis set group =>   3
Atom   9C    basis set group =>   2
Atom  10H    basis set group =>   3
Atom  11C    basis set group =>   2
Atom  12C    basis set group =>   2
Atom  13C    basis set group =>   2
Atom  14C    basis set group =>   2
Atom  15H    basis set group =>   3
Atom  16H    basis set group =>   3
Atom  17H    basis set group =>   3
Atom  18H    basis set group =>   3
Atom  19H    basis set group =>   3
Atom  20H    basis set group =>   3
Atom  21H    basis set group =>   3
Atom  22H    basis set group =>   3
Atom  23H    basis set group =>   3
Atom  24H    basis set group =>   3
Atom  25H    basis set group =>   3
Atom  26H    basis set group =>   3
Atom  27H    basis set group =>   3
Atom  28H    basis set group =>   3
Atom  29H    basis set group =>   3
Atom  30H    basis set group =>   3
Atom  31H    basis set group =>   3
Atom  32H    basis set group =>   3
---------------------------------
AUXILIARY/J BASIS SET INFORMATION
---------------------------------
There are 3 groups of distinct atoms

 Group   1 Type N   : 12s5p4d2f1g contracted to 6s4p3d1f1g pattern {711111/2111/211/2/1}
 Group   2 Type C   : 12s5p4d2f1g contracted to 6s4p3d1f1g pattern {711111/2111/211/2/1}
 Group   3 Type H   : 5s2p1d contracted to 3s1p1d pattern {311/2/1}

Atom   0N    basis set group =>   1
Atom   1C    basis set group =>   2
Atom   2N    basis set group =>   1
Atom   3C    basis set group =>   2
Atom   4C    basis set group =>   2
Atom   5C    basis set group =>   2
Atom   6C    basis set group =>   2
Atom   7C    basis set group =>   2
Atom   8H    basis set group =>   3
Atom   9C    basis set group =>   2
Atom  10H    basis set group =>   3
Atom  11C    basis set group =>   2
Atom  12C    basis set group =>   2
Atom  13C    basis set group =>   2
Atom  14C    basis set group =>   2
Atom  15H    basis set group =>   3
Atom  16H    basis set group =>   3
Atom  17H    basis set group =>   3
Atom  18H    basis set group =>   3
Atom  19H    basis set group =>   3
Atom  20H    basis set group =>   3
Atom  21H    basis set group =>   3
Atom  22H    basis set group =>   3
Atom  23H    basis set group =>   3
Atom  24H    basis set group =>   3
Atom  25H    basis set group =>   3
Atom  26H    basis set group =>   3
Atom  27H    basis set group =>   3
Atom  28H    basis set group =>   3
Atom  29H    basis set group =>   3
Atom  30H    basis set group =>   3
Atom  31H    basis set group =>   3
Atom  32H    basis set group =>   3
------------------------------------------------------------------------------
                           ORCA GTO INTEGRAL CALCULATION
                           -- RI-GTO INTEGRALS CHOSEN --
------------------------------------------------------------------------------
------------------------------------------------------------------------------
                   ___                                                        
                  /   \      - P O W E R E D   B Y -                         
                 /     \                                                     
                 |  |  |   _    _      __       _____    __    __             
                 |  |  |  | |  | |    /  \     |  _  \  |  |  /  |          
                  \  \/   | |  | |   /    \    | | | |  |  | /  /          
                 / \  \   | |__| |  /  /\  \   | |_| |  |  |/  /          
                |  |  |   |  __  | /  /__\  \  |    /   |      \           
                |  |  |   | |  | | |   __   |  |    \   |  |\   \          
                \     /   | |  | | |  |  |  |  | |\  \  |  | \   \       
                 \___/    |_|  |_| |__|  |__|  |_| \__\ |__|  \__/        
                                                                              
                      - O R C A' S   B I G   F R I E N D -                    
                                      &                                       
                       - I N T E G R A L  F E E D E R -                       
                                                                              
 v1 FN, 2020, v2 2021                                                         
------------------------------------------------------------------------------


Reading SHARK input file 6_deprot_aq_5.SHARKINP.tmp ... ok
----------------------
SHARK INTEGRAL PACKAGE
----------------------

Number of atoms                             ...     33
Number of basis functions                   ...    282
Number of shells                            ...    138
Maximum angular momentum                    ...      2
Integral batch strategy                     ... SHARK/LIBINT Hybrid
RI-J (if used) integral strategy            ... SPLIT-RIJ (Revised 2003 algorithm where possible)
Printlevel                                  ...      1
Contraction scheme used                     ... SEGMENTED contraction
Coulomb Range Separation                    ... NOT USED
Exchange Range Separation                   ... Long Range
   Mu parameter                             ...  0.300000
   Scaling (regular/separated)              ...  0.157706  0.842294
Finite Nucleus Model                        ... NOT USED
Auxiliary Coulomb fitting basis             ... AVAILABLE
   # of basis functions in Aux-J            ...    857
   # of shells in Aux-J                     ...    295
   Maximum angular momentum in Aux-J        ...      4
Auxiliary J/K fitting basis                 ... NOT available
Auxiliary Correlation fitting basis         ... NOT available
Auxiliary 'external' fitting basis          ... NOT available
Integral threshold                          ...     2.500000e-11
Primitive cut-off                           ...     2.500000e-12
Primitive pair pre-selection threshold      ...     2.500000e-12

Calculating pre-screening integrals         ... done (  0.1 sec) Dimension = 138
Organizing shell pair data                  ... done (  0.1 sec)
Shell pair information
Total number of shell pairs                 ...      9591
Shell pairs after pre-screening             ...      8241
Total number of primitive shell pairs       ...     33125
Primitive shell pairs kept                  ...     19786
          la=0 lb=0:   2820 shell pairs
          la=1 lb=0:   3109 shell pairs
          la=1 lb=1:    882 shell pairs
          la=2 lb=0:    865 shell pairs
          la=2 lb=1:    488 shell pairs
          la=2 lb=2:     77 shell pairs

Calculating one electron integrals          ... done (  0.1 sec)
Calculating RI/J V-Matrix + Cholesky decomp.... done (  0.1 sec)
Calculating Nuclear repulsion               ... done (  0.0 sec) ENN=    857.564126571528 Eh

SHARK setup successfully completed in   0.4 seconds

Maximum memory used throughout the entire GTOINT-calculation: 47.7 MB
-------------------------------------------------------------------------------
                                 ORCA SCF
-------------------------------------------------------------------------------

------------
SCF SETTINGS
------------
Hamiltonian:
 Density Functional     Method          .... DFT(GTOs)
 Exchange Functional    Exchange        .... WB97X
 Correlation Functional Correlation     .... WB97X
 Gradients option       PostSCFGGA      .... off
 Hybrid DFT is turned on
   Fraction HF Exchange ScalHFX         ....  0.157706
   Scaling of DF-GGA-X  ScalDFX         ....  0.000000
   Scaling of DF-GGA-C  ScalDFC         ....  1.000000
   Scaling of DF-LDA-C  ScalLDAC        ....  1.000000
   Perturbative correction              ....  0.000000
   Density functional embedding theory  .... OFF
 Long-range corrected/Screened/Range-Separated Hybrid DFT is turned on
   Amount of maximum screened exact exchange              ....  0.842294
   Range separation parameter mu (erf(mu*r12)/r12)        ....  0.300000
 RI-approximation to the Coulomb term is turned on
   Number of AuxJ basis functions       .... 857
   RIJ-COSX (HFX calculated with COS-X)).... on


General Settings:
 Integral files         IntName         .... 6_deprot_aq_5
 Hartree-Fock type      HFTyp           .... RHF
 Total Charge           Charge          ....    0
 Multiplicity           Mult            ....    1
 Number of Electrons    NEL             ....  100
 Basis Dimension        Dim             ....  282
 Nuclear Repulsion      ENuc            ....    857.5641265715 Eh

Convergence Acceleration:
 DIIS                   CNVDIIS         .... on
   Start iteration      DIISMaxIt       ....     0
   Startup error        DIISStart       ....  0.200000
   # of expansion vecs  DIISMaxEq       ....     5
   Bias factor          DIISBfac        ....   1.050
   Max. coefficient     DIISMaxC        ....  10.000
 Trust-Rad. Augm. Hess. CNVTRAH         .... auto
   Auto Start mean grad. ratio tolernc. ....  1.125000
   Auto Start start iteration           ....    20
   Auto Start num. interpolation iter.  ....    10
   Max. Number of Micro iterations      ....    16
   Max. Number of Macro iterations      .... Maxiter - #DIIS iter
   Number of Davidson start vectors     ....     2
   Converg. threshold I  (grad. norm)   ....   1.000e-05
   Converg. threshold II (energy diff.) ....   1.000e-08
   Grad. Scal. Fac. for Micro threshold ....   0.100
   Minimum threshold for Micro iter.    ....   0.010
   NR start threshold (gradient norm)   ....   0.001
   Initial trust radius                 ....   0.400
   Minimum AH scaling param. (alpha)    ....   1.000
   Maximum AH scaling param. (alpha)    .... 1000.000
   Orbital update algorithm             .... Taylor
   White noise on init. David. guess    .... on
   Maximum white noise                  ....   0.010
   Quad. conv. algorithm                .... NR
 SOSCF                  CNVSOSCF        .... on
   Start iteration      SOSCFMaxIt      ....   150
   Startup grad/error   SOSCFStart      ....  0.001000
 Level Shifting         CNVShift        .... on
   Level shift para.    LevelShift      ....    0.2500
   Turn off err/grad.   ShiftErr        ....    0.0000
 Zerner damping         CNVZerner       .... off
 Static damping         CNVDamp         .... on
   Fraction old density DampFac         ....    0.8500
   Max. Damping (<1)    DampMax         ....    0.9800
   Min. Damping (>=0)   DampMin         ....    0.0000
   Turn off err/grad.   DampErr         ....    0.0300
 Fernandez-Rico         CNVRico         .... off

SCF Procedure:
 Maximum # iterations   MaxIter         ....   125
 SCF integral mode      SCFMode         .... Direct
   Integral package                     .... SHARK and LIBINT hybrid scheme
 Reset frequency        DirectResetFreq ....    20
 Integral Threshold     Thresh          ....  2.500e-11 Eh
 Primitive CutOff       TCut            ....  2.500e-12 Eh

Convergence Tolerance:
 Convergence Check Mode ConvCheckMode   .... Total+1el-Energy
 Convergence forced     ConvForced      .... 0
 Energy Change          TolE            ....  1.000e-08 Eh
 1-El. energy change                    ....  1.000e-05 Eh
 Orbital Gradient       TolG            ....  1.000e-05
 Orbital Rotation angle TolX            ....  1.000e-05
 DIIS Error             TolErr          ....  5.000e-07


Diagonalization of the overlap matrix:
Smallest eigenvalue                        ... 8.616e-04
Time for diagonalization                   ...    0.014 sec
Threshold for overlap eigenvalues          ... 1.000e-08
Number of eigenvalues below threshold      ... 0
Time for construction of square roots      ...    0.007 sec
Total time needed                          ...    0.021 sec

Time for model grid setup =    0.741 sec

------------------------------
INITIAL GUESS: MODEL POTENTIAL
------------------------------
Loading Hartree-Fock densities                     ... done
Calculating cut-offs                               ... done
Initializing the effective Hamiltonian             ... done
Setting up the integral package (SHARK)            ... done
Starting the Coulomb interaction                   ... done (   0.8 sec)
Reading the grid                                   ... done
Mapping shells                                     ... done
Starting the XC term evaluation                    ... done (   0.8 sec)
  promolecular density results
     # of electrons  =     99.985092471
     EX              =    -75.328804940
     EC              =     -3.314027210
     EX+EC           =    -78.642832150
Transforming the Hamiltonian                       ... done (   0.0 sec)
Diagonalizing the Hamiltonian                      ... done (   0.0 sec)
Back transforming the eigenvectors                 ... done (   0.0 sec)
Now organizing SCF variables                       ... done
                      ------------------
                      INITIAL GUESS DONE (   2.5 sec)
                      ------------------
-------------------
DFT GRID GENERATION
-------------------

General Integration Accuracy     IntAcc      ... 4.388
Radial Grid Type                 RadialGrid  ... OptM3 with GC (2021)
Angular Grid (max. ang.)         AngularGrid ... 4 (Lebedev-302)
Angular grid pruning method      GridPruning ... 4 (adaptive)
Weight generation scheme         WeightScheme... Becke
Basis function cutoff            BFCut       ... 1.0000e-11
Integration weight cutoff        WCut        ... 1.0000e-14
Angular grids for H and He will be reduced by one unit
Partially contracted basis set               ... off
Rotationally invariant grid construction     ... off

Total number of grid points                  ...   141213
Total number of batches                      ...     2223
Average number of points per batch           ...       63
Average number of grid points per atom       ...     4279
Time for grid setup =    2.689 sec

--------------------
COSX GRID GENERATION
--------------------

GRIDX 1
-------
General Integration Accuracy     IntAcc      ... 3.816
Radial Grid Type                 RadialGrid  ... OptM3 with GC (2021)
Angular Grid (max. ang.)         AngularGrid ... 1 (Lebedev-50)
Angular grid pruning method      GridPruning ... 4 (adaptive)
Weight generation scheme         WeightScheme... Becke
Basis function cutoff            BFCut       ... 1.0000e-11
Integration weight cutoff        WCut        ... 1.0000e-14
Angular grids for H and He will be reduced by one unit
Partially contracted basis set               ... on
Rotationally invariant grid construction     ... off

Total number of grid points                  ...    18068
Total number of batches                      ...      301
Average number of points per batch           ...       60
Average number of grid points per atom       ...      548
UseSFitting                                  ... on

GRIDX 2
-------
General Integration Accuracy     IntAcc      ... 4.020
Radial Grid Type                 RadialGrid  ... OptM3 with GC (2021)
Angular Grid (max. ang.)         AngularGrid ... 2 (Lebedev-110)
Angular grid pruning method      GridPruning ... 4 (adaptive)
Weight generation scheme         WeightScheme... Becke
Basis function cutoff            BFCut       ... 1.0000e-11
Integration weight cutoff        WCut        ... 1.0000e-14
Angular grids for H and He will be reduced by one unit
Partially contracted basis set               ... on
Rotationally invariant grid construction     ... off

Total number of grid points                  ...    37608
Total number of batches                      ...      605
Average number of points per batch           ...       62
Average number of grid points per atom       ...     1140
UseSFitting                                  ... on

GRIDX 3
-------
General Integration Accuracy     IntAcc      ... 4.338
Radial Grid Type                 RadialGrid  ... OptM3 with GC (2021)
Angular Grid (max. ang.)         AngularGrid ... 3 (Lebedev-194)
Angular grid pruning method      GridPruning ... 4 (adaptive)
Weight generation scheme         WeightScheme... Becke
Basis function cutoff            BFCut       ... 1.0000e-11
Integration weight cutoff        WCut        ... 1.0000e-14
Angular grids for H and He will be reduced by one unit
Partially contracted basis set               ... on
Rotationally invariant grid construction     ... off

Total number of grid points                  ...    81713
Total number of batches                      ...     1295
Average number of points per batch           ...       63
Average number of grid points per atom       ...     2476
UseSFitting                                  ... on

Time for X-Grid setup             =    3.501 sec


--------------------
CPCM SOLVATION MODEL
--------------------
CPCM parameters:
  Epsilon                                         ...      80.4000
  Refrac                                          ...       1.3300
  Rsolv                                           ...       1.3000
  Surface type                                    ... GAUSSIAN VDW
  Epsilon function type                           ...         CPCM
Radii:
 Radius for N  used is    3.5149 Bohr (=   1.8600 Ang.)
 Radius for C  used is    3.8550 Bohr (=   2.0400 Ang.)
 Radius for H  used is    2.4944 Bohr (=   1.3200 Ang.)
Calculating surface                               ...        done! (  0.0s)
GEPOL surface points                              ...         1713
GEPOL Volume                                      ...    1688.2807
GEPOL Surface-area                                ...     905.1283
Calculating surface distance matrix               ...        done! (  0.0s)
Performing Cholesky decomposition & store         ...        done! (  0.1s)
Overall time for CPCM initialization              ...                 0.1s
--------------
SCF ITERATIONS
--------------
ITER       Energy         Delta-E        Max-DP      RMS-DP      [F,P]     Damp
               ***  Starting incremental Fock matrix formation  ***
  0   -539.8609153693   0.000000000000 0.03853371  0.00069465  0.1569680 0.8500
  1   -539.9272820282  -0.066366658876 0.04105569  0.00065779  0.1267214 0.8500
                               ***Turning on DIIS***
  2   -539.9781153217  -0.050833293525 0.03608555  0.00054045  0.0975563 0.8500
  3   -540.0160632705  -0.037947948775 0.02938328  0.00038739  0.0741832 0.8500
  4   -540.0453732212  -0.029309950688 0.02424515  0.00029705  0.0591775 0.8500
  5   -540.0684611655  -0.023087944368 0.02040296  0.00024348  0.0489827 0.8500
  6   -540.0872025518  -0.018741386297 0.01735328  0.00020529  0.0412146 0.8500
  7   -540.1026851550  -0.015482603142 0.01490492  0.00017662  0.0349053 0.8500
  8   -540.1156118275  -0.012926672519 0.08570013  0.00101400  0.0295157 0.0000
  9   -540.1849370578  -0.069325230348 0.00155513  0.00003712  0.0012573 0.0000
                      *** Initiating the SOSCF procedure ***
                           *** Shutting down DIIS ***
                      *** Re-Reading the Fockian *** 
                      *** Removing any level shift *** 
ITER      Energy       Delta-E        Grad      Rot      Max-DP    RMS-DP
 10   -540.18496406  -0.0000270003  0.000291  0.000291  0.000657  0.000017
               *** Restarting incremental Fock matrix formation ***
 11   -540.18497309  -0.0000090301  0.000232  0.000541  0.000728  0.000013
 12   -540.18497400  -0.0000009089  0.000059  0.000335  0.000254  0.000009
 13   -540.18497420  -0.0000002030  0.000031  0.000027  0.000150  0.000003
 14   -540.18497423  -0.0000000326  0.000007  0.000016  0.000072  0.000001
 15   -540.18497424  -0.0000000027  0.000004  0.000012  0.000022  0.000000
                  ***Gradient check signals convergence***
              ***Rediagonalizing the Fockian in SOSCF/NRSCF***

               *****************************************************
               *                     SUCCESS                       *
               *           SCF CONVERGED AFTER  16 CYCLES          *
               *****************************************************

Old exchange energy                            =    -25.341700788 Eh
New exchange energy                            =    -25.341752680 Eh
Exchange energy change after final integration =     -0.000051892 Eh
Total energy after final integration           =   -540.185026130 Eh
Final COS-X integration done in                =    99.722 sec

----------------
TOTAL SCF ENERGY
----------------

Total Energy       :         -540.18502613 Eh          -14699.18185 eV

Components:
Nuclear Repulsion  :          857.56412657 Eh           23335.50624 eV
Electronic Energy  :        -1397.74915270 Eh          -38034.68809 eV
One Electron Energy:        -2430.39258101 Eh          -66134.34433 eV
Two Electron Energy:         1032.64342831 Eh           28099.65624 eV
Max COSX asymmetry :            0.00000328 Eh               0.00009 eV
CPCM Dielectric    :           -0.01479190 Eh              -0.40251 eV

Virial components:
Potential Energy   :        -1074.13192538 Eh          -29228.61564 eV
Kinetic Energy     :          533.94689925 Eh           14529.43379 eV
Virial Ratio       :            2.01168305


DFT components:
N(Alpha)           :       50.000041802336 electrons
N(Beta)            :       50.000041802336 electrons
N(Total)           :      100.000083604672 electrons
E(XC)              :      -55.558235286326 Eh       
DFET-embed. en.    :        0.000000000000 Eh       
CPCM Solvation Model Properties:
Surface-charge          :           -0.02877214
Charge-correction       :           -0.00050111 Eh              -0.01364 eV
Free-energy (cav+disp)  :  This term is not implemented in the current solvation scheme

---------------
SCF CONVERGENCE
---------------

  Last Energy change         ...   -3.1238e-09  Tolerance :   1.0000e-08
  Last MAX-Density change    ...    3.9968e-15  Tolerance :   1.0000e-07
  Last RMS-Density change    ...    3.8757e-17  Tolerance :   5.0000e-09
  Last Orbital Gradient      ...    7.7093e-07  Tolerance :   1.0000e-05
  Last Orbital Rotation      ...    4.1079e-06  Tolerance :   1.0000e-05

             **** THE GBW FILE WAS UPDATED (6_deprot_aq_5.gbw) ****
             **** DENSITY 6_deprot_aq_5.scfp WAS UPDATED ****
             **** ENERGY FILE WAS UPDATED (6_deprot_aq_5.en.tmp) ****
             **** THE GBW FILE WAS UPDATED (6_deprot_aq_5.gbw) ****
             **** DENSITY 6_deprot_aq_5.scfp WAS UPDATED ****
----------------
ORBITAL ENERGIES
----------------

  NO   OCC          E(Eh)            E(eV) 
   0   2.0000     -14.438938      -392.9035 
   1   2.0000     -14.437255      -392.8577 
   2   2.0000     -10.303886      -280.3830 
   3   2.0000     -10.302788      -280.3531 
   4   2.0000     -10.289508      -279.9917 
   5   2.0000     -10.288925      -279.9759 
   6   2.0000     -10.268865      -279.4300 
   7   2.0000     -10.267882      -279.4033 
   8   2.0000     -10.266465      -279.3647 
   9   2.0000     -10.256492      -279.0933 
  10   2.0000     -10.256439      -279.0919 
  11   2.0000     -10.254824      -279.0480 
  12   2.0000     -10.252432      -278.9829 
  13   2.0000      -1.145064       -31.1588 
  14   2.0000      -1.042979       -28.3809 
  15   2.0000      -0.938359       -25.5340 
  16   2.0000      -0.902338       -24.5539 
  17   2.0000      -0.886826       -24.1318 
  18   2.0000      -0.843910       -22.9640 
  19   2.0000      -0.808694       -22.0057 
  20   2.0000      -0.806057       -21.9339 
  21   2.0000      -0.789434       -21.4816 
  22   2.0000      -0.760859       -20.7040 
  23   2.0000      -0.712622       -19.3914 
  24   2.0000      -0.668242       -18.1838 
  25   2.0000      -0.660456       -17.9719 
  26   2.0000      -0.605841       -16.4858 
  27   2.0000      -0.586208       -15.9515 
  28   2.0000      -0.575030       -15.6474 
  29   2.0000      -0.554134       -15.0788 
  30   2.0000      -0.548716       -14.9313 
  31   2.0000      -0.537334       -14.6216 
  32   2.0000      -0.534764       -14.5517 
  33   2.0000      -0.529464       -14.4074 
  34   2.0000      -0.515082       -14.0161 
  35   2.0000      -0.509719       -13.8702 
  36   2.0000      -0.504991       -13.7415 
  37   2.0000      -0.493224       -13.4213 
  38   2.0000      -0.490851       -13.3567 
  39   2.0000      -0.485365       -13.2074 
  40   2.0000      -0.475303       -12.9337 
  41   2.0000      -0.469563       -12.7775 
  42   2.0000      -0.465009       -12.6535 
  43   2.0000      -0.452977       -12.3261 
  44   2.0000      -0.438747       -11.9389 
  45   2.0000      -0.438030       -11.9194 
  46   2.0000      -0.429572       -11.6893 
  47   2.0000      -0.361062        -9.8250 
  48   2.0000      -0.313781        -8.5384 
  49   2.0000      -0.300300        -8.1716 
  50   0.0000       0.129508         3.5241 
  51   0.0000       0.136253         3.7076 
  52   0.0000       0.141568         3.8523 
  53   0.0000       0.153857         4.1867 
  54   0.0000       0.173853         4.7308 
  55   0.0000       0.184430         5.0186 
  56   0.0000       0.190248         5.1769 
  57   0.0000       0.200699         5.4613 
  58   0.0000       0.206166         5.6101 
  59   0.0000       0.213191         5.8012 
  60   0.0000       0.219017         5.9598 
  61   0.0000       0.230893         6.2829 
  62   0.0000       0.234022         6.3681 
  63   0.0000       0.242472         6.5980 
  64   0.0000       0.245114         6.6699 
  65   0.0000       0.249636         6.7930 
  66   0.0000       0.255407         6.9500 
  67   0.0000       0.266001         7.2382 
  68   0.0000       0.271017         7.3747 
  69   0.0000       0.276254         7.5172 
  70   0.0000       0.282586         7.6896 
  71   0.0000       0.285607         7.7718 
  72   0.0000       0.287756         7.8302 
  73   0.0000       0.289805         7.8860 
  74   0.0000       0.302351         8.2274 
  75   0.0000       0.330250         8.9866 
  76   0.0000       0.338020         9.1980 
  77   0.0000       0.345935         9.4134 
  78   0.0000       0.360781         9.8174 
  79   0.0000       0.371813        10.1176 
  80   0.0000       0.389385        10.5957 
  81   0.0000       0.390914        10.6373 
  82   0.0000       0.393185        10.6991 
  83   0.0000       0.462734        12.5916 
  84   0.0000       0.484365        13.1802 
  85   0.0000       0.500626        13.6227 
  86   0.0000       0.505382        13.7522 
  87   0.0000       0.512038        13.9333 
  88   0.0000       0.518432        14.1073 
  89   0.0000       0.525706        14.3052 
  90   0.0000       0.528556        14.3827 
  91   0.0000       0.545203        14.8357 
  92   0.0000       0.564935        15.3727 
  93   0.0000       0.570888        15.5347 
  94   0.0000       0.582713        15.8564 
  95   0.0000       0.585353        15.9283 
  96   0.0000       0.636132        17.3100 
  97   0.0000       0.643127        17.5004 
  98   0.0000       0.644276        17.5316 
  99   0.0000       0.669136        18.2081 
 100   0.0000       0.672862        18.3095 
 101   0.0000       0.679195        18.4818 
 102   0.0000       0.687810        18.7163 
 103   0.0000       0.691367        18.8131 
 104   0.0000       0.700750        19.0684 
 105   0.0000       0.709358        19.3026 
 106   0.0000       0.711663        19.3653 
 107   0.0000       0.721062        19.6211 
 108   0.0000       0.742376        20.2011 
 109   0.0000       0.749921        20.4064 
 110   0.0000       0.757171        20.6037 
 111   0.0000       0.763000        20.7623 
 112   0.0000       0.767785        20.8925 
 113   0.0000       0.774639        21.0790 
 114   0.0000       0.780870        21.2485 
 115   0.0000       0.786315        21.3967 
 116   0.0000       0.790397        21.5078 
 117   0.0000       0.792680        21.5699 
 118   0.0000       0.793899        21.6031 
 119   0.0000       0.797054        21.6889 
 120   0.0000       0.803194        21.8560 
 121   0.0000       0.805696        21.9241 
 122   0.0000       0.807131        21.9632 
 123   0.0000       0.812617        22.1124 
 124   0.0000       0.818744        22.2791 
 125   0.0000       0.821356        22.3502 
 126   0.0000       0.824329        22.4311 
 127   0.0000       0.830315        22.5940 
 128   0.0000       0.835483        22.7346 
 129   0.0000       0.838412        22.8143 
 130   0.0000       0.841991        22.9117 
 131   0.0000       0.856783        23.3142 
 132   0.0000       0.862082        23.4584 
 133   0.0000       0.865366        23.5478 
 134   0.0000       0.870976        23.7005 
 135   0.0000       0.878144        23.8955 
 136   0.0000       0.892657        24.2904 
 137   0.0000       0.898410        24.4470 
 138   0.0000       0.935173        25.4473 
 139   0.0000       0.979393        26.6506 
 140   0.0000       1.000361        27.2212 
 141   0.0000       1.040453        28.3122 
 142   0.0000       1.067711        29.0539 
 143   0.0000       1.076764        29.3002 
 144   0.0000       1.091345        29.6970 
 145   0.0000       1.131439        30.7880 
 146   0.0000       1.149780        31.2871 
 147   0.0000       1.163353        31.6564 
 148   0.0000       1.175831        31.9960 
 149   0.0000       1.196915        32.5697 
 150   0.0000       1.206423        32.8284 
 151   0.0000       1.227834        33.4111 
 152   0.0000       1.263987        34.3948 
 153   0.0000       1.290400        35.1136 
 154   0.0000       1.300207        35.3804 
 155   0.0000       1.307800        35.5871 
 156   0.0000       1.325484        36.0682 
 157   0.0000       1.356288        36.9065 
 158   0.0000       1.415460        38.5166 
 159   0.0000       1.433315        39.0025 
 160   0.0000       1.438571        39.1455 
 161   0.0000       1.443715        39.2855 
 162   0.0000       1.505345        40.9625 
 163   0.0000       1.539205        41.8839 
 164   0.0000       1.549669        42.1686 
 165   0.0000       1.573582        42.8193 
 166   0.0000       1.583079        43.0778 
 167   0.0000       1.629458        44.3398 
 168   0.0000       1.640123        44.6300 
 169   0.0000       1.653229        44.9866 
 170   0.0000       1.653640        44.9978 
 171   0.0000       1.657588        45.1053 
 172   0.0000       1.663166        45.2570 
 173   0.0000       1.666189        45.3393 
 174   0.0000       1.674528        45.5662 
 175   0.0000       1.677559        45.6487 
 176   0.0000       1.685104        45.8540 
 177   0.0000       1.696723        46.1702 
 178   0.0000       1.710612        46.5481 
 179   0.0000       1.760060        47.8937 
 180   0.0000       1.816441        49.4279 
 181   0.0000       1.829234        49.7760 
 182   0.0000       1.838072        50.0165 
 183   0.0000       1.847386        50.2699 
 184   0.0000       1.862380        50.6779 
 185   0.0000       1.873092        50.9694 
 186   0.0000       1.888136        51.3788 
 187   0.0000       1.895615        51.5823 
 188   0.0000       1.896786        51.6142 
 189   0.0000       1.906858        51.8882 
 190   0.0000       1.912088        52.0306 
 191   0.0000       1.918714        52.2109 
 192   0.0000       1.923567        52.3429 
 193   0.0000       1.929296        52.4988 
 194   0.0000       1.934681        52.6453 
 195   0.0000       1.950094        53.0648 
 196   0.0000       1.952869        53.1403 
 197   0.0000       1.958544        53.2947 
 198   0.0000       1.960339        53.3435 
 199   0.0000       1.969777        53.6004 
 200   0.0000       1.975273        53.7499 
 201   0.0000       1.982846        53.9560 
 202   0.0000       2.000830        54.4453 
 203   0.0000       2.002852        54.5004 
 204   0.0000       2.008286        54.6482 
 205   0.0000       2.010490        54.7082 
 206   0.0000       2.027208        55.1631 
 207   0.0000       2.043486        55.6061 
 208   0.0000       2.066425        56.2303 
 209   0.0000       2.070951        56.3534 
 210   0.0000       2.093821        56.9758 
 211   0.0000       2.099159        57.1210 
 212   0.0000       2.106608        57.3237 
 213   0.0000       2.116723        57.5990 
 214   0.0000       2.138426        58.1895 
 215   0.0000       2.153140        58.5899 
 216   0.0000       2.165437        58.9245 
 217   0.0000       2.174088        59.1599 
 218   0.0000       2.193506        59.6883 
 219   0.0000       2.224725        60.5378 
 220   0.0000       2.265568        61.6492 
 221   0.0000       2.272526        61.8386 
 222   0.0000       2.293300        62.4039 
 223   0.0000       2.305057        62.7238 
 224   0.0000       2.315800        63.0161 
 225   0.0000       2.336103        63.5686 
 226   0.0000       2.341287        63.7097 
 227   0.0000       2.370242        64.4976 
 228   0.0000       2.384484        64.8851 
 229   0.0000       2.389223        65.0141 
 230   0.0000       2.398711        65.2722 
 231   0.0000       2.439159        66.3729 
 232   0.0000       2.460205        66.9456 
 233   0.0000       2.504299        68.1454 
 234   0.0000       2.512612        68.3716 
 235   0.0000       2.526332        68.7450 
 236   0.0000       2.534062        68.9553 
 237   0.0000       2.536871        69.0318 
 238   0.0000       2.560368        69.6712 
 239   0.0000       2.575133        70.0729 
 240   0.0000       2.592969        70.5583 
 241   0.0000       2.612733        71.0961 
 242   0.0000       2.624082        71.4049 
 243   0.0000       2.629300        71.5469 
 244   0.0000       2.634733        71.6947 
 245   0.0000       2.673443        72.7481 
 246   0.0000       2.688055        73.1457 
 247   0.0000       2.696436        73.3738 
 248   0.0000       2.724975        74.1503 
 249   0.0000       2.745997        74.7224 
 250   0.0000       2.749690        74.8229 
 251   0.0000       2.774864        75.5079 
 252   0.0000       2.830238        77.0147 
 253   0.0000       2.844992        77.4162 
 254   0.0000       2.852945        77.6326 
 255   0.0000       2.860985        77.8513 
 256   0.0000       2.876114        78.2630 
 257   0.0000       2.893320        78.7312 
 258   0.0000       2.915014        79.3216 
 259   0.0000       2.978703        81.0546 
 260   0.0000       2.986077        81.2553 
 261   0.0000       3.005607        81.7867 
 262   0.0000       3.017374        82.1069 
 263   0.0000       3.029332        82.4323 
 264   0.0000       3.042797        82.7987 
 265   0.0000       3.046073        82.8879 
 266   0.0000       3.053959        83.1025 
 267   0.0000       3.055680        83.1493 
 268   0.0000       3.088445        84.0409 
 269   0.0000       3.093751        84.1852 
 270   0.0000       3.105515        84.5054 
 271   0.0000       3.121079        84.9289 
 272   0.0000       3.136898        85.3593 
 273   0.0000       3.157412        85.9175 
 274   0.0000       3.160213        85.9938 
 275   0.0000       3.179777        86.5261 
 276   0.0000       3.187244        86.7293 
 277   0.0000       3.205118        87.2157 
 278   0.0000       3.368376        91.6582 
 279   0.0000       3.453765        93.9817 
 280   0.0000       3.473324        94.5139 
 281   0.0000       3.575123        97.2840 

                    ********************************
                    * MULLIKEN POPULATION ANALYSIS *
                    ********************************

-----------------------
MULLIKEN ATOMIC CHARGES
-----------------------
   0 N :   -0.211239
   1 C :   -0.213459
   2 N :   -0.197603
   3 C :   -0.136004
   4 C :   -0.128500
   5 C :   -0.021925
   6 C :   -0.006384
   7 C :    0.017610
   8 H :    0.037108
   9 C :    0.022776
  10 H :    0.019301
  11 C :    0.007374
  12 C :    0.007144
  13 C :    0.099162
  14 C :    0.095757
  15 H :    0.018899
  16 H :    0.034861
  17 H :    0.028482
  18 H :    0.019028
  19 H :    0.026843
  20 H :    0.031366
  21 H :    0.030633
  22 H :    0.039332
  23 H :    0.024941
  24 H :    0.039368
  25 H :    0.030138
  26 H :    0.026163
  27 H :    0.048554
  28 H :    0.054939
  29 H :    0.031501
  30 H :    0.027442
  31 H :    0.050234
  32 H :    0.046159
Sum of atomic charges:    0.0000000

--------------------------------
MULLIKEN REDUCED ORBITAL CHARGES
--------------------------------
  0 N s       :     3.390803  s :     3.390803
      pz      :     1.506107  p :     3.788325
      px      :     1.149330
      py      :     1.132888
      dz2     :     0.002542  d :     0.032110
      dxz     :     0.004112
      dyz     :     0.005603
      dx2y2   :     0.010818
      dxy     :     0.009035
  1 C s       :     3.612798  s :     3.612798
      pz      :     0.730740  p :     2.535196
      px      :     0.662121
      py      :     1.142335
      dz2     :     0.007711  d :     0.065465
      dxz     :     0.012648
      dyz     :     0.009266
      dx2y2   :     0.008914
      dxy     :     0.026926
  2 N s       :     3.381984  s :     3.381984
      pz      :     1.499409  p :     3.783435
      px      :     1.161316
      py      :     1.122710
      dz2     :     0.002532  d :     0.032184
      dxz     :     0.004118
      dyz     :     0.005598
      dx2y2   :     0.010643
      dxy     :     0.009293
  3 C s       :     3.112048  s :     3.112048
      pz      :     1.086661  p :     2.966254
      px      :     1.001610
      py      :     0.877984
      dz2     :     0.004643  d :     0.057702
      dxz     :     0.009950
      dyz     :     0.010198
      dx2y2   :     0.020147
      dxy     :     0.012763
  4 C s       :     3.105489  s :     3.105489
      pz      :     1.075208  p :     2.964774
      px      :     0.973433
      py      :     0.916133
      dz2     :     0.004662  d :     0.058237
      dxz     :     0.010846
      dyz     :     0.009706
      dx2y2   :     0.017502
      dxy     :     0.015521
  5 C s       :     3.084989  s :     3.084989
      pz      :     1.033208  p :     2.879476
      px      :     0.811769
      py      :     1.034499
      dz2     :     0.013473  d :     0.057460
      dxz     :     0.010622
      dyz     :     0.009854
      dx2y2   :     0.012702
      dxy     :     0.010808
  6 C s       :     3.072664  s :     3.072664
      pz      :     1.015756  p :     2.876162
      px      :     0.854611
      py      :     1.005795
      dz2     :     0.012744  d :     0.057559
      dxz     :     0.015096
      dyz     :     0.006331
      dx2y2   :     0.010143
      dxy     :     0.013244
  7 C s       :     2.980255  s :     2.980255
      pz      :     0.966435  p :     2.975329
      px      :     1.001971
      py      :     1.006923
      dz2     :     0.007554  d :     0.026805
      dxz     :     0.001851
      dyz     :     0.006664
      dx2y2   :     0.005376
      dxy     :     0.005361
  8 H s       :     0.941781  s :     0.941781
      pz      :     0.003681  p :     0.021111
      px      :     0.005884
      py      :     0.011546
  9 C s       :     2.980806  s :     2.980806
      pz      :     0.961722  p :     2.969611
      px      :     1.000588
      py      :     1.007301
      dz2     :     0.006934  d :     0.026806
      dxz     :     0.002172
      dyz     :     0.007541
      dx2y2   :     0.005292
      dxy     :     0.004867
 10 H s       :     0.959473  s :     0.959473
      pz      :     0.003713  p :     0.021227
      px      :     0.003628
      py      :     0.013886
 11 C s       :     2.982797  s :     2.982797
      pz      :     0.966023  p :     2.983117
      px      :     0.997540
      py      :     1.019554
      dz2     :     0.006548  d :     0.026712
      dxz     :     0.007365
      dyz     :     0.002616
      dx2y2   :     0.002713
      dxy     :     0.007472
 12 C s       :     2.983305  s :     2.983305
      pz      :     0.968400  p :     2.982828
      px      :     0.996406
      py      :     1.018022
      dz2     :     0.006669  d :     0.026723
      dxz     :     0.007178
      dyz     :     0.002288
      dx2y2   :     0.003083
      dxy     :     0.007505
 13 C s       :     2.875682  s :     2.875682
      pz      :     1.028821  p :     2.997383
      px      :     0.991138
      py      :     0.977424
      dz2     :     0.004887  d :     0.027772
      dxz     :     0.009227
      dyz     :     0.002598
      dx2y2   :     0.003376
      dxy     :     0.007685
 14 C s       :     2.876705  s :     2.876705
      pz      :     1.027903  p :     3.000003
      px      :     0.999664
      py      :     0.972437
      dz2     :     0.004769  d :     0.027535
      dxz     :     0.008617
      dyz     :     0.003165
      dx2y2   :     0.003035
      dxy     :     0.007949
 15 H s       :     0.956642  s :     0.956642
      pz      :     0.004247  p :     0.024459
      px      :     0.008120
      py      :     0.012092
 16 H s       :     0.940770  s :     0.940770
      pz      :     0.004138  p :     0.024369
      px      :     0.014812
      py      :     0.005419
 17 H s       :     0.947322  s :     0.947322
      pz      :     0.010194  p :     0.024195
      px      :     0.005266
      py      :     0.008736
 18 H s       :     0.955969  s :     0.955969
      pz      :     0.004431  p :     0.025002
      px      :     0.009095
      py      :     0.011477
 19 H s       :     0.948992  s :     0.948992
      pz      :     0.012078  p :     0.024165
      px      :     0.005580
      py      :     0.006507
 20 H s       :     0.944325  s :     0.944325
      pz      :     0.004299  p :     0.024309
      px      :     0.014656
      py      :     0.005354
 21 H s       :     0.945274  s :     0.945274
      pz      :     0.011229  p :     0.024093
      px      :     0.007989
      py      :     0.004875
 22 H s       :     0.936168  s :     0.936168
      pz      :     0.004699  p :     0.024501
      px      :     0.010552
      py      :     0.009250
 23 H s       :     0.950285  s :     0.950285
      pz      :     0.004482  p :     0.024773
      px      :     0.006521
      py      :     0.013771
 24 H s       :     0.936123  s :     0.936123
      pz      :     0.004237  p :     0.024509
      px      :     0.010403
      py      :     0.009869
 25 H s       :     0.945762  s :     0.945762
      pz      :     0.010419  p :     0.024100
      px      :     0.008285
      py      :     0.005396
 26 H s       :     0.949049  s :     0.949049
      pz      :     0.004328  p :     0.024788
      px      :     0.006665
      py      :     0.013795
 27 H s       :     0.926772  s :     0.926772
      pz      :     0.011332  p :     0.024674
      px      :     0.008946
      py      :     0.004396
 28 H s       :     0.920416  s :     0.920416
      pz      :     0.011994  p :     0.024645
      px      :     0.007892
      py      :     0.004759
 29 H s       :     0.943345  s :     0.943345
      pz      :     0.005413  p :     0.025154
      px      :     0.008324
      py      :     0.011417
 30 H s       :     0.947352  s :     0.947352
      pz      :     0.005390  p :     0.025206
      px      :     0.006871
      py      :     0.012944
 31 H s       :     0.924794  s :     0.924794
      pz      :     0.012205  p :     0.024972
      px      :     0.008010
      py      :     0.004756
 32 H s       :     0.928788  s :     0.928788
      pz      :     0.011423  p :     0.025054
      px      :     0.008605
      py      :     0.005026


                     *******************************
                     * LOEWDIN POPULATION ANALYSIS *
                     *******************************

----------------------
LOEWDIN ATOMIC CHARGES
----------------------
   0 N :    0.036321
   1 C :   -0.309572
   2 N :    0.037229
   3 C :   -0.050876
   4 C :   -0.044817
   5 C :    0.029625
   6 C :    0.024479
   7 C :   -0.054190
   8 H :    0.029455
   9 C :   -0.054258
  10 H :    0.025217
  11 C :   -0.057678
  12 C :   -0.057529
  13 C :   -0.054333
  14 C :   -0.055215
  15 H :    0.022136
  16 H :    0.029526
  17 H :    0.025454
  18 H :    0.018782
  19 H :    0.025203
  20 H :    0.027825
  21 H :    0.027142
  22 H :    0.034207
  23 H :    0.023687
  24 H :    0.034175
  25 H :    0.027060
  26 H :    0.023588
  27 H :    0.039512
  28 H :    0.040815
  29 H :    0.041019
  30 H :    0.041174
  31 H :    0.037724
  32 H :    0.037113

-------------------------------
LOEWDIN REDUCED ORBITAL CHARGES
-------------------------------
  0 N s       :     3.054624  s :     3.054624
      pz      :     1.432164  p :     3.832119
      px      :     1.190768
      py      :     1.209186
      dz2     :     0.004881  d :     0.076936
      dxz     :     0.007708
      dyz     :     0.011156
      dx2y2   :     0.027751
      dxy     :     0.025441
  1 C s       :     3.191336  s :     3.191336
      pz      :     0.784378  p :     2.975759
      px      :     0.832147
      py      :     1.359234
      dz2     :     0.017372  d :     0.142476
      dxz     :     0.027596
      dyz     :     0.013373
      dx2y2   :     0.021221
      dxy     :     0.062914
  2 N s       :     3.058263  s :     3.058263
      pz      :     1.429974  p :     3.828439
      px      :     1.204099
      py      :     1.194366
      dz2     :     0.004831  d :     0.076069
      dxz     :     0.007564
      dyz     :     0.011339
      dx2y2   :     0.026650
      dxy     :     0.025684
  3 C s       :     2.837574  s :     2.837574
      pz      :     1.068492  p :     3.073533
      px      :     1.060369
      py      :     0.944672
      dz2     :     0.010147  d :     0.139769
      dxz     :     0.019178
      dyz     :     0.020964
      dx2y2   :     0.054689
      dxy     :     0.034791
  4 C s       :     2.840110  s :     2.840110
      pz      :     1.057083  p :     3.063475
      px      :     1.046777
      py      :     0.959616
      dz2     :     0.010208  d :     0.141233
      dxz     :     0.021939
      dyz     :     0.019464
      dx2y2   :     0.048043
      dxy     :     0.041579
  5 C s       :     2.827779  s :     2.827779
      pz      :     1.053156  p :     3.010170
      px      :     0.899125
      py      :     1.057889
      dz2     :     0.030270  d :     0.132425
      dxz     :     0.022344
      dyz     :     0.024402
      dx2y2   :     0.029270
      dxy     :     0.026140
  6 C s       :     2.829121  s :     2.829121
[...]
     41      -0.000005  -0.003762   0.008636
     42      -0.003014   0.064200   0.027215
     43      -0.002652   0.053815   0.023253
     44      -0.000872   0.014080   0.006070
     45      -0.033466  -0.004201  -0.001152
     46       0.060543   0.007543   0.002046
     47      -0.014026  -0.001752  -0.000486
     48      -0.081033  -0.005894  -0.000947
     49      -0.015833  -0.001105  -0.000169
     50       0.002030   0.000166   0.000006
     51       0.000423   0.000049   0.000002
     52       0.000838   0.000010  -0.000010
     53       0.001560   0.000233   0.000061
     54      -0.374216  -0.015443  -0.003473
     55       0.737386   0.030658   0.006851
     56      -0.086521  -0.003321  -0.000731
     57       0.097165   0.003782   0.000814
     58       0.119115   0.004677   0.001014
     59      -0.273439  -0.010731  -0.002315
     60      -0.407859  -0.015239  -0.002777
     61      -0.064729  -0.002413  -0.000439
     62      -0.004949  -0.000191  -0.000009
     63       0.001699  -0.022384   0.029778
     64       0.000012   0.000066  -0.000123
     65       0.002701  -0.035114   0.046719
     66      -0.001107   0.031713  -0.042842
     67       0.000824  -0.022745   0.030834
     68       0.000097  -0.004169   0.005707
     69       0.002050  -0.031185   0.043085
     70       0.005921  -0.089443   0.123841
     71       0.000901  -0.014015   0.019419
     72      -0.001212   0.032088  -0.044970
     73       0.000852  -0.022138   0.031107
     74       0.000169  -0.002525   0.003514
     75       0.001681  -0.022635   0.032004
     76       0.000959  -0.012432   0.017541
     77      -0.002154   0.028782  -0.040712
     78       0.001870  -0.027894   0.040680
     79       0.005821  -0.086118   0.125966
     80       0.001525  -0.022250   0.032515
     81       0.006140  -0.166433  -0.069531
     82       0.001161  -0.033544  -0.013937
     83      -0.008259   0.218066   0.091109
     84       0.006526  -0.143021  -0.059478
     85      -0.002987   0.061359   0.025741
     86       0.010288  -0.221035  -0.092019
     87       0.022476  -0.466324  -0.205168
     88       0.032125  -0.660424  -0.288199
     89       0.007914  -0.163283  -0.071187
     90       0.002047  -0.145413   0.358321
     91      -0.003595   0.272246  -0.671700
     92      -0.000730   0.053691  -0.132398
     93       0.001623  -0.069678   0.155708
     94       0.000403  -0.016686   0.037841
     95      -0.002315   0.103514  -0.231920
     96       0.002298  -0.083142   0.192795
     97      -0.000666   0.025184  -0.058514
     98       0.003017  -0.112688   0.260756


-----------
IR SPECTRUM
-----------

 Mode   freq       eps      Int      T**2         TX        TY        TZ
       cm**-1   L/(mol*cm) km/mol    a.u.
----------------------------------------------------------------------------
  8:     81.78   0.001289    6.51  0.004918  (-0.003602  0.012878 -0.068840)
  9:    102.66   0.000337    1.70  0.001024  ( 0.004255  0.005892 -0.031161)
 10:    142.10   0.000256    1.29  0.000563  ( 0.002589  0.000185 -0.023576)
 11:    168.88   0.000428    2.16  0.000791  ( 0.006492 -0.027353 -0.000697)
 12:    200.26   0.000021    0.10  0.000032  ( 0.000701 -0.000290  0.005611)
 13:    207.29   0.000010    0.05  0.000015  ( 0.003001 -0.002418  0.000435)
 14:    221.49   0.000036    0.18  0.000051  ( 0.003603  0.006098 -0.000794)
 15:    235.88   0.000249    1.26  0.000330  ( 0.014923 -0.010245  0.001507)
 16:    243.69   0.000483    2.44  0.000618  ( 0.023922  0.004381  0.005145)
 17:    249.07   0.000028    0.14  0.000035  (-0.004101 -0.003800  0.001822)
 18:    263.00   0.000006    0.03  0.000007  ( 0.002308  0.001080 -0.000887)
 19:    285.65   0.000175    0.88  0.000191  ( 0.003763 -0.012057  0.005604)
 20:    289.55   0.000175    0.88  0.000188  (-0.003371 -0.000317  0.013299)
 21:    324.78   0.000146    0.74  0.000141  ( 0.010069 -0.005875  0.002164)
 22:    338.37   0.000579    2.92  0.000534  ( 0.022550  0.004948  0.000885)
 23:    396.82   0.003047   15.40  0.002396  ( 0.001056  0.004751 -0.048706)
 24:    414.16   0.001240    6.26  0.000934  ( 0.000173 -0.009165  0.029154)
 25:    476.43   0.000710    3.59  0.000465  (-0.020869  0.004538  0.003016)
 26:    493.15   0.000084    0.43  0.000053  ( 0.006796 -0.002607  0.000591)
 27:    552.90   0.000505    2.55  0.000285  (-0.007368  0.014618  0.004118)
 28:    585.49   0.000809    4.09  0.000431  (-0.019689 -0.006507 -0.000973)
 29:    663.93   0.000024    0.12  0.000011  (-0.002060 -0.001326  0.002284)
 30:    681.33   0.000096    0.49  0.000044  ( 0.003155  0.001592 -0.005615)
 31:    701.78   0.000067    0.34  0.000030  (-0.004578 -0.001699  0.002453)
 32:    745.33   0.001734    8.76  0.000726  (-0.009345 -0.024843 -0.004629)
 33:    796.76   0.001043    5.27  0.000408  ( 0.020122  0.000443 -0.001847)
 34:    913.87   0.000335    1.69  0.000114  ( 0.006586  0.008386 -0.000866)
 35:    928.49   0.000221    1.12  0.000074  (-0.005126  0.005757 -0.003854)
 36:    929.83   0.000983    4.97  0.000330  (-0.005646  0.006334  0.016062)
 37:    935.47   0.001836    9.28  0.000612  (-0.022992  0.009036 -0.001483)
 38:    956.26   0.000069    0.35  0.000022  (-0.001024  0.001842 -0.004237)
 39:    962.06   0.000105    0.53  0.000034  (-0.001544  0.001263  0.005481)
 40:    971.26   0.000200    1.01  0.000064  ( 0.004185  0.006616  0.001699)
 41:   1036.91   0.000915    4.63  0.000276  (-0.001472 -0.004111  0.016014)
 42:   1049.56   0.004761   24.06  0.001416  (-0.030988  0.021077  0.003323)
 43:   1060.96   0.000081    0.41  0.000024  (-0.003238  0.002276 -0.002858)
 44:   1095.58   0.003328   16.82  0.000948  ( 0.021067  0.022044  0.004257)
 45:   1125.59   0.006612   33.41  0.001833  ( 0.041142 -0.011733 -0.001648)
 46:   1160.71   0.000704    3.56  0.000189  ( 0.002334 -0.012899 -0.004190)
 47:   1171.60   0.001329    6.72  0.000354  ( 0.001860  0.002734 -0.018521)
 48:   1171.64   0.002468   12.47  0.000657  (-0.004286  0.004222 -0.024925)
 49:   1188.60   0.002179   11.01  0.000572  ( 0.022827  0.007136 -0.000299)
 50:   1216.49   0.000342    1.73  0.000088  ( 0.008143  0.004617  0.000435)
 51:   1253.53   0.007776   39.29  0.001936  ( 0.043659 -0.005424  0.000421)
 52:   1333.28   0.007487   37.84  0.001752  ( 0.039403 -0.013901 -0.002558)
 53:   1347.83   0.000123    0.62  0.000029  (-0.003999 -0.003282  0.001345)
 54:   1353.84   0.000044    0.22  0.000010  ( 0.001430 -0.001703  0.002288)
 55:   1361.00   0.003631   18.35  0.000832  ( 0.026577 -0.010893 -0.002729)
 56:   1392.91   0.000493    2.49  0.000110  ( 0.005485 -0.007941  0.004165)
 57:   1395.00   0.001407    7.11  0.000315  ( 0.011191  0.013222 -0.003824)
 58:   1398.26   0.004736   23.93  0.001057  ( 0.013746 -0.002603 -0.029348)
 59:   1398.90   0.003156   15.95  0.000704  ( 0.021368 -0.014482  0.006151)
 60:   1399.79   0.005265   26.61  0.001174  ( 0.001278 -0.004139  0.033986)
 61:   1407.77   0.003780   19.10  0.000838  (-0.028246 -0.006313 -0.000515)
 62:   1430.38   0.028371  143.37  0.006190  (-0.075930  0.020498 -0.002025)
 63:   1435.57   0.018823   95.12  0.004092  (-0.044676 -0.045780  0.000162)
 64:   1440.61   0.004020   20.32  0.000871  ( 0.011781 -0.003527 -0.026827)
 65:   1442.58   0.000157    0.79  0.000034  ( 0.002521 -0.000351  0.005247)
 66:   1445.18   0.001850    9.35  0.000400  (-0.001694 -0.004510 -0.019399)
 67:   1446.52   0.001027    5.19  0.000221  ( 0.000404 -0.014563 -0.003040)
 68:   1447.24   0.001181    5.97  0.000255  ( 0.002013 -0.015016 -0.005013)
 69:   1449.76   0.001706    8.62  0.000367  (-0.011352 -0.015425  0.000638)
 70:   1451.68   0.002573   13.00  0.000553  (-0.017244  0.015072 -0.005342)
 71:   1455.70   0.001246    6.30  0.000267  (-0.010902 -0.011881 -0.002685)
 72:   1464.76   0.001378    6.96  0.000294  (-0.005140  0.015908 -0.003749)
 73:   1465.86   0.001643    8.31  0.000350  (-0.016377  0.004651  0.007748)
 74:   1467.34   0.002916   14.74  0.000620  (-0.001917  0.023806  0.007056)
 75:   1477.21   0.005671   28.66  0.001198  (-0.034277 -0.004386 -0.001970)
 76:   1482.52   0.002811   14.20  0.000592  ( 0.023469 -0.006048  0.002072)
 77:   1488.81   0.002520   12.74  0.000528  (-0.017717 -0.014634 -0.000489)
 78:   1746.08   0.000719    3.63  0.000128  (-0.000273  0.010959  0.002881)
 79:   3060.17   0.004679   23.65  0.000477  ( 0.008012  0.004081 -0.019907)
 80:   3064.78   0.006389   32.29  0.000651  (-0.021135  0.014246  0.000958)
 81:   3070.10   0.006020   30.42  0.000612  ( 0.000268  0.004427 -0.024335)
 82:   3071.40   0.003952   19.97  0.000402  (-0.009231 -0.010599 -0.014283)
 83:   3071.98   0.000847    4.28  0.000086  (-0.008803  0.002866  0.000543)
 84:   3080.86   0.009037   45.67  0.000915  (-0.026674 -0.014084 -0.002359)
 85:   3125.31   0.002905   14.68  0.000290  (-0.011406  0.011788 -0.004581)
 86:   3131.03   0.001509    7.63  0.000150  ( 0.004223 -0.011247 -0.002467)
 87:   3149.21   0.002400   12.13  0.000238  ( 0.000446  0.002324 -0.015240)
 88:   3163.53   0.005412   27.35  0.000534  (-0.001970  0.021178  0.009026)
 89:   3166.86   0.002981   15.06  0.000294  ( 0.000452  0.002513 -0.016948)
 90:   3169.68   0.002990   15.11  0.000294  ( 0.013987 -0.002437  0.009634)
 91:   3171.46   0.002805   14.17  0.000276  ( 0.002631  0.003253 -0.016076)
 92:   3172.10   0.008203   41.46  0.000807  ( 0.025228  0.008124 -0.010227)
 93:   3172.53   0.006550   33.10  0.000644  ( 0.024432 -0.006751  0.001342)
 94:   3179.77   0.010169   51.39  0.000998  (-0.000443 -0.030934 -0.006394)
 95:   3180.70   0.001374    6.94  0.000135  (-0.001021 -0.011404 -0.001925)
 96:   3183.29   0.005850   29.56  0.000573  ( 0.016317 -0.015732  0.007730)
 97:   3187.84   0.003716   18.78  0.000364  ( 0.016699  0.008837  0.002618)
 98:   3191.82   0.001131    5.72  0.000111  (-0.007599  0.007191  0.001078)

* The epsilon (eps) is given for a Dirac delta lineshape.
** The dipole moment derivative (T) already includes vibrational overlap.

The first frequency considered to be a vibration is 8
The total number of vibrations considered is 91


--------------------------
THERMOCHEMISTRY AT 298.15K
--------------------------

Temperature         ... 298.15 K
Pressure            ... 1.00 atm
Total Mass          ... 180.29 AMU

Throughout the following assumptions are being made:
  (1) The electronic state is orbitally nondegenerate
  (2) There are no thermally accessible electronically excited states
  (3) Hindered rotations indicated by low frequency modes are not
      treated as such but are treated as vibrations and this may
      cause some error
  (4) All equations used are the standard statistical mechanics
      equations for an ideal gas
  (5) All vibrations are strictly harmonic

freq.      81.78  E(vib)   ...       0.48 
freq.     102.66  E(vib)   ...       0.46 
freq.     142.10  E(vib)   ...       0.41 
freq.     168.88  E(vib)   ...       0.38 
freq.     200.26  E(vib)   ...       0.35 
freq.     207.29  E(vib)   ...       0.34 
freq.     221.49  E(vib)   ...       0.33 
freq.     235.88  E(vib)   ...       0.32 
freq.     243.69  E(vib)   ...       0.31 
freq.     249.07  E(vib)   ...       0.31 
freq.     263.00  E(vib)   ...       0.29 
freq.     285.65  E(vib)   ...       0.28 
freq.     289.55  E(vib)   ...       0.27 
freq.     324.78  E(vib)   ...       0.24 
freq.     338.37  E(vib)   ...       0.23 
freq.     396.82  E(vib)   ...       0.20 
freq.     414.16  E(vib)   ...       0.19 
freq.     476.43  E(vib)   ...       0.15 
freq.     493.15  E(vib)   ...       0.14 
freq.     552.90  E(vib)   ...       0.12 
freq.     585.49  E(vib)   ...       0.11 
freq.     663.93  E(vib)   ...       0.08 
freq.     681.33  E(vib)   ...       0.08 
freq.     701.78  E(vib)   ...       0.07 
freq.     745.33  E(vib)   ...       0.06 
freq.     796.76  E(vib)   ...       0.05 
freq.     913.87  E(vib)   ...       0.03 
freq.     928.49  E(vib)   ...       0.03 
freq.     929.83  E(vib)   ...       0.03 
freq.     935.47  E(vib)   ...       0.03 
freq.     956.26  E(vib)   ...       0.03 
freq.     962.06  E(vib)   ...       0.03 
freq.     971.26  E(vib)   ...       0.03 
freq.    1036.91  E(vib)   ...       0.02 
freq.    1049.56  E(vib)   ...       0.02 
freq.    1060.96  E(vib)   ...       0.02 
freq.    1095.58  E(vib)   ...       0.02 
freq.    1125.59  E(vib)   ...       0.01 
freq.    1160.71  E(vib)   ...       0.01 
freq.    1171.60  E(vib)   ...       0.01 
freq.    1171.64  E(vib)   ...       0.01 
freq.    1188.60  E(vib)   ...       0.01 
freq.    1216.49  E(vib)   ...       0.01 
freq.    1253.53  E(vib)   ...       0.01 
freq.    1333.28  E(vib)   ...       0.01 
freq.    1347.83  E(vib)   ...       0.01 
freq.    1353.84  E(vib)   ...       0.01 
freq.    1361.00  E(vib)   ...       0.01 
freq.    1392.91  E(vib)   ...       0.00 
freq.    1395.00  E(vib)   ...       0.00 
freq.    1398.26  E(vib)   ...       0.00 
freq.    1398.90  E(vib)   ...       0.00 
freq.    1399.79  E(vib)   ...       0.00 
freq.    1407.77  E(vib)   ...       0.00 
freq.    1430.38  E(vib)   ...       0.00 
freq.    1435.57  E(vib)   ...       0.00 
freq.    1440.61  E(vib)   ...       0.00 
freq.    1442.58  E(vib)   ...       0.00 
freq.    1445.18  E(vib)   ...       0.00 
freq.    1446.52  E(vib)   ...       0.00 
freq.    1447.24  E(vib)   ...       0.00 
freq.    1449.76  E(vib)   ...       0.00 
freq.    1451.68  E(vib)   ...       0.00 
freq.    1455.70  E(vib)   ...       0.00 
freq.    1464.76  E(vib)   ...       0.00 
freq.    1465.86  E(vib)   ...       0.00 
freq.    1467.34  E(vib)   ...       0.00 
freq.    1477.21  E(vib)   ...       0.00 
freq.    1482.52  E(vib)   ...       0.00 
freq.    1488.81  E(vib)   ...       0.00 
freq.    1746.08  E(vib)   ...       0.00 
freq.    3060.17  E(vib)   ...       0.00 
freq.    3064.78  E(vib)   ...       0.00 
freq.    3070.10  E(vib)   ...       0.00 
freq.    3071.40  E(vib)   ...       0.00 
freq.    3071.98  E(vib)   ...       0.00 
freq.    3080.86  E(vib)   ...       0.00 
freq.    3125.31  E(vib)   ...       0.00 
freq.    3131.03  E(vib)   ...       0.00 
freq.    3149.21  E(vib)   ...       0.00 
freq.    3163.53  E(vib)   ...       0.00 
freq.    3166.86  E(vib)   ...       0.00 
freq.    3169.68  E(vib)   ...       0.00 
freq.    3171.46  E(vib)   ...       0.00 
freq.    3172.10  E(vib)   ...       0.00 
freq.    3172.53  E(vib)   ...       0.00 
freq.    3179.77  E(vib)   ...       0.00 
freq.    3180.70  E(vib)   ...       0.00 
freq.    3183.29  E(vib)   ...       0.00 
freq.    3187.84  E(vib)   ...       0.00 
freq.    3191.82  E(vib)   ...       0.00 

------------
INNER ENERGY
------------

The inner energy is: U= E(el) + E(ZPE) + E(vib) + E(rot) + E(trans)
    E(el)   - is the total energy from the electronic structure calculation
              = E(kin-el) + E(nuc-el) + E(el-el) + E(nuc-nuc)
    E(ZPE)  - the the zero temperature vibrational energy from the frequency calculation
    E(vib)  - the the finite temperature correction to E(ZPE) due to population
              of excited vibrational states
    E(rot)  - is the rotational thermal energy
    E(trans)- is the translational thermal energy

Summary of contributions to the inner energy U:
Electronic energy                ...   -540.19536461 Eh
Zero point energy                ...      0.29748707 Eh     186.68 kcal/mol
Thermal vibrational correction   ...      0.01071524 Eh       6.72 kcal/mol
Thermal rotational correction    ...      0.00141627 Eh       0.89 kcal/mol
Thermal translational correction ...      0.00141627 Eh       0.89 kcal/mol
-----------------------------------------------------------------------
Total thermal energy                   -539.88432975 Eh


Summary of corrections to the electronic energy:
(perhaps to be used in another calculation)
Total thermal correction                  0.01354779 Eh       8.50 kcal/mol
Non-thermal (ZPE) correction              0.29748707 Eh     186.68 kcal/mol
-----------------------------------------------------------------------
Total correction                          0.31103486 Eh     195.18 kcal/mol


--------
ENTHALPY
--------

The enthalpy is H = U + kB*T
                kB is Boltzmann's constant
Total free energy                 ...   -539.88432975 Eh 
Thermal Enthalpy correction       ...      0.00094421 Eh       0.59 kcal/mol
-----------------------------------------------------------------------
Total Enthalpy                    ...   -539.88338554 Eh


Note: Only C1 symmetry has been detected, increase convergence thresholds 
      if your molecule has a higher symmetry. Symmetry factor of 1.0 is   
      used for the rotational entropy correction. 
 

Note: Rotational entropy computed according to Herzberg 
Infrared and Raman Spectra, Chapter V,1, Van Nostrand Reinhold, 1945 
Point Group:  C1, Symmetry Number:   1  
Rotational constants in cm-1:     0.041494     0.017492     0.014646 

Vibrational entropy computed according to the QRRHO of S. Grimme
Chem.Eur.J. 2012 18 9955


-------
ENTROPY
-------

The entropy contributions are T*S = T*(S(el)+S(vib)+S(rot)+S(trans))
     S(el)   - electronic entropy
     S(vib)  - vibrational entropy
     S(rot)  - rotational entropy
     S(trans)- translational entropy
The entropies will be listed as multiplied by the temperature to get
units of energy

Electronic entropy                ...      0.00000000 Eh      0.00 kcal/mol
Vibrational entropy               ...      0.01799402 Eh     11.29 kcal/mol
Rotational entropy                ...      0.01491712 Eh      9.36 kcal/mol
Translational entropy             ...      0.01970603 Eh     12.37 kcal/mol
-----------------------------------------------------------------------
Final entropy term                ...      0.05261716 Eh     33.02 kcal/mol

In case the symmetry of your molecule has not been determined correctly
or in case you have a reason to use a different symmetry number we print 
out the resulting rotational entropy values for sn=1,12 :
 --------------------------------------------------------
|  sn= 1 | S(rot)=       0.01491712 Eh      9.36 kcal/mol|
|  sn= 2 | S(rot)=       0.01426266 Eh      8.95 kcal/mol|
|  sn= 3 | S(rot)=       0.01387983 Eh      8.71 kcal/mol|
|  sn= 4 | S(rot)=       0.01360821 Eh      8.54 kcal/mol|
|  sn= 5 | S(rot)=       0.01339752 Eh      8.41 kcal/mol|
|  sn= 6 | S(rot)=       0.01322538 Eh      8.30 kcal/mol|
|  sn= 7 | S(rot)=       0.01307983 Eh      8.21 kcal/mol|
|  sn= 8 | S(rot)=       0.01295375 Eh      8.13 kcal/mol|
|  sn= 9 | S(rot)=       0.01284254 Eh      8.06 kcal/mol|
|  sn=10 | S(rot)=       0.01274306 Eh      8.00 kcal/mol|
|  sn=11 | S(rot)=       0.01265307 Eh      7.94 kcal/mol|
|  sn=12 | S(rot)=       0.01257092 Eh      7.89 kcal/mol|
 --------------------------------------------------------


-------------------
GIBBS FREE ENERGY
-------------------

The Gibbs free energy is G = H - T*S

Total enthalpy                    ...   -539.88338554 Eh 
Total entropy correction          ...     -0.05261716 Eh    -33.02 kcal/mol
-----------------------------------------------------------------------
Final Gibbs free energy         ...   -539.93600271 Eh

For completeness - the Gibbs free energy minus the electronic energy
G-E(el)                           ...      0.25936190 Eh    162.75 kcal/mol


Timings for individual modules:

Sum of individual times         ...     7724.833 sec (= 128.747 min)
GTO integral calculation        ...        3.833 sec (=   0.064 min)   0.0 %
SCF iterations                  ...     4024.728 sec (=  67.079 min)  52.1 %
SCF Gradient evaluation         ...     1056.238 sec (=  17.604 min)  13.7 %
Geometry relaxation             ...        0.695 sec (=   0.012 min)   0.0 %
Analytical frequency calculation...     2639.340 sec (=  43.989 min)  34.2 %
                             ****ORCA TERMINATED NORMALLY****
TOTAL RUN TIME: 0 days 2 hours 8 minutes 46 seconds 299 msec
