
                                 *****************
                                 * O   R   C   A *
                                 *****************

                                            #,                                       
                                            ###                                      
                                            ####                                     
                                            #####                                    
                                            ######                                   
                                           ########,                                 
                                     ,,################,,,,,                         
                               ,,#################################,,                 
                          ,,##########################################,,             
                       ,#########################################, ''#####,          
                    ,#############################################,,   '####,        
                  ,##################################################,,,,####,       
                ,###########''''           ''''###############################       
              ,#####''   ,,,,##########,,,,          '''####'''          '####       
            ,##' ,,,,###########################,,,                        '##       
           ' ,,###''''                  '''############,,,                           
         ,,##''                                '''############,,,,        ,,,,,,###''
      ,#''                                            '''#######################'''  
     '                                                          ''''####''''         
             ,#######,   #######,   ,#######,      ##                                
            ,#'     '#,  ##    ##  ,#'     '#,    #''#        ######   ,####,        
            ##       ##  ##   ,#'  ##            #'  '#       #        #'  '#        
            ##       ##  #######   ##           ,######,      #####,   #    #        
            '#,     ,#'  ##    ##  '#,     ,#' ,#      #,         ##   #,  ,#        
             '#######'   ##     ##  '#######'  #'      '#     #####' # '####'        



                  #######################################################
                  #                        -***-                        #
                  #          Department of theory and spectroscopy      #
                  #    Directorship and core code : Frank Neese         #
                  #        Max Planck Institute fuer Kohlenforschung    #
                  #                Kaiser Wilhelm Platz 1               #
                  #                 D-45470 Muelheim/Ruhr               #
                  #                      Germany                        #
                  #                                                     #
                  #                  All rights reserved                #
                  #                        -***-                        #
                  #######################################################


                         Program Version 5.0.4 -  RELEASE  -


 With contributions from (in alphabetic order):
   Daniel Aravena         : Magnetic Suceptibility
   Michael Atanasov       : Ab Initio Ligand Field Theory (pilot matlab implementation)
   Alexander A. Auer      : GIAO ZORA, VPT2 properties, NMR spectrum
   Ute Becker             : Parallelization
   Giovanni Bistoni       : ED, misc. LED, open-shell LED, HFLD
   Martin Brehm           : Molecular dynamics
   Dmytro Bykov           : SCF Hessian
   Vijay G. Chilkuri      : MRCI spin determinant printing, contributions to CSF-ICE
   Dipayan Datta          : RHF DLPNO-CCSD density
   Achintya Kumar Dutta   : EOM-CC, STEOM-CC
   Dmitry Ganyushin       : Spin-Orbit,Spin-Spin,Magnetic field MRCI
   Miquel Garcia          : C-PCM and meta-GGA Hessian, CC/C-PCM, Gaussian charge scheme
   Yang Guo               : DLPNO-NEVPT2, F12-NEVPT2, CIM, IAO-localization
   Andreas Hansen         : Spin unrestricted coupled pair/coupled cluster methods
   Benjamin Helmich-Paris : MC-RPA, TRAH-SCF, COSX integrals
   Lee Huntington         : MR-EOM, pCC
   Robert Izsak           : Overlap fitted RIJCOSX, COSX-SCS-MP3, EOM
   Marcus Kettner         : VPT2
   Christian Kollmar      : KDIIS, OOCD, Brueckner-CCSD(T), CCSD density, CASPT2, CASPT2-K
   Simone Kossmann        : Meta GGA functionals, TD-DFT gradient, OOMP2, MP2 Hessian
   Martin Krupicka        : Initial AUTO-CI
   Lucas Lang             : DCDCAS
   Marvin Lechner         : AUTO-CI (C++ implementation), FIC-MRCC
   Dagmar Lenk            : GEPOL surface, SMD
   Dimitrios Liakos       : Extrapolation schemes; Compound Job, initial MDCI parallelization
   Dimitrios Manganas     : Further ROCIS development; embedding schemes
   Dimitrios Pantazis     : SARC Basis sets
   Anastasios Papadopoulos: AUTO-CI, single reference methods and gradients
   Taras Petrenko         : DFT Hessian,TD-DFT gradient, ASA, ECA, R-Raman, ABS, FL, XAS/XES, NRVS
   Peter Pinski           : DLPNO-MP2, DLPNO-MP2 Gradient
   Christoph Reimann      : Effective Core Potentials
   Marius Retegan         : Local ZFS, SOC
   Christoph Riplinger    : Optimizer, TS searches, QM/MM, DLPNO-CCSD(T), (RO)-DLPNO pert. Triples
   Tobias Risthaus        : Range-separated hybrids, TD-DFT gradient, RPA, STAB
   Michael Roemelt        : Original ROCIS implementation
   Masaaki Saitow         : Open-shell DLPNO-CCSD energy and density
   Barbara Sandhoefer     : DKH picture change effects
   Avijit Sen             : IP-ROCIS
   Kantharuban Sivalingam : CASSCF convergence, NEVPT2, FIC-MRCI
   Bernardo de Souza      : ESD, SOC TD-DFT
   Georgi Stoychev        : AutoAux, RI-MP2 NMR, DLPNO-MP2 response
   Willem Van den Heuvel  : Paramagnetic NMR
   Boris Wezisla          : Elementary symmetry handling
   Frank Wennmohs         : Technical directorship


 We gratefully acknowledge several colleagues who have allowed us to
 interface, adapt or use parts of their codes:
   Stefan Grimme, W. Hujo, H. Kruse, P. Pracht,  : VdW corrections, initial TS optimization,
                  C. Bannwarth, S. Ehlert          DFT functionals, gCP, sTDA/sTD-DF
   Ed Valeev, F. Pavosevic, A. Kumar             : LibInt (2-el integral package), F12 methods
   Garnet Chan, S. Sharma, J. Yang, R. Olivares  : DMRG
   Ulf Ekstrom                                   : XCFun DFT Library
   Mihaly Kallay                                 : mrcc  (arbitrary order and MRCC methods)
   Jiri Pittner, Ondrej Demel                    : Mk-CCSD
   Frank Weinhold                                : gennbo (NPA and NBO analysis)
   Christopher J. Cramer and Donald G. Truhlar   : smd solvation model
   Lars Goerigk                                  : TD-DFT with DH, B97 family of functionals
   V. Asgeirsson, H. Jonsson                     : NEB implementation
   FAccTs GmbH                                   : IRC, NEB, NEB-TS, DLPNO-Multilevel, CI-OPT
                                                   MM, QMMM, 2- and 3-layer-ONIOM, Crystal-QMMM,
                                                   LR-CPCM, SF, NACMEs, symmetry and pop. for TD-DFT,
                                                   nearIR, NL-DFT gradient (VV10), updates on ESD,
                                                   ML-optimized integration grids
   S Lehtola, MJT Oliveira, MAL Marques          : LibXC Library
   Liviu Ungur et al                             : ANISO software


 Your calculation uses the libint2 library for the computation of 2-el integrals
 For citations please refer to: http://libint.valeyev.net

 Your ORCA version has been built with support for libXC version: 5.1.0
 For citations please refer to: https://tddft.org/programs/libxc/

 This ORCA versions uses:
   CBLAS   interface :  Fast vector & matrix operations
   LAPACKE interface :  Fast linear algebra routines
   SCALAPACK package :  Parallel linear algebra routines
   Shared memory     :  Shared parallel matrices
   BLAS/LAPACK       :  OpenBLAS 0.3.15  USE64BITINT DYNAMIC_ARCH NO_AFFINITY SkylakeX SINGLE_THREADED
        Core in use  :  SkylakeX
   Copyright (c) 2011-2014, The OpenBLAS Project




***************************************
The coordinates will be read from file: 6_deprot_aq_2.xyz
***************************************


Your calculation utilizes the atom-pairwise dispersion correction
based on tight binding partial charges (D4)
Cite in your paper:
E.Caldeweyher, C.Bannwarth, S.Grimme, J.Chem.Phys., (2017), 147, 034112.
E.Caldeweyher, S.Ehlert, A.Hansen, H.Neugebauer, S.Grimme, J.Chem.Phys., (2018), in progress.
   

XCFun DFT library Copyright 2009-2010 Ulf Ekstrom and contributors.
See http://admol.org/xcfun for more information.
This is free software; see the source code for copying conditions.
There is ABSOLUTELY NO WARRANTY; not even for MERCHANTABILITY or FITNESS FOR A PARTICULAR PURPOSE.
For details see the documentation.
Scientific users of this library should cite U. Ekstrom, L. Visscher, R. Bast, A. J. Thorvaldsen and K. Ruud;
J.Chem.Theor.Comp. 2010, DOI: 10.1021/ct100117s
XCFun Version 0.99 

================================================================================

----- Orbital basis set information -----
Your calculation utilizes the basis: def2-SVP
   F. Weigend and R. Ahlrichs, Phys. Chem. Chem. Phys. 7, 3297 (2005).

----- AuxJ basis set information -----
Your calculation utilizes the auxiliary basis: def2/J
   F. Weigend, Phys. Chem. Chem. Phys. 8, 1057 (2006).

================================================================================
                                        WARNINGS
                       Please study these warnings very carefully!
================================================================================


WARNING: Geometry Optimization
  ===> : Switching off AutoStart
         For restart on a previous wavefunction, please use MOREAD

INFO   : the flag for use of the SHARK integral package has been found!

================================================================================
                                       INPUT FILE
================================================================================
NAME = 6_deprot_aq_2.inp
|  1> # ORCA 5.0.4 - /users/bwb16179/postgrad/2024_03/DFT_Crest_Conformers/Opt/deprot/6_deprot_aq_2.inp # write input file
|  2> # Basic Mode
|  3> #
|  4> ! Opt Freq wB97X Def2-SVP D4 SlowConv TightSCF Defgrid2 Def2/J RIJCOSX CPCM(Water)
|  5> 
|  6> 
|  7> 
|  8> %maxcore 4500
|  9> 
| 10> %geom
| 11> Maxiter 150
| 12> END
| 13> 
| 14> * xyzfile 0 1 6_deprot_aq_2.xyz
| 15> 
| 16>                          ****END OF INPUT****
================================================================================

                       *****************************
                       * Geometry Optimization Run *
                       *****************************

Geometry optimization settings:
Update method            Update   .... BFGS
Choice of coordinates    CoordSys .... Z-matrix Internals
Initial Hessian          InHess   .... Almoef's Model

Convergence Tolerances:
Energy Change            TolE     ....  5.0000e-06 Eh
Max. Gradient            TolMAXG  ....  3.0000e-04 Eh/bohr
RMS Gradient             TolRMSG  ....  1.0000e-04 Eh/bohr
Max. Displacement        TolMAXD  ....  4.0000e-03 bohr
RMS Displacement         TolRMSD  ....  2.0000e-03 bohr
Strict Convergence                ....  False
------------------------------------------------------------------------------
                        ORCA OPTIMIZATION COORDINATE SETUP
------------------------------------------------------------------------------

The optimization will be done in new redundant internal coordinates
Making redundant internal coordinates   ...  (new redundants) done
Evaluating the initial hessian          ...  (Almloef) done
Evaluating the coordinates              ...  done
Calculating the B-matrix                .... done
Calculating the G-matrix                .... done
Diagonalizing the G-matrix              .... done
Small eigenvalue found = 1.133e-02
Small eigenvalue found = 2.192e-02
Small eigenvalue found = 2.258e-02
The first mode is                       ....   77
The number of degrees of freedom        ....   93

    -----------------------------------------------------------------
                    Redundant Internal Coordinates


    -----------------------------------------------------------------
         Definition                    Initial Value    Approx d2E/dq
    -----------------------------------------------------------------
      1. B(C   1,N   0)                  1.3567         0.632497   
      2. B(N   2,C   1)                  1.3568         0.632092   
      3. B(C   3,N   2)                  1.3822         0.575780   
      4. B(C   4,N   0)                  1.3825         0.575174   
      5. B(C   4,C   3)                  1.3607         0.695902   
      6. B(C   5,N   0)                  1.4451         0.457019   
      7. B(C   6,N   2)                  1.4452         0.456839   
      8. B(C   7,C   5)                  1.5306         0.372689   
      9. B(H   8,C   5)                  1.0962         0.351938   
     10. B(C   9,C   5)                  1.5265         0.378356   
     11. B(H  10,C   6)                  1.0957         0.352594   
     12. B(C  11,C   6)                  1.5301         0.373466   
     13. B(C  12,C   6)                  1.5271         0.377531   
     14. B(C  13,C   3)                  1.4882         0.435616   
     15. B(C  14,C   4)                  1.4882         0.435617   
     16. B(H  15,C   9)                  1.0858         0.365686   
     17. B(H  16,C   9)                  1.0868         0.364313   
     18. B(H  17,C   9)                  1.0873         0.363675   
     19. B(H  18,C   7)                  1.0883         0.362417   
     20. B(H  19,C   7)                  1.0869         0.364203   
     21. B(H  20,C   7)                  1.0870         0.364031   
     22. B(H  21,C  12)                  1.0869         0.364286   
     23. B(H  22,C  12)                  1.0860         0.365459   
     24. B(H  23,C  12)                  1.0875         0.363415   
     25. B(H  24,C  11)                  1.0882         0.362443   
     26. B(H  25,C  11)                  1.0869         0.364228   
     27. B(H  26,C  11)                  1.0869         0.364197   
     28. B(H  27,C  14)                  1.0913         0.358328   
     29. B(H  28,C  14)                  1.0907         0.359174   
     30. B(H  29,C  14)                  1.0870         0.364083   
     31. B(H  30,C  13)                  1.0870         0.364140   
     32. B(H  31,C  13)                  1.0908         0.359004   
     33. B(H  32,C  13)                  1.0913         0.358392   
     34. A(C   4,N   0,C   5)          125.3708         0.400436   
     35. A(C   1,N   0,C   5)          122.5305         0.407205   
     36. A(C   1,N   0,C   4)          112.0211         0.424205   
     37. A(N   0,C   1,N   2)          103.5429         0.431441   
     38. A(C   1,N   2,C   6)          122.2001         0.407130   
     39. A(C   1,N   2,C   3)          112.0471         0.424236   
     40. A(C   3,N   2,C   6)          125.7070         0.400482   
     41. A(N   2,C   3,C  13)          123.5401         0.399703   
     42. A(C   4,C   3,C  13)          130.2818         0.416009   
     43. A(N   2,C   3,C   4)          106.1779         0.434456   
     44. A(N   0,C   4,C   3)          106.2041         0.434374   
     45. A(N   0,C   4,C  14)          123.4988         0.399629   
     46. A(C   3,C   4,C  14)          130.2962         0.416009   
     47. A(N   0,C   5,C   9)          109.7811         0.374618   
     48. A(H   8,C   5,C   9)          109.1313         0.323776   
     49. A(C   7,C   5,H   8)          109.1301         0.322975   
     50. A(C   7,C   5,C   9)          110.8481         0.363994   
     51. A(N   0,C   5,H   8)          108.2418         0.332014   
     52. A(N   0,C   5,C   7)          109.6601         0.373645   
     53. A(H  10,C   6,C  11)          109.1708         0.323184   
     54. A(N   2,C   6,C  11)          109.6047         0.373753   
     55. A(C  11,C   6,C  12)          110.8737         0.363988   
     56. A(H  10,C   6,C  12)          109.1532         0.323759   
     57. A(N   2,C   6,C  12)          109.6938         0.374452   
     58. A(N   2,C   6,H  10)          108.2983         0.332095   
     59. A(H  19,C   7,H  20)          109.1533         0.291856   
     60. A(H  18,C   7,H  20)          108.5423         0.291630   
     61. A(C   5,C   7,H  20)          109.3206         0.324771   
     62. A(H  18,C   7,H  19)          108.7275         0.291652   
     63. A(C   5,C   7,H  19)          110.4850         0.324796   
     64. A(C   5,C   7,H  18)          110.5726         0.324534   
     65. A(H  16,C   9,H  17)          108.9501         0.291825   
     66. A(C   5,C   9,H  16)          110.2690         0.325619   
     67. A(H  15,C   9,H  16)          109.6333         0.292078   
     68. A(H  15,C   9,H  17)          108.4051         0.291997   
     69. A(C   5,C   9,H  15)          109.2467         0.325821   
     70. A(C   5,C   9,H  17)          110.3072         0.325525   
     71. A(H  25,C  11,H  26)          109.2178         0.291880   
     72. A(H  24,C  11,H  26)          108.7636         0.291654   
     73. A(H  24,C  11,H  25)          108.5715         0.291658   
     74. A(C   6,C  11,H  25)          109.2314         0.324911   
     75. A(C   6,C  11,H  24)          110.5034         0.324649   
     76. A(C   6,C  11,H  26)          110.5161         0.324907   
     77. A(H  22,C  12,H  23)          108.4555         0.291936   
     78. A(H  21,C  12,H  23)          108.9011         0.291788   
     79. A(C   6,C  12,H  23)          110.3129         0.325370   
     80. A(H  21,C  12,H  22)          109.5946         0.292046   
     81. A(C   6,C  12,H  22)          109.1995         0.325671   
     82. A(C   6,C  12,H  21)          110.3470         0.325498   
     83. A(H  31,C  13,H  32)          108.2921         0.290483   
     84. A(H  30,C  13,H  32)          108.1544         0.291132   
     85. A(H  30,C  13,H  31)          108.2880         0.291210   
     86. A(C   3,C  13,H  31)          111.0202         0.332478   
     87. A(C   3,C  13,H  30)          109.9197         0.333262   
     88. A(C   3,C  13,H  32)          111.0709         0.332384   
     89. A(H  28,C  14,H  29)          108.3207         0.291225   
     90. A(H  27,C  14,H  29)          108.1458         0.291117   
     91. A(C   4,C  14,H  29)          109.9321         0.333253   
     92. A(H  27,C  14,H  28)          108.2478         0.290497   
     93. A(C   4,C  14,H  28)          111.0568         0.332504   
     94. A(C   4,C  14,H  27)          111.0417         0.332374   
     95. D(N   2,C   1,N   0,C   4)      0.8264         0.029438   
     96. D(N   2,C   1,N   0,C   5)    177.7800         0.029438   
     97. D(C   3,N   2,C   1,N   0)     -0.7910         0.029398   
     98. D(C   6,N   2,C   1,N   0)   -178.4594         0.029398   
     99. D(C  13,C   3,N   2,C   1)   -179.6561         0.026565   
    100. D(C   4,C   3,N   2,C   6)    178.0448         0.026565   
    101. D(C  13,C   3,N   2,C   6)     -2.0860         0.026565   
    102. D(C   4,C   3,N   2,C   1)      0.4747         0.026565   
    103. D(C  14,C   4,C   3,N   2)    179.7046         0.034074   
    104. D(C  14,C   4,N   0,C   5)      2.9019         0.026506   
    105. D(N   0,C   4,C   3,N   2)      0.0539         0.034074   
    106. D(N   0,C   4,C   3,C  13)   -179.8032         0.034074   
    107. D(C   3,C   4,N   0,C   5)   -177.4176         0.026506   
    108. D(C   3,C   4,N   0,C   1)     -0.5675         0.026506   
    109. D(C  14,C   4,C   3,C  13)     -0.1524         0.034074   
    110. D(C  14,C   4,N   0,C   1)    179.7519         0.026506   
    111. D(H   8,C   5,N   0,C   4)    -20.6833         0.017826   
    112. D(C   9,C   5,N   0,C   4)   -139.7124         0.017826   
    113. D(H   8,C   5,N   0,C   1)    162.7806         0.017826   
    114. D(C   9,C   5,N   0,C   1)     43.7516         0.017826   
    115. D(C   7,C   5,N   0,C   1)    -78.2615         0.017826   
    116. D(C   7,C   5,N   0,C   4)     98.2746         0.017826   
    117. D(C  12,C   6,N   2,C   3)    133.7990         0.017811   
    118. D(C  11,C   6,N   2,C   3)   -104.2483         0.017811   
    119. D(C  11,C   6,N   2,C   1)     73.0900         0.017811   
    120. D(C  12,C   6,N   2,C   1)    -48.8627         0.017811   
    121. D(H  10,C   6,N   2,C   3)     14.7603         0.017811   
    122. D(H  10,C   6,N   2,C   1)   -167.9014         0.017811   
    123. D(H  18,C   7,C   5,H   8)     59.9295         0.011094   
    124. D(H  18,C   7,C   5,N   0)    -58.4793         0.011094   
    125. D(H  18,C   7,C   5,C   9)   -179.8526         0.011094   
    126. D(H  20,C   7,C   5,C   9)    -60.4116         0.011094   
    127. D(H  20,C   7,C   5,H   8)    179.3705         0.011094   
    128. D(H  19,C   7,C   5,C   9)     59.7293         0.011094   
    129. D(H  20,C   7,C   5,N   0)     60.9617         0.011094   
    130. D(H  19,C   7,C   5,H   8)    -60.4886         0.011094   
    131. D(H  19,C   7,C   5,N   0)   -178.8975         0.011094   
    132. D(H  17,C   9,C   5,H   8)    -58.3017         0.011415   
    133. D(H  17,C   9,C   5,C   7)   -178.5189         0.011415   
    134. D(H  17,C   9,C   5,N   0)     60.1790         0.011415   
    135. D(H  16,C   9,C   5,H   8)     62.0816         0.011415   
    136. D(H  16,C   9,C   5,C   7)    -58.1356         0.011415   
    137. D(H  16,C   9,C   5,N   0)   -179.4377         0.011415   
    138. D(H  15,C   9,C   5,H   8)   -177.3662         0.011415   
    139. D(H  15,C   9,C   5,C   7)     62.4166         0.011415   
    140. D(H  15,C   9,C   5,N   0)    -58.8855         0.011415   
    141. D(H  26,C  11,C   6,H  10)     60.9764         0.011137   
    142. D(H  26,C  11,C   6,N   2)    179.4453         0.011137   
    143. D(H  25,C  11,C   6,C  12)     60.8723         0.011137   
    144. D(H  25,C  11,C   6,H  10)   -178.8405         0.011137   
    145. D(H  25,C  11,C   6,N   2)    -60.3716         0.011137   
    146. D(H  24,C  11,C   6,C  12)   -179.7492         0.011137   
    147. D(H  24,C  11,C   6,H  10)    -59.4620         0.011137   
    148. D(H  26,C  11,C   6,C  12)    -59.3108         0.011137   
    149. D(H  24,C  11,C   6,N   2)     59.0070         0.011137   
    150. D(H  23,C  12,C   6,N   2)    -60.0625         0.011367   
    151. D(H  22,C  12,C   6,C  11)    -62.1533         0.011367   
    152. D(H  22,C  12,C   6,H  10)    177.5491         0.011367   
    153. D(H  22,C  12,C   6,N   2)     59.0381         0.011367   
    154. D(H  21,C  12,C   6,C  11)     58.3698         0.011367   
    155. D(H  21,C  12,C   6,H  10)    -61.9279         0.011367   
    156. D(H  23,C  12,C   6,H  10)     58.4485         0.011367   
    157. D(H  21,C  12,C   6,N   2)    179.5611         0.011367   
    158. D(H  23,C  12,C   6,C  11)    178.7462         0.011367   
    159. D(H  32,C  13,C   3,C   4)    117.4589         0.014007   
    160. D(H  32,C  13,C   3,N   2)    -62.3764         0.014007   
    161. D(H  31,C  13,C   3,C   4)   -121.9850         0.014007   
    162. D(H  31,C  13,C   3,N   2)     58.1797         0.014007   
    163. D(H  30,C  13,C   3,C   4)     -2.1960         0.014007   
    164. D(H  30,C  13,C   3,N   2)    177.9687         0.014007   
    165. D(H  29,C  14,C   4,C   3)      2.4701         0.014007   
    166. D(H  29,C  14,C   4,N   0)   -177.9320         0.014007   
    167. D(H  28,C  14,C   4,C   3)    122.3314         0.014007   
    168. D(H  28,C  14,C   4,N   0)    -58.0708         0.014007   
    169. D(H  27,C  14,C   4,C   3)   -117.1635         0.014007   
    170. D(H  27,C  14,C   4,N   0)     62.4343         0.014007   
    -----------------------------------------------------------------

Number of atoms                         .... 33
Number of degrees of freedom            .... 170

         *************************************************************
         *                GEOMETRY OPTIMIZATION CYCLE   1            *
         *************************************************************
---------------------------------
CARTESIAN COORDINATES (ANGSTROEM)
---------------------------------
  N     -1.058967   -0.034252    0.139987
  C      0.010893   -0.867638    0.177518
  N      1.070985   -0.029430    0.056572
  C      0.677638    1.289483   -0.071229
  C     -0.682008    1.286382   -0.018781
  C     -2.420775   -0.515109    0.191279
  C      2.432975   -0.511135    0.016250
  C     -2.829111   -1.052850   -1.182392
  H     -3.071994    0.326113    0.455859
  C     -2.545894   -1.599549    1.258356
  H      3.104800    0.346364    0.134491
  C      2.701996   -1.177705   -1.334474
  C      2.666055   -1.492143    1.163173
  C      1.631926    2.420672   -0.227495
  C     -1.650807    2.413257   -0.097833
  H     -1.866932   -2.413498    1.022812
  H     -3.565450   -1.974022    1.296868
  H     -2.278913   -1.201285    2.234241
  H     -2.735782   -0.277121   -1.939909
  H     -3.858725   -1.400622   -1.164039
  H     -2.177965   -1.880221   -1.452819
  H      3.685822   -1.867251    1.138270
  H      1.970694   -2.321183    1.070899
  H      2.493824   -1.003117    2.119132
  H      2.538447   -0.472385   -2.146897
  H      2.022044   -2.016046   -1.461730
  H      3.726516   -1.537219   -1.384520
  H     -2.223895    2.502889    0.826594
  H     -2.351398    2.270686   -0.921528
  H     -1.119726    3.347922   -0.258878
  H      1.085285    3.352855   -0.344574
  H      2.263290    2.281433   -1.106074
  H      2.277803    2.512810    0.647305

----------------------------
CARTESIAN COORDINATES (A.U.)
----------------------------
  NO LB      ZA    FRAG     MASS         X           Y           Z
   0 N     7.0000    0    14.007   -2.001158   -0.064727    0.264538
   1 C     6.0000    0    12.011    0.020585   -1.639598    0.335460
   2 N     7.0000    0    14.007    2.023868   -0.055614    0.106905
   3 C     6.0000    0    12.011    1.280550    2.436770   -0.134603
   4 C     6.0000    0    12.011   -1.288808    2.430909   -0.035490
   5 C     6.0000    0    12.011   -4.574601   -0.973415    0.361465
   6 C     6.0000    0    12.011    4.597656   -0.965906    0.030709
   7 C     6.0000    0    12.011   -5.346245   -1.989598   -2.234398
   8 H     1.0000    0     1.008   -5.805227    0.616265    0.861449
   9 C     6.0000    0    12.011   -4.811043   -3.022710    2.377948
  10 H     1.0000    0     1.008    5.867221    0.654532    0.254150
  11 C     6.0000    0    12.011    5.106033   -2.225539   -2.521790
  12 C     6.0000    0    12.011    5.038113   -2.819741    2.198078
  13 C     6.0000    0    12.011    3.083892    4.574406   -0.429903
  14 C     6.0000    0    12.011   -3.119573    4.560394   -0.184877
  15 H     1.0000    0     1.008   -3.527989   -4.560850    1.932835
  16 H     1.0000    0     1.008   -6.737725   -3.730362    2.450725
  17 H     1.0000    0     1.008   -4.306521   -2.270100    4.222103
  18 H     1.0000    0     1.008   -5.169879   -0.523683   -3.665897
  19 H     1.0000    0     1.008   -7.291933   -2.646791   -2.199714
  20 H     1.0000    0     1.008   -4.115757   -3.553104   -2.745429
  21 H     1.0000    0     1.008    6.965194   -3.528594    2.151019
  22 H     1.0000    0     1.008    3.724071   -4.386400    2.023706
  23 H     1.0000    0     1.008    4.712644   -1.895616    4.004580
  24 H     1.0000    0     1.008    4.796970   -0.892679   -4.057047
  25 H     1.0000    0     1.008    3.821109   -3.809774   -2.762269
  26 H     1.0000    0     1.008    7.042095   -2.904923   -2.616364
  27 H     1.0000    0     1.008   -4.202552    4.729774    1.562037
  28 H     1.0000    0     1.008   -4.443499    4.290975   -1.741435
  29 H     1.0000    0     1.008   -2.115975    6.326656   -0.489208
  30 H     1.0000    0     1.008    2.050892    6.335978   -0.651150
  31 H     1.0000    0     1.008    4.276999    4.311284   -2.090177
  32 H     1.0000    0     1.008    4.304425    4.748523    1.223229

--------------------------------
INTERNAL COORDINATES (ANGSTROEM)
--------------------------------
 N      0   0   0     0.000000000000     0.00000000     0.00000000
 C      1   0   0     1.356665547647     0.00000000     0.00000000
 N      2   1   0     1.356839920856   103.54287327     0.00000000
 C      3   2   1     1.382239676159   112.04713937   359.20895403
 C      4   3   2     1.360660388842   106.17790995     0.47469891
 C      1   2   3     1.445120679111   122.53048768   177.77997353
 C      3   2   1     1.445227684405   122.20006000   181.54063359
 C      6   1   2     1.530646033803   109.66010328   281.73850171
 H      6   1   2     1.096240599618   108.24180435   162.78057673
 C      6   1   2     1.526538385380   109.78108756    43.75155662
 H      7   3   2     1.095734284002   108.29829989   192.09857952
 C      7   3   2     1.530079275985   109.60465942    73.09001788
 C      7   3   2     1.527132565629   109.69381985   311.13727706
 C      4   3   2     1.488176980887   123.54009382   180.34387064
 C      5   4   3     1.488176371674   130.29615272   179.70464448
 H     10   6   1     1.085810095382   109.24674917   301.11451259
 H     10   6   1     1.086833833129   110.26895240   180.56234126
 H     10   6   1     1.087310697262   110.30716948    60.17903808
 H      8   6   1     1.088253883299   110.57261918   301.52066089
 H      8   6   1     1.086916163495   110.48504254   181.10254339
 H      8   6   1     1.087044187880   109.32064402    60.96166806
 H     13   7   3     1.086853777916   110.34699977   179.56109407
 H     13   7   3     1.085978452925   109.19947335    59.03807820
 H     13   7   3     1.087505474292   110.31291214   299.93751062
 H     12   7   3     1.088234908562   110.50337848    59.00696909
 H     12   7   3     1.086896963032   109.23140511   299.62840051
 H     12   7   3     1.086920737129   110.51607964   179.44529807
 H     15   5   4     1.091342606716   111.04174107   242.83647249
 H     15   5   4     1.090700724435   111.05675598   122.33138504
 H     15   5   4     1.087005993416   109.93213761     2.47010573
 H     14   4   3     1.086963218440   109.91969634   177.96874514
 H     14   4   3     1.090830000857   111.02020007    58.17967998
 H     14   4   3     1.091293843702   111.07085668   297.62357811

---------------------------
INTERNAL COORDINATES (A.U.)
---------------------------
 N      0   0   0     0.000000000000     0.00000000     0.00000000
 C      1   0   0     2.563726340380     0.00000000     0.00000000
 N      2   1   0     2.564055857989   103.54287327     0.00000000
 C      3   2   1     2.612054439381   112.04713937   359.20895403
 C      4   3   2     2.571275496186   106.17790995     0.47469891
 C      1   2   3     2.730882313986   122.53048768   177.77997353
 C      3   2   1     2.731084524686   122.20006000   181.54063359
 C      6   1   2     2.892501811861   109.66010328   281.73850171
 H      6   1   2     2.071594510164   108.24180435   162.78057673
 C      6   1   2     2.884739481287   109.78108756    43.75155662
 H      7   3   2     2.070637712313   108.29829989   192.09857952
 C      7   3   2     2.891430794800   109.60465942    73.09001788
 C      7   3   2     2.885862319232   109.69381985   311.13727706
 C      4   3   2     2.812246932681   123.54009382   180.34387064
 C      5   4   3     2.812245781436   130.29615272   179.70464448
 H     10   6   1     2.051883713719   109.24674917   301.11451259
 H     10   6   1     2.053818297693   110.26895240   180.56234126
 H     10   6   1     2.054719440308   110.30716948    60.17903808
 H      8   6   1     2.056501803612   110.57261918   301.52066089
 H      8   6   1     2.053973879539   110.48504254   181.10254339
 H      8   6   1     2.054215810563   109.32064402    60.96166806
 H     13   7   3     2.053855987879   110.34699977   179.56109407
 H     13   7   3     2.052201863367   109.19947335    59.03807820
 H     13   7   3     2.055087515551   110.31291214   299.93751062
 H     12   7   3     2.056465946555   110.50337848    59.00696909
 H     12   7   3     2.053937595921   109.23140511   299.62840051
 H     12   7   3     2.053982522453   110.51607964   179.44529807
 H     15   5   4     2.062338644973   111.04174107   242.83647249
 H     15   5   4     2.061125663252   111.05675598   122.33138504
 H     15   5   4     2.054143633487   109.93213761     2.47010573
 H     14   4   3     2.054062800497   109.91969634   177.96874514
 H     14   4   3     2.061369960285   111.02020007    58.17967998
 H     14   4   3     2.062246496230   111.07085668   297.62357811

---------------------
BASIS SET INFORMATION
---------------------
There are 3 groups of distinct atoms

 Group   1 Type N   : 7s4p1d contracted to 3s2p1d pattern {511/31/1}
 Group   2 Type C   : 7s4p1d contracted to 3s2p1d pattern {511/31/1}
 Group   3 Type H   : 4s1p contracted to 2s1p pattern {31/1}

Atom   0N    basis set group =>   1
Atom   1C    basis set group =>   2
Atom   2N    basis set group =>   1
Atom   3C    basis set group =>   2
Atom   4C    basis set group =>   2
Atom   5C    basis set group =>   2
Atom   6C    basis set group =>   2
Atom   7C    basis set group =>   2
Atom   8H    basis set group =>   3
Atom   9C    basis set group =>   2
Atom  10H    basis set group =>   3
Atom  11C    basis set group =>   2
Atom  12C    basis set group =>   2
Atom  13C    basis set group =>   2
Atom  14C    basis set group =>   2
Atom  15H    basis set group =>   3
Atom  16H    basis set group =>   3
Atom  17H    basis set group =>   3
Atom  18H    basis set group =>   3
Atom  19H    basis set group =>   3
Atom  20H    basis set group =>   3
Atom  21H    basis set group =>   3
Atom  22H    basis set group =>   3
Atom  23H    basis set group =>   3
Atom  24H    basis set group =>   3
Atom  25H    basis set group =>   3
Atom  26H    basis set group =>   3
Atom  27H    basis set group =>   3
Atom  28H    basis set group =>   3
Atom  29H    basis set group =>   3
Atom  30H    basis set group =>   3
Atom  31H    basis set group =>   3
Atom  32H    basis set group =>   3
---------------------------------
AUXILIARY/J BASIS SET INFORMATION
---------------------------------
There are 3 groups of distinct atoms

 Group   1 Type N   : 12s5p4d2f1g contracted to 6s4p3d1f1g pattern {711111/2111/211/2/1}
 Group   2 Type C   : 12s5p4d2f1g contracted to 6s4p3d1f1g pattern {711111/2111/211/2/1}
 Group   3 Type H   : 5s2p1d contracted to 3s1p1d pattern {311/2/1}

Atom   0N    basis set group =>   1
Atom   1C    basis set group =>   2
Atom   2N    basis set group =>   1
Atom   3C    basis set group =>   2
Atom   4C    basis set group =>   2
Atom   5C    basis set group =>   2
Atom   6C    basis set group =>   2
Atom   7C    basis set group =>   2
Atom   8H    basis set group =>   3
Atom   9C    basis set group =>   2
Atom  10H    basis set group =>   3
Atom  11C    basis set group =>   2
Atom  12C    basis set group =>   2
Atom  13C    basis set group =>   2
Atom  14C    basis set group =>   2
Atom  15H    basis set group =>   3
Atom  16H    basis set group =>   3
Atom  17H    basis set group =>   3
Atom  18H    basis set group =>   3
Atom  19H    basis set group =>   3
Atom  20H    basis set group =>   3
Atom  21H    basis set group =>   3
Atom  22H    basis set group =>   3
Atom  23H    basis set group =>   3
Atom  24H    basis set group =>   3
Atom  25H    basis set group =>   3
Atom  26H    basis set group =>   3
Atom  27H    basis set group =>   3
Atom  28H    basis set group =>   3
Atom  29H    basis set group =>   3
Atom  30H    basis set group =>   3
Atom  31H    basis set group =>   3
Atom  32H    basis set group =>   3
------------------------------------------------------------------------------
                           ORCA GTO INTEGRAL CALCULATION
                           -- RI-GTO INTEGRALS CHOSEN --
------------------------------------------------------------------------------
------------------------------------------------------------------------------
                   ___                                                        
                  /   \      - P O W E R E D   B Y -                         
                 /     \                                                     
                 |  |  |   _    _      __       _____    __    __             
                 |  |  |  | |  | |    /  \     |  _  \  |  |  /  |          
                  \  \/   | |  | |   /    \    | | | |  |  | /  /          
                 / \  \   | |__| |  /  /\  \   | |_| |  |  |/  /          
                |  |  |   |  __  | /  /__\  \  |    /   |      \           
                |  |  |   | |  | | |   __   |  |    \   |  |\   \          
                \     /   | |  | | |  |  |  |  | |\  \  |  | \   \       
                 \___/    |_|  |_| |__|  |__|  |_| \__\ |__|  \__/        
                                                                              
                      - O R C A' S   B I G   F R I E N D -                    
                                      &                                       
                       - I N T E G R A L  F E E D E R -                       
                                                                              
 v1 FN, 2020, v2 2021                                                         
------------------------------------------------------------------------------


Reading SHARK input file 6_deprot_aq_2.SHARKINP.tmp ... ok
----------------------
SHARK INTEGRAL PACKAGE
----------------------

Number of atoms                             ...     33
Number of basis functions                   ...    282
Number of shells                            ...    138
Maximum angular momentum                    ...      2
Integral batch strategy                     ... SHARK/LIBINT Hybrid
RI-J (if used) integral strategy            ... SPLIT-RIJ (Revised 2003 algorithm where possible)
Printlevel                                  ...      1
Contraction scheme used                     ... SEGMENTED contraction
Coulomb Range Separation                    ... NOT USED
Exchange Range Separation                   ... Long Range
   Mu parameter                             ...  0.300000
   Scaling (regular/separated)              ...  0.157706  0.842294
Finite Nucleus Model                        ... NOT USED
Auxiliary Coulomb fitting basis             ... AVAILABLE
   # of basis functions in Aux-J            ...    857
   # of shells in Aux-J                     ...    295
   Maximum angular momentum in Aux-J        ...      4
Auxiliary J/K fitting basis                 ... NOT available
Auxiliary Correlation fitting basis         ... NOT available
Auxiliary 'external' fitting basis          ... NOT available
Integral threshold                          ...     2.500000e-11
Primitive cut-off                           ...     2.500000e-12
Primitive pair pre-selection threshold      ...     2.500000e-12

Calculating pre-screening integrals         ... done (  0.1 sec) Dimension = 138
Organizing shell pair data                  ... done (  0.1 sec)
Shell pair information
Total number of shell pairs                 ...      9591
Shell pairs after pre-screening             ...      8271
Total number of primitive shell pairs       ...     33125
Primitive shell pairs kept                  ...     19757
          la=0 lb=0:   2822 shell pairs
          la=1 lb=0:   3121 shell pairs
          la=1 lb=1:    887 shell pairs
          la=2 lb=0:    876 shell pairs
          la=2 lb=1:    488 shell pairs
          la=2 lb=2:     77 shell pairs

Calculating one electron integrals          ... done (  0.1 sec)
Calculating RI/J V-Matrix + Cholesky decomp.... done (  0.1 sec)
Calculating Nuclear repulsion               ... done (  0.0 sec) ENN=    859.433602119233 Eh

SHARK setup successfully completed in   0.4 seconds

Maximum memory used throughout the entire GTOINT-calculation: 47.7 MB
-------------------------------------------------------------------------------
                                 ORCA SCF
-------------------------------------------------------------------------------

------------
SCF SETTINGS
------------
Hamiltonian:
 Density Functional     Method          .... DFT(GTOs)
 Exchange Functional    Exchange        .... WB97X
 Correlation Functional Correlation     .... WB97X
 Gradients option       PostSCFGGA      .... off
 Hybrid DFT is turned on
   Fraction HF Exchange ScalHFX         ....  0.157706
   Scaling of DF-GGA-X  ScalDFX         ....  0.000000
   Scaling of DF-GGA-C  ScalDFC         ....  1.000000
   Scaling of DF-LDA-C  ScalLDAC        ....  1.000000
   Perturbative correction              ....  0.000000
   Density functional embedding theory  .... OFF
 Long-range corrected/Screened/Range-Separated Hybrid DFT is turned on
   Amount of maximum screened exact exchange              ....  0.842294
   Range separation parameter mu (erf(mu*r12)/r12)        ....  0.300000
 RI-approximation to the Coulomb term is turned on
   Number of AuxJ basis functions       .... 857
   RIJ-COSX (HFX calculated with COS-X)).... on


General Settings:
 Integral files         IntName         .... 6_deprot_aq_2
 Hartree-Fock type      HFTyp           .... RHF
 Total Charge           Charge          ....    0
 Multiplicity           Mult            ....    1
 Number of Electrons    NEL             ....  100
 Basis Dimension        Dim             ....  282
 Nuclear Repulsion      ENuc            ....    859.4336021192 Eh

Convergence Acceleration:
 DIIS                   CNVDIIS         .... on
   Start iteration      DIISMaxIt       ....     0
   Startup error        DIISStart       ....  0.200000
   # of expansion vecs  DIISMaxEq       ....     5
   Bias factor          DIISBfac        ....   1.050
   Max. coefficient     DIISMaxC        ....  10.000
 Trust-Rad. Augm. Hess. CNVTRAH         .... auto
   Auto Start mean grad. ratio tolernc. ....  1.125000
   Auto Start start iteration           ....    20
   Auto Start num. interpolation iter.  ....    10
   Max. Number of Micro iterations      ....    16
   Max. Number of Macro iterations      .... Maxiter - #DIIS iter
   Number of Davidson start vectors     ....     2
   Converg. threshold I  (grad. norm)   ....   1.000e-05
   Converg. threshold II (energy diff.) ....   1.000e-08
   Grad. Scal. Fac. for Micro threshold ....   0.100
   Minimum threshold for Micro iter.    ....   0.010
   NR start threshold (gradient norm)   ....   0.001
   Initial trust radius                 ....   0.400
   Minimum AH scaling param. (alpha)    ....   1.000
   Maximum AH scaling param. (alpha)    .... 1000.000
   Orbital update algorithm             .... Taylor
   White noise on init. David. guess    .... on
   Maximum white noise                  ....   0.010
   Quad. conv. algorithm                .... NR
 SOSCF                  CNVSOSCF        .... on
   Start iteration      SOSCFMaxIt      ....   150
   Startup grad/error   SOSCFStart      ....  0.001000
 Level Shifting         CNVShift        .... on
   Level shift para.    LevelShift      ....    0.2500
   Turn off err/grad.   ShiftErr        ....    0.0000
 Zerner damping         CNVZerner       .... off
 Static damping         CNVDamp         .... on
   Fraction old density DampFac         ....    0.8500
   Max. Damping (<1)    DampMax         ....    0.9800
   Min. Damping (>=0)   DampMin         ....    0.0000
   Turn off err/grad.   DampErr         ....    0.0300
 Fernandez-Rico         CNVRico         .... off

SCF Procedure:
 Maximum # iterations   MaxIter         ....   125
 SCF integral mode      SCFMode         .... Direct
   Integral package                     .... SHARK and LIBINT hybrid scheme
 Reset frequency        DirectResetFreq ....    20
 Integral Threshold     Thresh          ....  2.500e-11 Eh
 Primitive CutOff       TCut            ....  2.500e-12 Eh

Convergence Tolerance:
 Convergence Check Mode ConvCheckMode   .... Total+1el-Energy
 Convergence forced     ConvForced      .... 0
 Energy Change          TolE            ....  1.000e-08 Eh
 1-El. energy change                    ....  1.000e-05 Eh
 Orbital Gradient       TolG            ....  1.000e-05
 Orbital Rotation angle TolX            ....  1.000e-05
 DIIS Error             TolErr          ....  5.000e-07


Diagonalization of the overlap matrix:
Smallest eigenvalue                        ... 8.572e-04
Time for diagonalization                   ...    0.014 sec
Threshold for overlap eigenvalues          ... 1.000e-08
Number of eigenvalues below threshold      ... 0
Time for construction of square roots      ...    0.005 sec
Total time needed                          ...    0.020 sec

Time for model grid setup =    0.682 sec

------------------------------
INITIAL GUESS: MODEL POTENTIAL
------------------------------
Loading Hartree-Fock densities                     ... done
Calculating cut-offs                               ... done
Initializing the effective Hamiltonian             ... done
Setting up the integral package (SHARK)            ... done
Starting the Coulomb interaction                   ... done (   0.8 sec)
Reading the grid                                   ... done
Mapping shells                                     ... done
Starting the XC term evaluation                    ... done (   0.7 sec)
  promolecular density results
     # of electrons  =     99.993769988
     EX              =    -75.330528206
     EC              =     -3.313315929
     EX+EC           =    -78.643844135
Transforming the Hamiltonian                       ... done (   0.0 sec)
Diagonalizing the Hamiltonian                      ... done (   0.0 sec)
Back transforming the eigenvectors                 ... done (   0.0 sec)
Now organizing SCF variables                       ... done
                      ------------------
                      INITIAL GUESS DONE (   2.2 sec)
                      ------------------
-------------------
DFT GRID GENERATION
-------------------

General Integration Accuracy     IntAcc      ... 4.388
Radial Grid Type                 RadialGrid  ... OptM3 with GC (2021)
Angular Grid (max. ang.)         AngularGrid ... 4 (Lebedev-302)
Angular grid pruning method      GridPruning ... 4 (adaptive)
Weight generation scheme         WeightScheme... Becke
Basis function cutoff            BFCut       ... 1.0000e-11
Integration weight cutoff        WCut        ... 1.0000e-14
Angular grids for H and He will be reduced by one unit
Partially contracted basis set               ... off
Rotationally invariant grid construction     ... off

Total number of grid points                  ...   141229
Total number of batches                      ...     2222
Average number of points per batch           ...       63
Average number of grid points per atom       ...     4280
Time for grid setup =    2.484 sec

--------------------
COSX GRID GENERATION
--------------------

GRIDX 1
-------
General Integration Accuracy     IntAcc      ... 3.816
Radial Grid Type                 RadialGrid  ... OptM3 with GC (2021)
Angular Grid (max. ang.)         AngularGrid ... 1 (Lebedev-50)
Angular grid pruning method      GridPruning ... 4 (adaptive)
Weight generation scheme         WeightScheme... Becke
Basis function cutoff            BFCut       ... 1.0000e-11
Integration weight cutoff        WCut        ... 1.0000e-14
Angular grids for H and He will be reduced by one unit
Partially contracted basis set               ... on
Rotationally invariant grid construction     ... off

Total number of grid points                  ...    18041
Total number of batches                      ...      302
Average number of points per batch           ...       59
Average number of grid points per atom       ...      547
UseSFitting                                  ... on

GRIDX 2
-------
General Integration Accuracy     IntAcc      ... 4.020
Radial Grid Type                 RadialGrid  ... OptM3 with GC (2021)
Angular Grid (max. ang.)         AngularGrid ... 2 (Lebedev-110)
Angular grid pruning method      GridPruning ... 4 (adaptive)
Weight generation scheme         WeightScheme... Becke
Basis function cutoff            BFCut       ... 1.0000e-11
Integration weight cutoff        WCut        ... 1.0000e-14
Angular grids for H and He will be reduced by one unit
Partially contracted basis set               ... on
Rotationally invariant grid construction     ... off

Total number of grid points                  ...    37580
Total number of batches                      ...      605
Average number of points per batch           ...       62
Average number of grid points per atom       ...     1139
UseSFitting                                  ... on

GRIDX 3
-------
General Integration Accuracy     IntAcc      ... 4.338
Radial Grid Type                 RadialGrid  ... OptM3 with GC (2021)
Angular Grid (max. ang.)         AngularGrid ... 3 (Lebedev-194)
Angular grid pruning method      GridPruning ... 4 (adaptive)
Weight generation scheme         WeightScheme... Becke
Basis function cutoff            BFCut       ... 1.0000e-11
Integration weight cutoff        WCut        ... 1.0000e-14
Angular grids for H and He will be reduced by one unit
Partially contracted basis set               ... on
Rotationally invariant grid construction     ... off

Total number of grid points                  ...    81721
Total number of batches                      ...     1293
Average number of points per batch           ...       63
Average number of grid points per atom       ...     2476
UseSFitting                                  ... on

Time for X-Grid setup             =    3.234 sec


--------------------
CPCM SOLVATION MODEL
--------------------
CPCM parameters:
  Epsilon                                         ...      80.4000
  Refrac                                          ...       1.3300
  Rsolv                                           ...       1.3000
  Surface type                                    ... GAUSSIAN VDW
  Epsilon function type                           ...         CPCM
Radii:
 Radius for N  used is    3.5149 Bohr (=   1.8600 Ang.)
 Radius for C  used is    3.8550 Bohr (=   2.0400 Ang.)
 Radius for H  used is    2.4944 Bohr (=   1.3200 Ang.)
Calculating surface                               ...        done! (  0.0s)
GEPOL surface points                              ...         1741
GEPOL Volume                                      ...    1688.5023
GEPOL Surface-area                                ...     916.1259
Calculating surface distance matrix               ...        done! (  0.0s)
Performing Cholesky decomposition & store         ...        done! (  0.1s)
Overall time for CPCM initialization              ...                 0.1s
--------------
SCF ITERATIONS
--------------
ITER       Energy         Delta-E        Max-DP      RMS-DP      [F,P]     Damp
               ***  Starting incremental Fock matrix formation  ***
  0   -539.8607449754   0.000000000000 0.03749262  0.00069761  0.1562717 0.8500
  1   -539.9276586511  -0.066913675615 0.03954295  0.00065959  0.1259794 0.8500
                               ***Turning on DIIS***
  2   -539.9788770336  -0.051218382524 0.03444986  0.00054107  0.0967808 0.8500
  3   -540.0170794218  -0.038202388256 0.02754682  0.00038632  0.0734075 0.8500
  4   -540.0465691978  -0.029489775936 0.02255144  0.00029558  0.0587913 0.8500
  5   -540.0697907053  -0.023221507512 0.01895873  0.00024218  0.0486708 0.8500
  6   -540.0886370150  -0.018846309676 0.01612980  0.00020423  0.0409088 0.8500
  7   -540.1042047978  -0.015567782863 0.01387129  0.00017580  0.0346162 0.8500
  8   -540.1172019205  -0.012997122675 0.07965887  0.00100943  0.0292911 0.0000
  9   -540.1869171775  -0.069715256969 0.00154680  0.00003742  0.0012603 0.0000
                      *** Initiating the SOSCF procedure ***
                           *** Shutting down DIIS ***
                      *** Re-Reading the Fockian *** 
                      *** Removing any level shift *** 
ITER      Energy       Delta-E        Grad      Rot      Max-DP    RMS-DP
 10   -540.18694546  -0.0000282775  0.000371  0.000371  0.000672  0.000018
               *** Restarting incremental Fock matrix formation ***
 11   -540.18699189  -0.0000464392  0.000246  0.000578  0.000480  0.000013
 12   -540.18699296  -0.0000010627  0.000092  0.000457  0.000283  0.000009
 13   -540.18699320  -0.0000002407  0.000033  0.000029  0.000150  0.000003
 14   -540.18699324  -0.0000000447  0.000007  0.000009  0.000070  0.000001
 15   -540.18699324  -0.0000000017  0.000004  0.000015  0.000017  0.000000
                  ***Gradient check signals convergence***
              ***Rediagonalizing the Fockian in SOSCF/NRSCF***

               *****************************************************
               *                     SUCCESS                       *
               *           SCF CONVERGED AFTER  16 CYCLES          *
               *****************************************************

Old exchange energy                            =    -25.342215526 Eh
New exchange energy                            =    -25.342197187 Eh
Exchange energy change after final integration =      0.000018339 Eh
Total energy after final integration           =   -540.186974909 Eh
Final COS-X integration done in                =    90.787 sec

----------------
TOTAL SCF ENERGY
----------------

Total Energy       :         -540.18697491 Eh          -14699.23488 eV

Components:
Nuclear Repulsion  :          859.43360212 Eh           23386.37725 eV
Electronic Energy  :        -1399.62057703 Eh          -38085.61214 eV
One Electron Energy:        -2434.25961735 Eh          -66239.57174 eV
Two Electron Energy:         1034.63904032 Eh           28153.95961 eV
Max COSX asymmetry :            0.00000417 Eh               0.00011 eV
CPCM Dielectric    :           -0.01367516 Eh              -0.37212 eV

Virial components:
Potential Energy   :        -1074.13315146 Eh          -29228.64901 eV
Kinetic Energy     :          533.94617655 Eh           14529.41413 eV
Virial Ratio       :            2.01168807


DFT components:
N(Alpha)           :       50.000032058755 electrons
N(Beta)            :       50.000032058755 electrons
N(Total)           :      100.000064117509 electrons
E(XC)              :      -55.559252542939 Eh       
DFET-embed. en.    :        0.000000000000 Eh       
CPCM Solvation Model Properties:
Surface-charge          :           -0.02866541
Charge-correction       :           -0.00044803 Eh              -0.01219 eV
Free-energy (cav+disp)  :  This term is not implemented in the current solvation scheme

---------------
SCF CONVERGENCE
---------------

  Last Energy change         ...   -4.3550e-09  Tolerance :   1.0000e-08
  Last MAX-Density change    ...    3.9968e-15  Tolerance :   1.0000e-07
  Last RMS-Density change    ...    3.9224e-17  Tolerance :   5.0000e-09
  Last Orbital Gradient      ...    7.2050e-07  Tolerance :   1.0000e-05
  Last Orbital Rotation      ...    3.1843e-06  Tolerance :   1.0000e-05

             **** THE GBW FILE WAS UPDATED (6_deprot_aq_2.gbw) ****
             **** DENSITY 6_deprot_aq_2.scfp WAS UPDATED ****
             **** ENERGY FILE WAS UPDATED (6_deprot_aq_2.en.tmp) ****
             **** THE GBW FILE WAS UPDATED (6_deprot_aq_2.gbw) ****
             **** DENSITY 6_deprot_aq_2.scfp WAS UPDATED ****
----------------
ORBITAL ENERGIES
----------------

  NO   OCC          E(Eh)            E(eV) 
   0   2.0000     -14.437357      -392.8604 
   1   2.0000     -14.437056      -392.8523 
   2   2.0000     -10.303322      -280.3676 
   3   2.0000     -10.303227      -280.3651 
   4   2.0000     -10.287656      -279.9414 
   5   2.0000     -10.287058      -279.9251 
   6   2.0000     -10.268572      -279.4221 
   7   2.0000     -10.268468      -279.4192 
   8   2.0000     -10.265283      -279.3326 
   9   2.0000     -10.254785      -279.0469 
  10   2.0000     -10.254293      -279.0335 
  11   2.0000     -10.252196      -278.9764 
  12   2.0000     -10.251952      -278.9698 
  13   2.0000      -1.144726       -31.1496 
  14   2.0000      -1.043018       -28.3820 
  15   2.0000      -0.938508       -25.5381 
  16   2.0000      -0.899072       -24.4650 
  17   2.0000      -0.887896       -24.1609 
  18   2.0000      -0.840418       -22.8689 
  19   2.0000      -0.806252       -21.9392 
  20   2.0000      -0.805147       -21.9092 
  21   2.0000      -0.786122       -21.3915 
  22   2.0000      -0.767766       -20.8920 
  23   2.0000      -0.699834       -19.0435 
  24   2.0000      -0.682360       -18.5680 
  25   2.0000      -0.646023       -17.5792 
  26   2.0000      -0.622048       -16.9268 
  27   2.0000      -0.585304       -15.9269 
  28   2.0000      -0.560044       -15.2396 
  29   2.0000      -0.557033       -15.1576 
  30   2.0000      -0.550216       -14.9721 
  31   2.0000      -0.536411       -14.5965 
  32   2.0000      -0.533398       -14.5145 
  33   2.0000      -0.519601       -14.1391 
  34   2.0000      -0.513017       -13.9599 
  35   2.0000      -0.508521       -13.8375 
  36   2.0000      -0.504773       -13.7356 
  37   2.0000      -0.494184       -13.4474 
  38   2.0000      -0.491030       -13.3616 
  39   2.0000      -0.486273       -13.2322 
  40   2.0000      -0.474285       -12.9060 
  41   2.0000      -0.470629       -12.8065 
  42   2.0000      -0.460738       -12.5373 
  43   2.0000      -0.452235       -12.3059 
  44   2.0000      -0.442996       -12.0545 
  45   2.0000      -0.436397       -11.8750 
  46   2.0000      -0.434174       -11.8145 
  47   2.0000      -0.359124        -9.7722 
  48   2.0000      -0.310917        -8.4605 
  49   2.0000      -0.298566        -8.1244 
  50   0.0000       0.126870         3.4523 
  51   0.0000       0.140895         3.8340 
  52   0.0000       0.141246         3.8435 
  53   0.0000       0.154848         4.2136 
  54   0.0000       0.169725         4.6185 
  55   0.0000       0.185931         5.0594 
  56   0.0000       0.194450         5.2912 
  57   0.0000       0.201193         5.4748 
  58   0.0000       0.202460         5.5092 
  59   0.0000       0.207647         5.6504 
  60   0.0000       0.222304         6.0492 
  61   0.0000       0.227569         6.1925 
  62   0.0000       0.235323         6.4035 
  63   0.0000       0.240324         6.5395 
  64   0.0000       0.242198         6.5905 
  65   0.0000       0.249926         6.8008 
  66   0.0000       0.257352         7.0029 
  67   0.0000       0.264859         7.2072 
  68   0.0000       0.275580         7.4989 
  69   0.0000       0.278607         7.5813 
  70   0.0000       0.280204         7.6247 
  71   0.0000       0.285432         7.7670 
  72   0.0000       0.289465         7.8767 
  73   0.0000       0.298767         8.1299 
  74   0.0000       0.302505         8.2316 
  75   0.0000       0.316816         8.6210 
  76   0.0000       0.341042         9.2802 
  77   0.0000       0.349244         9.5034 
  78   0.0000       0.353998         9.6328 
  79   0.0000       0.367290         9.9945 
  80   0.0000       0.378469        10.2987 
  81   0.0000       0.390955        10.6384 
  82   0.0000       0.398791        10.8517 
  83   0.0000       0.464877        12.6500 
  84   0.0000       0.483724        13.1628 
  85   0.0000       0.496030        13.4977 
  86   0.0000       0.505541        13.7565 
  87   0.0000       0.513286        13.9672 
  88   0.0000       0.516011        14.0414 
  89   0.0000       0.518690        14.1143 
  90   0.0000       0.534560        14.5461 
  91   0.0000       0.542329        14.7575 
  92   0.0000       0.563386        15.3305 
  93   0.0000       0.573402        15.6031 
  94   0.0000       0.582719        15.8566 
  95   0.0000       0.596499        16.2316 
  96   0.0000       0.626886        17.0584 
  97   0.0000       0.641177        17.4473 
  98   0.0000       0.643474        17.5098 
  99   0.0000       0.665706        18.1148 
 100   0.0000       0.670481        18.2447 
 101   0.0000       0.681424        18.5425 
 102   0.0000       0.693697        18.8765 
 103   0.0000       0.695661        18.9299 
 104   0.0000       0.704758        19.1774 
 105   0.0000       0.714099        19.4316 
 106   0.0000       0.721730        19.6393 
 107   0.0000       0.727454        19.7950 
 108   0.0000       0.733989        19.9729 
 109   0.0000       0.746847        20.3227 
 110   0.0000       0.752499        20.4766 
 111   0.0000       0.766030        20.8447 
 112   0.0000       0.769337        20.9347 
 113   0.0000       0.777020        21.1438 
 114   0.0000       0.777378        21.1535 
 115   0.0000       0.784860        21.3571 
 116   0.0000       0.789162        21.4742 
 117   0.0000       0.789753        21.4903 
 118   0.0000       0.790482        21.5101 
 119   0.0000       0.802708        21.8428 
 120   0.0000       0.804225        21.8841 
 121   0.0000       0.806631        21.9495 
 122   0.0000       0.808067        21.9886 
 123   0.0000       0.812499        22.1092 
 124   0.0000       0.815716        22.1968 
 125   0.0000       0.819853        22.3093 
 126   0.0000       0.821039        22.3416 
 127   0.0000       0.829110        22.5612 
 128   0.0000       0.835170        22.7261 
 129   0.0000       0.837019        22.7764 
 130   0.0000       0.842436        22.9239 
 131   0.0000       0.847853        23.0713 
 132   0.0000       0.860920        23.4268 
 133   0.0000       0.862523        23.4704 
 134   0.0000       0.867720        23.6119 
 135   0.0000       0.882766        24.0213 
 136   0.0000       0.904982        24.6258 
 137   0.0000       0.920348        25.0439 
 138   0.0000       0.924144        25.1472 
 139   0.0000       0.977727        26.6053 
 140   0.0000       0.988826        26.9073 
 141   0.0000       1.038243        28.2520 
 142   0.0000       1.051095        28.6018 
 143   0.0000       1.075303        29.2605 
 144   0.0000       1.102036        29.9879 
 145   0.0000       1.156172        31.4610 
 146   0.0000       1.161610        31.6090 
 147   0.0000       1.187190        32.3051 
 148   0.0000       1.193471        32.4760 
 149   0.0000       1.200328        32.6626 
 150   0.0000       1.214297        33.0427 
 151   0.0000       1.254080        34.1253 
 152   0.0000       1.261454        34.3259 
 153   0.0000       1.274698        34.6863 
 154   0.0000       1.286665        35.0119 
 155   0.0000       1.316954        35.8361 
 156   0.0000       1.342517        36.5318 
 157   0.0000       1.352242        36.7964 
 158   0.0000       1.420011        38.6405 
 159   0.0000       1.427068        38.8325 
 160   0.0000       1.438363        39.1399 
 161   0.0000       1.463512        39.8242 
 162   0.0000       1.499482        40.8030 
 163   0.0000       1.505515        40.9671 
 164   0.0000       1.551979        42.2315 
 165   0.0000       1.577754        42.9329 
 166   0.0000       1.581026        43.0219 
 167   0.0000       1.633369        44.4462 
 168   0.0000       1.642798        44.7028 
 169   0.0000       1.653589        44.9964 
 170   0.0000       1.655601        45.0512 
 171   0.0000       1.662263        45.2325 
 172   0.0000       1.664169        45.2843 
 173   0.0000       1.665284        45.3147 
 174   0.0000       1.674821        45.5742 
 175   0.0000       1.676478        45.6193 
 176   0.0000       1.686405        45.8894 
 177   0.0000       1.689470        45.9728 
 178   0.0000       1.716885        46.7188 
 179   0.0000       1.795834        48.8671 
 180   0.0000       1.811088        49.2822 
 181   0.0000       1.833976        49.9050 
 182   0.0000       1.836661        49.9781 
 183   0.0000       1.843421        50.1620 
 184   0.0000       1.856431        50.5161 
 185   0.0000       1.870126        50.8887 
 186   0.0000       1.886673        51.3390 
 187   0.0000       1.892420        51.4954 
 188   0.0000       1.897665        51.6381 
 189   0.0000       1.903284        51.7910 
 190   0.0000       1.904376        51.8207 
 191   0.0000       1.908613        51.9360 
 192   0.0000       1.921647        52.2907 
 193   0.0000       1.927661        52.4543 
 194   0.0000       1.934805        52.6487 
 195   0.0000       1.949672        53.0533 
 196   0.0000       1.951810        53.1114 
 197   0.0000       1.955355        53.2079 
 198   0.0000       1.963151        53.4201 
 199   0.0000       1.965902        53.4949 
 200   0.0000       1.985563        54.0299 
 201   0.0000       1.998093        54.3709 
 202   0.0000       2.003714        54.5238 
 203   0.0000       2.005049        54.5602 
 204   0.0000       2.008956        54.6665 
 205   0.0000       2.014710        54.8230 
 206   0.0000       2.025802        55.1249 
 207   0.0000       2.042409        55.5768 
 208   0.0000       2.055282        55.9271 
 209   0.0000       2.075368        56.4736 
 210   0.0000       2.099286        57.1245 
 211   0.0000       2.101762        57.1919 
 212   0.0000       2.112394        57.4812 
 213   0.0000       2.123234        57.7761 
 214   0.0000       2.139530        58.2196 
 215   0.0000       2.144695        58.3601 
 216   0.0000       2.165596        58.9289 
 217   0.0000       2.173270        59.1377 
 218   0.0000       2.189874        59.5895 
 219   0.0000       2.255738        61.3818 
 220   0.0000       2.267708        61.7075 
 221   0.0000       2.274869        61.9023 
 222   0.0000       2.283512        62.1375 
 223   0.0000       2.296719        62.4969 
 224   0.0000       2.314868        62.9908 
 225   0.0000       2.340646        63.6922 
 226   0.0000       2.352110        64.0042 
 227   0.0000       2.373533        64.5871 
 228   0.0000       2.377626        64.6985 
 229   0.0000       2.390861        65.0586 
 230   0.0000       2.404534        65.4307 
 231   0.0000       2.445702        66.5509 
 232   0.0000       2.468815        67.1799 
 233   0.0000       2.508567        68.2616 
 234   0.0000       2.512310        68.3634 
 235   0.0000       2.531350        68.8815 
 236   0.0000       2.535290        68.9887 
 237   0.0000       2.537431        69.0470 
 238   0.0000       2.564852        69.7932 
 239   0.0000       2.571381        69.9708 
 240   0.0000       2.586186        70.3737 
 241   0.0000       2.615802        71.1796 
 242   0.0000       2.621021        71.3216 
 243   0.0000       2.630095        71.5685 
 244   0.0000       2.639714        71.8303 
 245   0.0000       2.678983        72.8988 
 246   0.0000       2.707097        73.6639 
 247   0.0000       2.712051        73.7987 
 248   0.0000       2.717765        73.9541 
 249   0.0000       2.740718        74.5787 
 250   0.0000       2.741218        74.5923 
 251   0.0000       2.782883        75.7261 
 252   0.0000       2.841477        77.3205 
 253   0.0000       2.852633        77.6241 
 254   0.0000       2.853004        77.6342 
 255   0.0000       2.857232        77.7492 
 256   0.0000       2.869861        78.0929 
 257   0.0000       2.886593        78.5482 
 258   0.0000       2.921084        79.4867 
 259   0.0000       2.974868        80.9503 
 260   0.0000       2.990518        81.3761 
 261   0.0000       3.005869        81.7939 
 262   0.0000       3.012680        81.9792 
 263   0.0000       3.024590        82.3033 
 264   0.0000       3.031354        82.4873 
 265   0.0000       3.041609        82.7664 
 266   0.0000       3.052118        83.0523 
 267   0.0000       3.054094        83.1061 
 268   0.0000       3.085958        83.9732 
 269   0.0000       3.092456        84.1500 
 270   0.0000       3.116886        84.8148 
 271   0.0000       3.127810        85.1120 
 272   0.0000       3.133208        85.2589 
 273   0.0000       3.150509        85.7297 
 274   0.0000       3.170807        86.2821 
 275   0.0000       3.177601        86.4669 
 276   0.0000       3.181355        86.5691 
 277   0.0000       3.230449        87.9050 
 278   0.0000       3.357042        91.3498 
 279   0.0000       3.471579        94.4665 
 280   0.0000       3.482986        94.7769 
 281   0.0000       3.570356        97.1543 

                    ********************************
                    * MULLIKEN POPULATION ANALYSIS *
                    ********************************

-----------------------
MULLIKEN ATOMIC CHARGES
-----------------------
   0 N :   -0.208067
   1 C :   -0.195358
   2 N :   -0.208792
   3 C :   -0.134319
   4 C :   -0.135752
   5 C :   -0.020484
   6 C :   -0.018911
   7 C :    0.021979
   8 H :    0.035909
   9 C :    0.018697
  10 H :    0.036058
  11 C :    0.022128
  12 C :    0.017432
  13 C :    0.094325
  14 C :    0.095870
  15 H :    0.019533
  16 H :    0.030556
  17 H :    0.025961
  18 H :    0.028383
  19 H :    0.034815
  20 H :    0.019079
  21 H :    0.030909
  22 H :    0.019016
  23 H :    0.026501
  24 H :    0.027893
  25 H :    0.018020
  26 H :    0.034033
  27 H :    0.053666
  28 H :    0.046678
  29 H :    0.031136
  30 H :    0.030980
  31 H :    0.048601
  32 H :    0.053526
Sum of atomic charges:   -0.0000000

--------------------------------
MULLIKEN REDUCED ORBITAL CHARGES
--------------------------------
  0 N s       :     3.390299  s :     3.390299
      pz      :     1.512289  p :     3.785440
      px      :     1.150303
      py      :     1.122848
      dz2     :     0.002331  d :     0.032328
      dxz     :     0.004046
      dyz     :     0.005836
      dx2y2   :     0.011200
      dxy     :     0.008915
  1 C s       :     3.603975  s :     3.603975
      pz      :     0.720292  p :     2.526298
      px      :     0.656634
      py      :     1.149372
      dz2     :     0.007572  d :     0.065084
      dxz     :     0.012263
      dyz     :     0.009492
      dx2y2   :     0.008207
      dxy     :     0.027551
  2 N s       :     3.390080  s :     3.390080
      pz      :     1.512303  p :     3.786408
      px      :     1.151495
      py      :     1.122609
      dz2     :     0.002390  d :     0.032305
      dxz     :     0.003963
      dyz     :     0.005817
      dx2y2   :     0.011162
      dxy     :     0.008973
  3 C s       :     3.106117  s :     3.106117
      pz      :     1.086126  p :     2.970168
      px      :     0.990196
      py      :     0.893846
      dz2     :     0.004474  d :     0.058034
      dxz     :     0.010487
      dyz     :     0.009846
      dx2y2   :     0.019250
      dxy     :     0.013978
  4 C s       :     3.107844  s :     3.107844
      pz      :     1.086049  p :     2.969959
      px      :     0.991377
      py      :     0.892534
      dz2     :     0.004542  d :     0.057949
      dxz     :     0.010340
      dyz     :     0.009873
      dx2y2   :     0.019349
      dxy     :     0.013846
  5 C s       :     3.082579  s :     3.082579
      pz      :     1.034349  p :     2.880412
      px      :     0.826572
      py      :     1.019491
      dz2     :     0.012964  d :     0.057492
      dxz     :     0.010448
      dyz     :     0.010584
      dx2y2   :     0.010680
      dxy     :     0.012817
  6 C s       :     3.084841  s :     3.084841
      pz      :     1.030765  p :     2.876614
      px      :     0.827289
      py      :     1.018560
      dz2     :     0.013615  d :     0.057456
      dxz     :     0.009832
      dyz     :     0.010584
      dx2y2   :     0.010340
      dxy     :     0.013085
  7 C s       :     2.980637  s :     2.980637
      pz      :     0.960477  p :     2.970559
      px      :     1.000130
      py      :     1.009952
      dz2     :     0.006363  d :     0.026825
      dxz     :     0.002442
      dyz     :     0.008172
      dx2y2   :     0.004398
      dxy     :     0.005451
  8 H s       :     0.943027  s :     0.943027
      pz      :     0.004211  p :     0.021064
      px      :     0.006873
      py      :     0.009981
  9 C s       :     2.978679  s :     2.978679
      pz      :     0.973456  p :     2.975791
      px      :     1.004611
      py      :     0.997725
      dz2     :     0.007519  d :     0.026833
      dxz     :     0.001832
      dyz     :     0.006528
      dx2y2   :     0.004615
      dxy     :     0.006339
 10 H s       :     0.942819  s :     0.942819
      pz      :     0.003640  p :     0.021123
      px      :     0.007184
      py      :     0.010299
 11 C s       :     2.980966  s :     2.980966
      pz      :     0.959159  p :     2.970088
      px      :     1.004406
      py      :     1.006524
      dz2     :     0.007024  d :     0.026818
      dxz     :     0.001846
      dyz     :     0.007809
      dx2y2   :     0.004024
      dxy     :     0.006115
 12 C s       :     2.980453  s :     2.980453
      pz      :     0.969037  p :     2.975302
      px      :     1.003675
      py      :     1.002590
      dz2     :     0.007703  d :     0.026812
      dxz     :     0.001393
      dyz     :     0.006879
      dx2y2   :     0.004277
      dxy     :     0.006560
 13 C s       :     2.878417  s :     2.878417
      pz      :     1.027338  p :     2.999596
      px      :     0.995073
      py      :     0.977184
      dz2     :     0.005118  d :     0.027663
      dxz     :     0.009067
      dyz     :     0.002374
      dx2y2   :     0.003216
      dxy     :     0.007888
 14 C s       :     2.876834  s :     2.876834
      pz      :     1.028495  p :     2.999635
      px      :     0.993925
      py      :     0.977215
      dz2     :     0.005142  d :     0.027662
      dxz     :     0.008972
      dyz     :     0.002400
      dx2y2   :     0.003317
      dxy     :     0.007830
 15 H s       :     0.955433  s :     0.955433
      pz      :     0.004954  p :     0.025035
      px      :     0.010044
      py      :     0.010037
 16 H s       :     0.945146  s :     0.945146
      pz      :     0.004432  p :     0.024298
      px      :     0.014062
      py      :     0.005804
 17 H s       :     0.949870  s :     0.949870
      pz      :     0.012765  p :     0.024170
      px      :     0.005680
      py      :     0.005725
 18 H s       :     0.947401  s :     0.947401
      pz      :     0.009133  p :     0.024216
      px      :     0.004993
      py      :     0.010090
 19 H s       :     0.940820  s :     0.940820
      pz      :     0.004075  p :     0.024365
      px      :     0.014294
      py      :     0.005996
 20 H s       :     0.956511  s :     0.956511
      pz      :     0.004645  p :     0.024410
      px      :     0.008856
      py      :     0.010908
 21 H s       :     0.944783  s :     0.944783
      pz      :     0.004318  p :     0.024308
      px      :     0.014082
      py      :     0.005907
 22 H s       :     0.955998  s :     0.955998
      pz      :     0.004415  p :     0.024987
      px      :     0.010163
      py      :     0.010409
 23 H s       :     0.949344  s :     0.949344
      pz      :     0.012346  p :     0.024155
      px      :     0.005278
      py      :     0.006531
 24 H s       :     0.947930  s :     0.947930
      pz      :     0.009907  p :     0.024177
      px      :     0.005204
      py      :     0.009065
 25 H s       :     0.957470  s :     0.957470
      pz      :     0.004190  p :     0.024510
      px      :     0.009331
      py      :     0.010988
 26 H s       :     0.941606  s :     0.941606
      pz      :     0.004140  p :     0.024361
      px      :     0.014210
      py      :     0.006011
 27 H s       :     0.921701  s :     0.921701
      pz      :     0.012528  p :     0.024633
      px      :     0.007591
      py      :     0.004514
 28 H s       :     0.928671  s :     0.928671
      pz      :     0.011103  p :     0.024651
      px      :     0.009046
      py      :     0.004502
 29 H s       :     0.943804  s :     0.943804
      pz      :     0.005257  p :     0.025059
      px      :     0.007225
      py      :     0.012578
 30 H s       :     0.943954  s :     0.943954
      pz      :     0.005138  p :     0.025065
      px      :     0.007394
      py      :     0.012534
 31 H s       :     0.926773  s :     0.926773
      pz      :     0.011905  p :     0.024626
      px      :     0.008231
      py      :     0.004490
 32 H s       :     0.921851  s :     0.921851
      pz      :     0.011719  p :     0.024623
      px      :     0.008395
      py      :     0.004508


                     *******************************
                     * LOEWDIN POPULATION ANALYSIS *
                     *******************************

----------------------
LOEWDIN ATOMIC CHARGES
----------------------
   0 N :    0.038221
   1 C :   -0.298548
   2 N :    0.037949
   3 C :   -0.050374
   4 C :   -0.051251
   5 C :    0.029235
   6 C :    0.029516
   7 C :   -0.054473
   8 H :    0.029099
   9 C :   -0.054234
  10 H :    0.029237
  11 C :   -0.054452
  12 C :   -0.054480
  13 C :   -0.055469
  14 C :   -0.055314
  15 H :    0.018670
  16 H :    0.027478
  17 H :    0.024907
  18 H :    0.025280
  19 H :    0.029523
  20 H :    0.022419
  21 H :    0.027546
  22 H :    0.018843
  23 H :    0.025064
  24 H :    0.025314
  25 H :    0.021462
  26 H :    0.029066
  27 H :    0.039973
  28 H :    0.038627
  29 H :    0.041098
  30 H :    0.041071
  31 H :    0.039040
  32 H :    0.039957

-------------------------------
LOEWDIN REDUCED ORBITAL CHARGES
-------------------------------
  0 N s       :     3.054929  s :     3.054929
      pz      :     1.436002  p :     3.829556
      px      :     1.195991
      py      :     1.197564
      dz2     :     0.004446  d :     0.077294
      dxz     :     0.007451
      dyz     :     0.011438
      dx2y2   :     0.028806
      dxy     :     0.025153
  1 C s       :     3.183507  s :     3.183507
      pz      :     0.770938  p :     2.973653
      px      :     0.830103
      py      :     1.372612
      dz2     :     0.017147  d :     0.141388
      dxz     :     0.026692
      dyz     :     0.013628
      dx2y2   :     0.019311
      dxy     :     0.064610
  2 N s       :     3.054683  s :     3.054683
      pz      :     1.436159  p :     3.830117
      px      :     1.196270
      py      :     1.197689
      dz2     :     0.004541  d :     0.077250
      dxz     :     0.007373
      dyz     :     0.011402
      dx2y2   :     0.028672
      dxy     :     0.025263
  3 C s       :     2.839413  s :     2.839413
      pz      :     1.066015  p :     3.070026
      px      :     1.055493
      py      :     0.948517
      dz2     :     0.009840  d :     0.140934
      dxz     :     0.020700
      dyz     :     0.019920
      dx2y2   :     0.052574
      dxy     :     0.037901
  4 C s       :     2.839328  s :     2.839328
      pz      :     1.066714  p :     3.071199
      px      :     1.056321
      py      :     0.948164
      dz2     :     0.010066  d :     0.140724
      dxz     :     0.020309
      dyz     :     0.019989
      dx2y2   :     0.052761
      dxy     :     0.037600
  5 C s       :     2.827858  s :     2.827858
      pz      :     1.053056  p :     3.010444
      px      :     0.910028
      py      :     1.047361
      dz2     :     0.029054  d :     0.132464
      dxz     :     0.022088
      dyz     :     0.026137
      dx2y2   :     0.024456
      dxy     :     0.030728
  6 C s       :     2.827948  s :     2.827948
[...]
     43       0.022900  -0.028815  -0.054209
     44      -0.004070   0.004856   0.009181
     45       0.364852   0.243871   0.022640
     46      -0.575580  -0.384946  -0.035864
     47      -0.129900  -0.086631  -0.007860
     48       0.310865   0.207373   0.017782
     49       0.081545   0.054393   0.004641
     50      -0.010893  -0.007306  -0.000609
     51      -0.086075  -0.057196  -0.005048
     52      -0.096727  -0.064272  -0.005702
     53      -0.247990  -0.164815  -0.014600
     54      -0.000242  -0.000146   0.000037
     55      -0.001216  -0.000415   0.000391
     56       0.001520   0.000820  -0.000165
     57       0.059958   0.044212   0.006072
     58       0.017586   0.012924   0.001726
     59       0.000024   0.000044  -0.000008
     60       0.028066   0.022106   0.004582
     61      -0.041297  -0.032490  -0.006698
     62      -0.014641  -0.011473  -0.002362
     63      -0.031471   0.010527  -0.006725
     64       0.008357  -0.002824   0.001797
     65       0.000987  -0.000360   0.000245
     66      -0.031449   0.012622  -0.008428
     67      -0.048989   0.019691  -0.013129
     68      -0.001802   0.000581  -0.000393
     69       0.004189  -0.001721   0.001112
     70      -0.008619   0.003679  -0.002366
     71      -0.016750   0.007124  -0.004596
     72       0.000444  -0.000152   0.000137
     73      -0.001044   0.000219  -0.000326
     74       0.001395  -0.000422   0.000491
     75      -0.009330   0.005499  -0.003714
     76      -0.013379   0.007780  -0.005255
     77      -0.002107   0.001283  -0.000873
     78      -0.014262   0.006445  -0.003770
     79       0.004289  -0.001941   0.001135
     80       0.000934  -0.000384   0.000209
     81      -0.054126   0.069341   0.125928
     82       0.010144  -0.012703  -0.023335
     83       0.090066  -0.115023  -0.209117
     84      -0.064744   0.085193   0.154510
     85      -0.009132   0.012148   0.022085
     86      -0.081580   0.107048   0.194045
     87      -0.153721   0.194107   0.367155
     88      -0.268681   0.338532   0.642695
     89       0.039523  -0.049863  -0.094535
     90      -0.194871   0.317105  -0.252962
     91       0.333329  -0.542901   0.433318
     92      -0.032173   0.052348  -0.041809
     93      -0.075961   0.122016  -0.094472
     94       0.011538  -0.018599   0.014406
     95       0.113439  -0.182451   0.141125
     96      -0.076503   0.123177  -0.094418
     97      -0.012279   0.019747  -0.015304
     98      -0.106175   0.171115  -0.131253


-----------
IR SPECTRUM
-----------

 Mode   freq       eps      Int      T**2         TX        TY        TZ
       cm**-1   L/(mol*cm) km/mol    a.u.
----------------------------------------------------------------------------
  7:     49.00   0.000269    1.36  0.001715  (-0.009010 -0.004808 -0.040138)
  8:     87.32   0.001431    7.23  0.005115  (-0.003419 -0.007838 -0.071008)
  9:    109.69   0.000019    0.10  0.000055  (-0.007115 -0.001328 -0.001612)
 10:    153.68   0.000386    1.95  0.000783  (-0.000344 -0.027974  0.000516)
 11:    158.69   0.000029    0.14  0.000056  (-0.001661 -0.000150 -0.007311)
 12:    195.29   0.000025    0.12  0.000039  (-0.004519 -0.001814 -0.003930)
 13:    213.13   0.000033    0.17  0.000049  (-0.006918 -0.000071  0.001074)
 14:    230.70   0.000946    4.78  0.001280  (-0.035256 -0.000681  0.006033)
 15:    239.20   0.000068    0.35  0.000089  ( 0.009096  0.000555  0.002504)
 16:    240.77   0.000019    0.10  0.000025  ( 0.003999 -0.001818 -0.002397)
 17:    262.53   0.000069    0.35  0.000082  ( 0.008011 -0.004169  0.000679)
 18:    273.84   0.000074    0.38  0.000085  ( 0.000162  0.001483 -0.009081)
 19:    281.71   0.000108    0.55  0.000120  (-0.000712 -0.008827 -0.006421)
 20:    292.33   0.000051    0.26  0.000055  (-0.006917  0.000949 -0.002485)
 21:    321.27   0.000312    1.58  0.000303  ( 0.001638 -0.015925 -0.006817)
 22:    325.19   0.000470    2.38  0.000451  ( 0.021061  0.002403 -0.001455)
 23:    401.65   0.003898   19.70  0.003029  ( 0.001044  0.002674  0.054958)
 24:    416.68   0.000284    1.44  0.000213  (-0.009615  0.000168 -0.010972)
 25:    475.47   0.000115    0.58  0.000076  (-0.000354 -0.008684 -0.000426)
 26:    494.04   0.000002    0.01  0.000001  ( 0.000271  0.000865  0.000660)
 27:    550.29   0.000619    3.13  0.000351  ( 0.018717 -0.000208 -0.000974)
 28:    615.73   0.001067    5.39  0.000541  ( 0.000072 -0.023252  0.000582)
 29:    636.69   0.000065    0.33  0.000032  ( 0.005618  0.000238  0.000281)
 30:    683.96   0.000059    0.30  0.000027  (-0.001358 -0.001761 -0.004687)
 31:    698.27   0.000084    0.42  0.000037  (-0.006089 -0.000571 -0.000051)
 32:    746.81   0.001680    8.49  0.000702  ( 0.000094 -0.026223  0.003768)
 33:    812.02   0.000573    2.90  0.000220  (-0.014836 -0.000220  0.000059)
 34:    912.86   0.000081    0.41  0.000028  ( 0.001395 -0.004557 -0.002265)
 35:    924.29   0.000520    2.63  0.000175  ( 0.003176  0.002179 -0.012672)
 36:    930.67   0.001329    6.72  0.000446  ( 0.019937 -0.001192  0.006836)
 37:    934.14   0.000770    3.89  0.000257  (-0.010843 -0.002949  0.011450)
 38:    960.52   0.000080    0.40  0.000026  (-0.000687  0.000364  0.005026)
 39:    963.31   0.000112    0.56  0.000036  ( 0.001470  0.004186  0.004054)
 40:    966.50   0.000629    3.18  0.000203  (-0.001957  0.013635 -0.003665)
 41:   1040.33   0.000967    4.89  0.000290  ( 0.000280  0.004273  0.016486)
 42:   1063.35   0.000027    0.13  0.000008  (-0.002038  0.000416  0.001858)
 43:   1068.31   0.002371   11.98  0.000692  (-0.026306 -0.000038  0.000682)
 44:   1091.76   0.001255    6.34  0.000359  (-0.001541  0.018779 -0.001934)
 45:   1140.48   0.016733   84.56  0.004579  (-0.067605 -0.001263  0.002578)
 46:   1146.70   0.001917    9.69  0.000522  ( 0.004378 -0.022222  0.002960)
 47:   1169.13   0.001394    7.04  0.000372  (-0.003484 -0.000385 -0.018968)
 48:   1171.94   0.001957    9.89  0.000521  ( 0.004332 -0.001182 -0.022383)
 49:   1187.34   0.000173    0.87  0.000045  (-0.006291 -0.000199 -0.002424)
 50:   1218.23   0.000226    1.14  0.000058  ( 0.002816 -0.007031  0.000721)
 51:   1227.75   0.002385   12.06  0.000606  ( 0.024587  0.000862 -0.001025)
 52:   1344.61   0.000101    0.51  0.000023  ( 0.003715  0.002315 -0.002052)
 53:   1348.52   0.001021    5.16  0.000236  ( 0.001438  0.015174 -0.002002)
 54:   1350.44   0.000250    1.26  0.000058  ( 0.003850  0.006512  0.000698)
 55:   1364.50   0.004613   23.31  0.001055  (-0.032462  0.001125 -0.000012)
 56:   1390.10   0.000963    4.86  0.000216  (-0.006628 -0.011683 -0.005974)
 57:   1393.88   0.000733    3.70  0.000164  ( 0.006539 -0.011004 -0.000462)
 58:   1397.13   0.003521   17.79  0.000786  (-0.007186  0.012235  0.024190)
 59:   1398.35   0.002071   10.47  0.000462  (-0.001677  0.014712 -0.015588)
 60:   1400.73   0.004736   23.93  0.001055  (-0.007086  0.000726 -0.031692)
 61:   1412.36   0.025010  126.39  0.005526  ( 0.074230  0.002761 -0.002874)
 62:   1433.65   0.012200   61.65  0.002656  ( 0.047078  0.020507  0.004323)
 63:   1434.25   0.012924   65.31  0.002812  (-0.021375  0.048405 -0.003457)
 64:   1439.56   0.005790   29.26  0.001255  ( 0.008998 -0.000673 -0.034259)
 65:   1442.39   0.000198    1.00  0.000043  ( 0.001539 -0.003176  0.005505)
 66:   1444.98   0.000105    0.53  0.000023  (-0.001330 -0.000020 -0.004577)
 67:   1445.39   0.000763    3.86  0.000165  (-0.000931 -0.012711 -0.001537)
 68:   1450.25   0.000395    1.99  0.000085  (-0.003151  0.007806  0.003751)
 69:   1450.84   0.002256   11.40  0.000485  ( 0.011817  0.018583  0.000423)
 70:   1451.95   0.000799    4.04  0.000172  ( 0.000413 -0.012744 -0.003041)
 71:   1453.74   0.002932   14.82  0.000629  ( 0.009104 -0.023351  0.001153)
 72:   1458.35   0.000864    4.36  0.000185  ( 0.003397 -0.013160  0.000235)
 73:   1465.68   0.000140    0.71  0.000030  (-0.004613  0.002753 -0.000966)
 74:   1469.08   0.000742    3.75  0.000158  (-0.002116 -0.011632 -0.004230)
 75:   1472.91   0.009034   45.66  0.001914  ( 0.043688  0.001539 -0.001764)
 76:   1486.30   0.001053    5.32  0.000221  (-0.014538  0.003107  0.000078)
 77:   1491.35   0.003393   17.15  0.000710  ( 0.000831 -0.026528 -0.002350)
 78:   1755.04   0.000573    2.89  0.000102  (-0.000017 -0.009834  0.002258)
 79:   3059.87   0.004919   24.86  0.000502  (-0.010764 -0.003148 -0.019388)
 80:   3061.77   0.006966   35.20  0.000710  ( 0.015670 -0.004096 -0.021159)
 81:   3062.45   0.007043   35.59  0.000718  (-0.026208 -0.001931 -0.005209)
 82:   3064.01   0.004124   20.84  0.000420  (-0.001338  0.020450  0.000057)
 83:   3069.52   0.003431   17.34  0.000349  ( 0.008472 -0.010676  0.012770)
 84:   3071.56   0.003837   19.39  0.000390  (-0.007268 -0.011893  0.013984)
 85:   3125.63   0.002991   15.11  0.000299  ( 0.012689 -0.010141 -0.005893)
 86:   3130.23   0.002607   13.17  0.000260  ( 0.011878  0.010555  0.002716)
 87:   3147.87   0.003395   17.16  0.000337  (-0.001122 -0.000961 -0.018285)
 88:   3148.52   0.001728    8.73  0.000171  ( 0.000168  0.000885  0.013055)
 89:   3163.01   0.005540   28.00  0.000547  ( 0.003944 -0.021752  0.007607)
 90:   3165.80   0.005322   26.90  0.000525  (-0.000175  0.019439 -0.012113)
 91:   3169.70   0.002809   14.20  0.000277  (-0.013268  0.000699  0.010001)
 92:   3169.77   0.003020   15.26  0.000297  (-0.003064  0.011160  0.012781)
 93:   3171.59   0.007436   37.58  0.000732  ( 0.025868 -0.006372 -0.004680)
 94:   3172.10   0.007828   39.56  0.000770  (-0.024123 -0.009578 -0.009819)
 95:   3180.09   0.006709   33.91  0.000658  ( 0.021377  0.013156  0.005324)
 96:   3183.51   0.002076   10.49  0.000203  (-0.003646  0.010883  0.008469)
 97:   3183.77   0.006902   34.88  0.000677  (-0.023502  0.009579  0.005698)
 98:   3186.75   0.002401   12.13  0.000235  (-0.003217 -0.014798  0.002396)

* The epsilon (eps) is given for a Dirac delta lineshape.
** The dipole moment derivative (T) already includes vibrational overlap.

The first frequency considered to be a vibration is 7
The total number of vibrations considered is 92


--------------------------
THERMOCHEMISTRY AT 298.15K
--------------------------

Temperature         ... 298.15 K
Pressure            ... 1.00 atm
Total Mass          ... 180.29 AMU

Throughout the following assumptions are being made:
  (1) The electronic state is orbitally nondegenerate
  (2) There are no thermally accessible electronically excited states
  (3) Hindered rotations indicated by low frequency modes are not
      treated as such but are treated as vibrations and this may
      cause some error
  (4) All equations used are the standard statistical mechanics
      equations for an ideal gas
  (5) All vibrations are strictly harmonic

freq.      49.00  E(vib)   ...       0.53 
freq.      87.32  E(vib)   ...       0.48 
freq.     109.69  E(vib)   ...       0.45 
freq.     153.68  E(vib)   ...       0.40 
freq.     158.69  E(vib)   ...       0.39 
freq.     195.29  E(vib)   ...       0.36 
freq.     213.13  E(vib)   ...       0.34 
freq.     230.70  E(vib)   ...       0.32 
freq.     239.20  E(vib)   ...       0.31 
freq.     240.77  E(vib)   ...       0.31 
freq.     262.53  E(vib)   ...       0.29 
freq.     273.84  E(vib)   ...       0.28 
freq.     281.71  E(vib)   ...       0.28 
freq.     292.33  E(vib)   ...       0.27 
freq.     321.27  E(vib)   ...       0.25 
freq.     325.19  E(vib)   ...       0.24 
freq.     401.65  E(vib)   ...       0.19 
freq.     416.68  E(vib)   ...       0.18 
freq.     475.47  E(vib)   ...       0.15 
freq.     494.04  E(vib)   ...       0.14 
freq.     550.29  E(vib)   ...       0.12 
freq.     615.73  E(vib)   ...       0.10 
freq.     636.69  E(vib)   ...       0.09 
freq.     683.96  E(vib)   ...       0.07 
freq.     698.27  E(vib)   ...       0.07 
freq.     746.81  E(vib)   ...       0.06 
freq.     812.02  E(vib)   ...       0.05 
freq.     912.86  E(vib)   ...       0.03 
freq.     924.29  E(vib)   ...       0.03 
freq.     930.67  E(vib)   ...       0.03 
freq.     934.14  E(vib)   ...       0.03 
freq.     960.52  E(vib)   ...       0.03 
freq.     963.31  E(vib)   ...       0.03 
freq.     966.50  E(vib)   ...       0.03 
freq.    1040.33  E(vib)   ...       0.02 
freq.    1063.35  E(vib)   ...       0.02 
freq.    1068.31  E(vib)   ...       0.02 
freq.    1091.76  E(vib)   ...       0.02 
freq.    1140.48  E(vib)   ...       0.01 
freq.    1146.70  E(vib)   ...       0.01 
freq.    1169.13  E(vib)   ...       0.01 
freq.    1171.94  E(vib)   ...       0.01 
freq.    1187.34  E(vib)   ...       0.01 
freq.    1218.23  E(vib)   ...       0.01 
freq.    1227.75  E(vib)   ...       0.01 
freq.    1344.61  E(vib)   ...       0.01 
freq.    1348.52  E(vib)   ...       0.01 
freq.    1350.44  E(vib)   ...       0.01 
freq.    1364.50  E(vib)   ...       0.01 
freq.    1390.10  E(vib)   ...       0.00 
freq.    1393.88  E(vib)   ...       0.00 
freq.    1397.13  E(vib)   ...       0.00 
freq.    1398.35  E(vib)   ...       0.00 
freq.    1400.73  E(vib)   ...       0.00 
freq.    1412.36  E(vib)   ...       0.00 
freq.    1433.65  E(vib)   ...       0.00 
freq.    1434.25  E(vib)   ...       0.00 
freq.    1439.56  E(vib)   ...       0.00 
freq.    1442.39  E(vib)   ...       0.00 
freq.    1444.98  E(vib)   ...       0.00 
freq.    1445.39  E(vib)   ...       0.00 
freq.    1450.25  E(vib)   ...       0.00 
freq.    1450.84  E(vib)   ...       0.00 
freq.    1451.95  E(vib)   ...       0.00 
freq.    1453.74  E(vib)   ...       0.00 
freq.    1458.35  E(vib)   ...       0.00 
freq.    1465.68  E(vib)   ...       0.00 
freq.    1469.08  E(vib)   ...       0.00 
freq.    1472.91  E(vib)   ...       0.00 
freq.    1486.30  E(vib)   ...       0.00 
freq.    1491.35  E(vib)   ...       0.00 
freq.    1755.04  E(vib)   ...       0.00 
freq.    3059.87  E(vib)   ...       0.00 
freq.    3061.77  E(vib)   ...       0.00 
freq.    3062.45  E(vib)   ...       0.00 
freq.    3064.01  E(vib)   ...       0.00 
freq.    3069.52  E(vib)   ...       0.00 
freq.    3071.56  E(vib)   ...       0.00 
freq.    3125.63  E(vib)   ...       0.00 
freq.    3130.23  E(vib)   ...       0.00 
freq.    3147.87  E(vib)   ...       0.00 
freq.    3148.52  E(vib)   ...       0.00 
freq.    3163.01  E(vib)   ...       0.00 
freq.    3165.80  E(vib)   ...       0.00 
freq.    3169.70  E(vib)   ...       0.00 
freq.    3169.77  E(vib)   ...       0.00 
freq.    3171.59  E(vib)   ...       0.00 
freq.    3172.10  E(vib)   ...       0.00 
freq.    3180.09  E(vib)   ...       0.00 
freq.    3183.51  E(vib)   ...       0.00 
freq.    3183.77  E(vib)   ...       0.00 
freq.    3186.75  E(vib)   ...       0.00 

------------
INNER ENERGY
------------

The inner energy is: U= E(el) + E(ZPE) + E(vib) + E(rot) + E(trans)
    E(el)   - is the total energy from the electronic structure calculation
              = E(kin-el) + E(nuc-el) + E(el-el) + E(nuc-nuc)
    E(ZPE)  - the the zero temperature vibrational energy from the frequency calculation
    E(vib)  - the the finite temperature correction to E(ZPE) due to population
              of excited vibrational states
    E(rot)  - is the rotational thermal energy
    E(trans)- is the translational thermal energy

Summary of contributions to the inner energy U:
Electronic energy                ...   -540.19769620 Eh
Zero point energy                ...      0.29756830 Eh     186.73 kcal/mol
Thermal vibrational correction   ...      0.01148314 Eh       7.21 kcal/mol
Thermal rotational correction    ...      0.00141627 Eh       0.89 kcal/mol
Thermal translational correction ...      0.00141627 Eh       0.89 kcal/mol
-----------------------------------------------------------------------
Total thermal energy                   -539.88581221 Eh


Summary of corrections to the electronic energy:
(perhaps to be used in another calculation)
Total thermal correction                  0.01431569 Eh       8.98 kcal/mol
Non-thermal (ZPE) correction              0.29756830 Eh     186.73 kcal/mol
-----------------------------------------------------------------------
Total correction                          0.31188399 Eh     195.71 kcal/mol


--------
ENTHALPY
--------

The enthalpy is H = U + kB*T
                kB is Boltzmann's constant
Total free energy                 ...   -539.88581221 Eh 
Thermal Enthalpy correction       ...      0.00094421 Eh       0.59 kcal/mol
-----------------------------------------------------------------------
Total Enthalpy                    ...   -539.88486800 Eh


Note: Only C1 symmetry has been detected, increase convergence thresholds 
      if your molecule has a higher symmetry. Symmetry factor of 1.0 is   
      used for the rotational entropy correction. 
 

Note: Rotational entropy computed according to Herzberg 
Infrared and Raman Spectra, Chapter V,1, Van Nostrand Reinhold, 1945 
Point Group:  C1, Symmetry Number:   1  
Rotational constants in cm-1:     0.035949     0.019236     0.014944 

Vibrational entropy computed according to the QRRHO of S. Grimme
Chem.Eur.J. 2012 18 9955


-------
ENTROPY
-------

The entropy contributions are T*S = T*(S(el)+S(vib)+S(rot)+S(trans))
     S(el)   - electronic entropy
     S(vib)  - vibrational entropy
     S(rot)  - rotational entropy
     S(trans)- translational entropy
The entropies will be listed as multiplied by the temperature to get
units of energy

Electronic entropy                ...      0.00000000 Eh      0.00 kcal/mol
Vibrational entropy               ...      0.01956438 Eh     12.28 kcal/mol
Rotational entropy                ...      0.01493045 Eh      9.37 kcal/mol
Translational entropy             ...      0.01970603 Eh     12.37 kcal/mol
-----------------------------------------------------------------------
Final entropy term                ...      0.05420085 Eh     34.01 kcal/mol

In case the symmetry of your molecule has not been determined correctly
or in case you have a reason to use a different symmetry number we print 
out the resulting rotational entropy values for sn=1,12 :
 --------------------------------------------------------
|  sn= 1 | S(rot)=       0.01493045 Eh      9.37 kcal/mol|
|  sn= 2 | S(rot)=       0.01427599 Eh      8.96 kcal/mol|
|  sn= 3 | S(rot)=       0.01389316 Eh      8.72 kcal/mol|
|  sn= 4 | S(rot)=       0.01362154 Eh      8.55 kcal/mol|
|  sn= 5 | S(rot)=       0.01341085 Eh      8.42 kcal/mol|
|  sn= 6 | S(rot)=       0.01323870 Eh      8.31 kcal/mol|
|  sn= 7 | S(rot)=       0.01309316 Eh      8.22 kcal/mol|
|  sn= 8 | S(rot)=       0.01296708 Eh      8.14 kcal/mol|
|  sn= 9 | S(rot)=       0.01285587 Eh      8.07 kcal/mol|
|  sn=10 | S(rot)=       0.01275639 Eh      8.00 kcal/mol|
|  sn=11 | S(rot)=       0.01266640 Eh      7.95 kcal/mol|
|  sn=12 | S(rot)=       0.01258425 Eh      7.90 kcal/mol|
 --------------------------------------------------------


-------------------
GIBBS FREE ENERGY
-------------------

The Gibbs free energy is G = H - T*S

Total enthalpy                    ...   -539.88486800 Eh 
Total entropy correction          ...     -0.05420085 Eh    -34.01 kcal/mol
-----------------------------------------------------------------------
Final Gibbs free energy         ...   -539.93906886 Eh

For completeness - the Gibbs free energy minus the electronic energy
G-E(el)                           ...      0.25862734 Eh    162.29 kcal/mol


Timings for individual modules:

Sum of individual times         ...     6686.398 sec (= 111.440 min)
GTO integral calculation        ...        3.310 sec (=   0.055 min)   0.0 %
SCF iterations                  ...     3323.715 sec (=  55.395 min)  49.7 %
SCF Gradient evaluation         ...      883.129 sec (=  14.719 min)  13.2 %
Geometry relaxation             ...        0.629 sec (=   0.010 min)   0.0 %
Analytical frequency calculation...     2475.615 sec (=  41.260 min)  37.0 %
                             ****ORCA TERMINATED NORMALLY****
TOTAL RUN TIME: 0 days 1 hours 51 minutes 27 seconds 970 msec
