
                                 *****************
                                 * O   R   C   A *
                                 *****************

                                            #,                                       
                                            ###                                      
                                            ####                                     
                                            #####                                    
                                            ######                                   
                                           ########,                                 
                                     ,,################,,,,,                         
                               ,,#################################,,                 
                          ,,##########################################,,             
                       ,#########################################, ''#####,          
                    ,#############################################,,   '####,        
                  ,##################################################,,,,####,       
                ,###########''''           ''''###############################       
              ,#####''   ,,,,##########,,,,          '''####'''          '####       
            ,##' ,,,,###########################,,,                        '##       
           ' ,,###''''                  '''############,,,                           
         ,,##''                                '''############,,,,        ,,,,,,###''
      ,#''                                            '''#######################'''  
     '                                                          ''''####''''         
             ,#######,   #######,   ,#######,      ##                                
            ,#'     '#,  ##    ##  ,#'     '#,    #''#        ######   ,####,        
            ##       ##  ##   ,#'  ##            #'  '#       #        #'  '#        
            ##       ##  #######   ##           ,######,      #####,   #    #        
            '#,     ,#'  ##    ##  '#,     ,#' ,#      #,         ##   #,  ,#        
             '#######'   ##     ##  '#######'  #'      '#     #####' # '####'        



                  #######################################################
                  #                        -***-                        #
                  #          Department of theory and spectroscopy      #
                  #    Directorship and core code : Frank Neese         #
                  #        Max Planck Institute fuer Kohlenforschung    #
                  #                Kaiser Wilhelm Platz 1               #
                  #                 D-45470 Muelheim/Ruhr               #
                  #                      Germany                        #
                  #                                                     #
                  #                  All rights reserved                #
                  #                        -***-                        #
                  #######################################################


                         Program Version 5.0.4 -  RELEASE  -


 With contributions from (in alphabetic order):
   Daniel Aravena         : Magnetic Suceptibility
   Michael Atanasov       : Ab Initio Ligand Field Theory (pilot matlab implementation)
   Alexander A. Auer      : GIAO ZORA, VPT2 properties, NMR spectrum
   Ute Becker             : Parallelization
   Giovanni Bistoni       : ED, misc. LED, open-shell LED, HFLD
   Martin Brehm           : Molecular dynamics
   Dmytro Bykov           : SCF Hessian
   Vijay G. Chilkuri      : MRCI spin determinant printing, contributions to CSF-ICE
   Dipayan Datta          : RHF DLPNO-CCSD density
   Achintya Kumar Dutta   : EOM-CC, STEOM-CC
   Dmitry Ganyushin       : Spin-Orbit,Spin-Spin,Magnetic field MRCI
   Miquel Garcia          : C-PCM and meta-GGA Hessian, CC/C-PCM, Gaussian charge scheme
   Yang Guo               : DLPNO-NEVPT2, F12-NEVPT2, CIM, IAO-localization
   Andreas Hansen         : Spin unrestricted coupled pair/coupled cluster methods
   Benjamin Helmich-Paris : MC-RPA, TRAH-SCF, COSX integrals
   Lee Huntington         : MR-EOM, pCC
   Robert Izsak           : Overlap fitted RIJCOSX, COSX-SCS-MP3, EOM
   Marcus Kettner         : VPT2
   Christian Kollmar      : KDIIS, OOCD, Brueckner-CCSD(T), CCSD density, CASPT2, CASPT2-K
   Simone Kossmann        : Meta GGA functionals, TD-DFT gradient, OOMP2, MP2 Hessian
   Martin Krupicka        : Initial AUTO-CI
   Lucas Lang             : DCDCAS
   Marvin Lechner         : AUTO-CI (C++ implementation), FIC-MRCC
   Dagmar Lenk            : GEPOL surface, SMD
   Dimitrios Liakos       : Extrapolation schemes; Compound Job, initial MDCI parallelization
   Dimitrios Manganas     : Further ROCIS development; embedding schemes
   Dimitrios Pantazis     : SARC Basis sets
   Anastasios Papadopoulos: AUTO-CI, single reference methods and gradients
   Taras Petrenko         : DFT Hessian,TD-DFT gradient, ASA, ECA, R-Raman, ABS, FL, XAS/XES, NRVS
   Peter Pinski           : DLPNO-MP2, DLPNO-MP2 Gradient
   Christoph Reimann      : Effective Core Potentials
   Marius Retegan         : Local ZFS, SOC
   Christoph Riplinger    : Optimizer, TS searches, QM/MM, DLPNO-CCSD(T), (RO)-DLPNO pert. Triples
   Tobias Risthaus        : Range-separated hybrids, TD-DFT gradient, RPA, STAB
   Michael Roemelt        : Original ROCIS implementation
   Masaaki Saitow         : Open-shell DLPNO-CCSD energy and density
   Barbara Sandhoefer     : DKH picture change effects
   Avijit Sen             : IP-ROCIS
   Kantharuban Sivalingam : CASSCF convergence, NEVPT2, FIC-MRCI
   Bernardo de Souza      : ESD, SOC TD-DFT
   Georgi Stoychev        : AutoAux, RI-MP2 NMR, DLPNO-MP2 response
   Willem Van den Heuvel  : Paramagnetic NMR
   Boris Wezisla          : Elementary symmetry handling
   Frank Wennmohs         : Technical directorship


 We gratefully acknowledge several colleagues who have allowed us to
 interface, adapt or use parts of their codes:
   Stefan Grimme, W. Hujo, H. Kruse, P. Pracht,  : VdW corrections, initial TS optimization,
                  C. Bannwarth, S. Ehlert          DFT functionals, gCP, sTDA/sTD-DF
   Ed Valeev, F. Pavosevic, A. Kumar             : LibInt (2-el integral package), F12 methods
   Garnet Chan, S. Sharma, J. Yang, R. Olivares  : DMRG
   Ulf Ekstrom                                   : XCFun DFT Library
   Mihaly Kallay                                 : mrcc  (arbitrary order and MRCC methods)
   Jiri Pittner, Ondrej Demel                    : Mk-CCSD
   Frank Weinhold                                : gennbo (NPA and NBO analysis)
   Christopher J. Cramer and Donald G. Truhlar   : smd solvation model
   Lars Goerigk                                  : TD-DFT with DH, B97 family of functionals
   V. Asgeirsson, H. Jonsson                     : NEB implementation
   FAccTs GmbH                                   : IRC, NEB, NEB-TS, DLPNO-Multilevel, CI-OPT
                                                   MM, QMMM, 2- and 3-layer-ONIOM, Crystal-QMMM,
                                                   LR-CPCM, SF, NACMEs, symmetry and pop. for TD-DFT,
                                                   nearIR, NL-DFT gradient (VV10), updates on ESD,
                                                   ML-optimized integration grids
   S Lehtola, MJT Oliveira, MAL Marques          : LibXC Library
   Liviu Ungur et al                             : ANISO software


 Your calculation uses the libint2 library for the computation of 2-el integrals
 For citations please refer to: http://libint.valeyev.net

 Your ORCA version has been built with support for libXC version: 5.1.0
 For citations please refer to: https://tddft.org/programs/libxc/

 This ORCA versions uses:
   CBLAS   interface :  Fast vector & matrix operations
   LAPACKE interface :  Fast linear algebra routines
   SCALAPACK package :  Parallel linear algebra routines
   Shared memory     :  Shared parallel matrices
   BLAS/LAPACK       :  OpenBLAS 0.3.15  USE64BITINT DYNAMIC_ARCH NO_AFFINITY SkylakeX SINGLE_THREADED
        Core in use  :  SkylakeX
   Copyright (c) 2011-2014, The OpenBLAS Project




***************************************
The coordinates will be read from file: 6_prot_aq_4.xyz
***************************************


Your calculation utilizes the atom-pairwise dispersion correction
based on tight binding partial charges (D4)
Cite in your paper:
E.Caldeweyher, C.Bannwarth, S.Grimme, J.Chem.Phys., (2017), 147, 034112.
E.Caldeweyher, S.Ehlert, A.Hansen, H.Neugebauer, S.Grimme, J.Chem.Phys., (2018), in progress.
   

XCFun DFT library Copyright 2009-2010 Ulf Ekstrom and contributors.
See http://admol.org/xcfun for more information.
This is free software; see the source code for copying conditions.
There is ABSOLUTELY NO WARRANTY; not even for MERCHANTABILITY or FITNESS FOR A PARTICULAR PURPOSE.
For details see the documentation.
Scientific users of this library should cite U. Ekstrom, L. Visscher, R. Bast, A. J. Thorvaldsen and K. Ruud;
J.Chem.Theor.Comp. 2010, DOI: 10.1021/ct100117s
XCFun Version 0.99 

================================================================================

----- Orbital basis set information -----
Your calculation utilizes the basis: def2-SVP
   F. Weigend and R. Ahlrichs, Phys. Chem. Chem. Phys. 7, 3297 (2005).

----- AuxJ basis set information -----
Your calculation utilizes the auxiliary basis: def2/J
   F. Weigend, Phys. Chem. Chem. Phys. 8, 1057 (2006).

================================================================================
                                        WARNINGS
                       Please study these warnings very carefully!
================================================================================


WARNING: Geometry Optimization
  ===> : Switching off AutoStart
         For restart on a previous wavefunction, please use MOREAD

INFO   : the flag for use of the SHARK integral package has been found!

================================================================================
                                       INPUT FILE
================================================================================
NAME = 6_prot_aq_4.inp
|  1> # ORCA 5.0.4 - /users/bwb16179/postgrad/2024_03/DFT_Crest_Conformers/Opt/prot/6_prot_aq_4.inp # write input file
|  2> # Basic Mode
|  3> #
|  4> ! Opt Freq wB97X Def2-SVP D4 SlowConv TightSCF Defgrid2 Def2/J RIJCOSX CPCM(Water)
|  5> 
|  6> 
|  7> 
|  8> %maxcore 4500
|  9> 
| 10> %geom
| 11> Maxiter 150
| 12> END
| 13> 
| 14> * xyzfile 1 1 6_prot_aq_4.xyz
| 15> 
| 16>                          ****END OF INPUT****
================================================================================

                       *****************************
                       * Geometry Optimization Run *
                       *****************************

Geometry optimization settings:
Update method            Update   .... BFGS
Choice of coordinates    CoordSys .... Z-matrix Internals
Initial Hessian          InHess   .... Almoef's Model

Convergence Tolerances:
Energy Change            TolE     ....  5.0000e-06 Eh
Max. Gradient            TolMAXG  ....  3.0000e-04 Eh/bohr
RMS Gradient             TolRMSG  ....  1.0000e-04 Eh/bohr
Max. Displacement        TolMAXD  ....  4.0000e-03 bohr
RMS Displacement         TolRMSD  ....  2.0000e-03 bohr
Strict Convergence                ....  False
------------------------------------------------------------------------------
                        ORCA OPTIMIZATION COORDINATE SETUP
------------------------------------------------------------------------------

The optimization will be done in new redundant internal coordinates
Making redundant internal coordinates   ...  (new redundants) done
Evaluating the initial hessian          ...  (Almloef) done
Evaluating the coordinates              ...  done
Calculating the B-matrix                .... done
Calculating the G-matrix                .... done
Diagonalizing the G-matrix              .... done
Small eigenvalue found = 1.210e-02
Small eigenvalue found = 1.880e-02
Small eigenvalue found = 2.423e-02
The first mode is                       ....   81
The number of degrees of freedom        ....   96

    -----------------------------------------------------------------
                    Redundant Internal Coordinates


    -----------------------------------------------------------------
         Definition                    Initial Value    Approx d2E/dq
    -----------------------------------------------------------------
      1. B(C   1,N   0)                  1.3314         0.693998   
      2. B(N   2,C   1)                  1.3294         0.699168   
      3. B(H   3,C   1)                  1.0706         0.386743   
      4. B(C   4,N   2)                  1.3714         0.599069   
      5. B(C   5,C   4)                  1.3751         0.660032   
      6. B(C   5,N   0)                  1.3722         0.597326   
      7. B(C   6,N   0)                  1.4637         0.426896   
      8. B(C   7,N   2)                  1.4606         0.431712   
      9. B(C   8,C   6)                  1.5248         0.380798   
     10. B(H   9,C   6)                  1.0956         0.352793   
     11. B(C  10,C   6)                  1.5265         0.378476   
     12. B(C  11,C   7)                  1.5234         0.382698   
     13. B(C  12,C   7)                  1.5277         0.376720   
     14. B(H  13,C   7)                  1.0943         0.354419   
     15. B(C  14,C   4)                  1.4847         0.441217   
     16. B(C  15,C   5)                  1.4829         0.444223   
     17. B(H  16,C   8)                  1.0862         0.365204   
     18. B(H  17,C   8)                  1.0845         0.367428   
     19. B(H  18,C   8)                  1.0874         0.363619   
     20. B(H  19,C  10)                  1.0859         0.365572   
     21. B(H  20,C  10)                  1.0875         0.363461   
     22. B(H  21,C  10)                  1.0857         0.365859   
     23. B(H  22,C  11)                  1.0875         0.363477   
     24. B(H  23,C  11)                  1.0868         0.364364   
     25. B(H  24,C  11)                  1.0862         0.365193   
     26. B(H  25,C  12)                  1.0857         0.365875   
     27. B(H  26,C  12)                  1.0875         0.363430   
     28. B(H  27,C  12)                  1.0870         0.364103   
     29. B(H  28,C  15)                  1.0894         0.360868   
     30. B(H  29,C  15)                  1.0857         0.365797   
     31. B(H  30,C  15)                  1.0862         0.365111   
     32. B(H  31,C  14)                  1.0893         0.361015   
     33. B(H  32,C  14)                  1.0844         0.367647   
     34. B(H  33,C  14)                  1.0889         0.361534   
     35. A(C   5,N   0,C   6)          129.8322         0.398301   
     36. A(C   1,N   0,C   6)          122.3269         0.408982   
     37. A(C   1,N   0,C   5)          107.8207         0.434260   
     38. A(N   0,C   1,H   3)          124.4506         0.361876   
     39. A(N   2,C   1,H   3)          125.3670         0.362335   
     40. A(N   0,C   1,N   2)          110.1820         0.446784   
     41. A(C   4,N   2,C   7)          126.4514         0.399291   
     42. A(C   1,N   2,C   4)          107.7868         0.435068   
     43. A(C   1,N   2,C   7)          125.6989         0.410335   
     44. A(C   5,C   4,C  14)          127.4339         0.413051   
     45. A(N   2,C   4,C   5)          107.2094         0.433420   
     46. A(N   2,C   4,C  14)          125.3566         0.403412   
     47. A(N   0,C   5,C   4)          106.9975         0.433193   
     48. A(N   0,C   5,C  15)          126.2677         0.403688   
     49. A(C   4,C   5,C  15)          126.7248         0.413549   
     50. A(C   8,C   6,H   9)          108.3091         0.324247   
     51. A(N   0,C   6,H   9)          104.9621         0.328424   
     52. A(N   0,C   6,C  10)          110.4643         0.370265   
     53. A(N   0,C   6,C   8)          111.8487         0.370654   
     54. A(H   9,C   6,C  10)          108.3206         0.323921   
     55. A(C   8,C   6,C  10)          112.5666         0.365357   
     56. A(C  12,C   7,H  13)          109.7358         0.323919   
     57. A(C  11,C   7,H  13)          108.4801         0.324757   
     58. A(N   2,C   7,H  13)          106.6388         0.329283   
     59. A(C  11,C   7,C  12)          111.5205         0.365378   
     60. A(N   2,C   7,C  12)          109.0694         0.370683   
     61. A(N   2,C   7,C  11)          111.2695         0.371689   
     62. A(H  16,C   8,H  17)          107.8722         0.292409   
     63. A(C   6,C   8,H  16)          108.8137         0.326095   
     64. A(C   6,C   8,H  17)          111.9402         0.326421   
     65. A(C   6,C   8,H  18)          110.8214         0.325862   
     66. A(H  17,C   8,H  18)          109.1964         0.292209   
     67. A(H  16,C   8,H  18)          108.0756         0.291930   
     68. A(H  19,C  10,H  21)          108.0417         0.292258   
     69. A(C   6,C  10,H  21)          111.8087         0.325863   
     70. A(H  19,C  10,H  20)          108.3333         0.291956   
     71. A(C   6,C  10,H  20)          110.8009         0.325511   
     72. A(H  20,C  10,H  21)          108.6899         0.291992   
     73. A(C   6,C  10,H  19)          109.0662         0.325821   
     74. A(H  23,C  11,H  24)          107.6105         0.292022   
     75. A(H  22,C  11,H  24)          108.0136         0.291910   
     76. A(C   7,C  11,H  24)          108.8579         0.326361   
     77. A(H  22,C  11,H  23)          109.4470         0.291806   
     78. A(C   7,C  11,H  23)          111.6351         0.326239   
     79. A(C   7,C  11,H  22)          111.1427         0.326108   
     80. A(H  26,C  12,H  27)          108.6675         0.291767   
     81. A(H  25,C  12,H  27)          108.4032         0.292075   
     82. A(C   7,C  12,H  27)          111.2702         0.325356   
     83. A(H  25,C  12,H  26)          108.3820         0.291990   
     84. A(C   7,C  12,H  26)          110.4741         0.325258   
     85. A(C   7,C  12,H  25)          109.5707         0.325616   
     86. A(H  31,C  14,H  33)          107.7387         0.291137   
     87. A(C   4,C  14,H  33)          110.1090         0.333571   
     88. A(H  31,C  14,H  32)          108.3365         0.291906   
     89. A(C   4,C  14,H  32)          112.0710         0.334501   
     90. A(C   4,C  14,H  31)          110.2261         0.333492   
     91. A(H  32,C  14,H  33)          108.2314         0.291972   
     92. A(H  29,C  15,H  30)          108.3965         0.292192   
     93. A(H  28,C  15,H  30)          107.9553         0.291569   
     94. A(C   5,C  15,H  30)          109.2599         0.334494   
     95. A(H  28,C  15,H  29)          108.5004         0.291655   
     96. A(C   5,C  15,H  29)          111.8101         0.334598   
     97. A(C   5,C  15,H  28)          110.8115         0.333845   
     98. D(H   3,C   1,N   0,C   6)     -1.3427         0.039788   
     99. D(H   3,C   1,N   0,C   5)   -179.8580         0.039788   
    100. D(N   2,C   1,N   0,C   6)    178.4363         0.039788   
    101. D(N   2,C   1,N   0,C   5)     -0.0790         0.039788   
    102. D(C   7,N   2,C   1,N   0)    177.6934         0.040443   
    103. D(C   7,N   2,C   1,H   3)     -2.5301         0.040443   
    104. D(C   4,N   2,C   1,H   3)   -179.7920         0.040443   
    105. D(C   4,N   2,C   1,N   0)      0.4314         0.040443   
    106. D(C  14,C   4,N   2,C   1)    179.3266         0.028912   
    107. D(C   5,C   4,N   2,C   1)     -0.6094         0.028912   
    108. D(C  14,C   4,N   2,C   7)      2.0910         0.028912   
    109. D(C   5,C   4,N   2,C   7)   -177.8450         0.028912   
    110. D(C  15,C   5,N   0,C   1)   -179.2101         0.028732   
    111. D(C   4,C   5,N   0,C   6)   -178.6690         0.028732   
    112. D(C   4,C   5,N   0,C   1)     -0.3028         0.028732   
    113. D(C  15,C   5,C   4,C  14)     -0.4761         0.030399   
    114. D(C  15,C   5,C   4,N   2)    179.4582         0.030399   
    115. D(N   0,C   5,C   4,C  14)   -179.3769         0.030399   
    116. D(N   0,C   5,C   4,N   2)      0.5574         0.030399   
    117. D(C  15,C   5,N   0,C   6)      2.4237         0.028732   
    118. D(C  10,C   6,N   0,C   5)     72.5916         0.015537   
    119. D(C  10,C   6,N   0,C   1)   -105.5677         0.015537   
    120. D(H   9,C   6,N   0,C   5)   -170.8565         0.015537   
    121. D(H   9,C   6,N   0,C   1)     10.9842         0.015537   
    122. D(C   8,C   6,N   0,C   5)    -53.6317         0.015537   
    123. D(C   8,C   6,N   0,C   1)    128.2091         0.015537   
    124. D(C  12,C   7,N   2,C   4)     83.0334         0.015890   
    125. D(C  11,C   7,N   2,C   4)   -153.5263         0.015890   
    126. D(C  11,C   7,N   2,C   1)     29.7155         0.015890   
    127. D(H  13,C   7,N   2,C   1)    147.8369         0.015890   
    128. D(C  12,C   7,N   2,C   1)    -93.7249         0.015890   
    129. D(H  13,C   7,N   2,C   4)    -35.4048         0.015890   
    130. D(H  18,C   8,C   6,C  10)   -170.7265         0.011555   
    131. D(H  18,C   8,C   6,H   9)     69.5340         0.011555   
    132. D(H  18,C   8,C   6,N   0)    -45.6590         0.011555   
    133. D(H  17,C   8,C   6,C  10)    -48.5564         0.011555   
    134. D(H  17,C   8,C   6,N   0)     76.5111         0.011555   
    135. D(H  16,C   8,C   6,C  10)     70.5719         0.011555   
    136. D(H  16,C   8,C   6,H   9)    -49.1677         0.011555   
    137. D(H  16,C   8,C   6,N   0)   -164.3606         0.011555   
    138. D(H  17,C   8,C   6,H   9)   -168.2960         0.011555   
    139. D(H  21,C  10,C   6,H   9)    178.0867         0.011421   
    140. D(H  21,C  10,C   6,C   8)     58.3539         0.011421   
    141. D(H  21,C  10,C   6,N   0)    -67.4663         0.011421   
    142. D(H  20,C  10,C   6,H   9)    -60.4989         0.011421   
    143. D(H  20,C  10,C   6,C   8)    179.7682         0.011421   
    144. D(H  20,C  10,C   6,N   0)     53.9480         0.011421   
    145. D(H  19,C  10,C   6,H   9)     58.6643         0.011421   
    146. D(H  19,C  10,C   6,C   8)    -61.0686         0.011421   
    147. D(H  19,C  10,C   6,N   0)    173.1112         0.011421   
    148. D(H  24,C  11,C   7,C  12)    -68.9315         0.011664   
    149. D(H  24,C  11,C   7,N   2)    169.0384         0.011664   
    150. D(H  23,C  11,C   7,H  13)    170.6800         0.011664   
    151. D(H  23,C  11,C   7,C  12)     49.7153         0.011664   
    152. D(H  23,C  11,C   7,N   2)    -72.3148         0.011664   
    153. D(H  22,C  11,C   7,H  13)    -66.8127         0.011664   
    154. D(H  22,C  11,C   7,C  12)    172.2226         0.011664   
    155. D(H  24,C  11,C   7,H  13)     52.0332         0.011664   
    156. D(H  22,C  11,C   7,N   2)     50.1924         0.011664   
    157. D(H  26,C  12,C   7,N   2)     63.6817         0.011321   
    158. D(H  25,C  12,C   7,H  13)    -60.4985         0.011321   
    159. D(H  25,C  12,C   7,C  11)     59.7305         0.011321   
    160. D(H  25,C  12,C   7,N   2)   -176.9784         0.011321   
    161. D(H  27,C  12,C   7,H  13)     59.3657         0.011321   
    162. D(H  27,C  12,C   7,C  11)    179.5948         0.011321   
    163. D(H  27,C  12,C   7,N   2)    -57.1142         0.011321   
    164. D(H  26,C  12,C   7,H  13)   -179.8384         0.011321   
    165. D(H  26,C  12,C   7,C  11)    -59.6094         0.011321   
    166. D(H  33,C  14,C   4,C   5)     58.8422         0.014363   
    167. D(H  33,C  14,C   4,N   2)   -121.0808         0.014363   
    168. D(H  32,C  14,C   4,C   5)    179.3705         0.014363   
    169. D(H  32,C  14,C   4,N   2)     -0.5525         0.014363   
    170. D(H  31,C  14,C   4,C   5)    -59.8874         0.014363   
    171. D(H  31,C  14,C   4,N   2)    120.1896         0.014363   
    172. D(H  30,C  15,C   5,C   4)     18.1608         0.014557   
    173. D(H  30,C  15,C   5,N   0)   -163.1430         0.014557   
    174. D(H  29,C  15,C   5,C   4)    138.1542         0.014557   
    175. D(H  29,C  15,C   5,N   0)    -43.1496         0.014557   
    176. D(H  28,C  15,C   5,C   4)   -100.6653         0.014557   
    177. D(H  28,C  15,C   5,N   0)     78.0309         0.014557   
    -----------------------------------------------------------------

Number of atoms                         .... 34
Number of degrees of freedom            .... 177

         *************************************************************
         *                GEOMETRY OPTIMIZATION CYCLE   1            *
         *************************************************************
---------------------------------
CARTESIAN COORDINATES (ANGSTROEM)
---------------------------------
  N     -1.000656   -0.312980   -0.074517
  C      0.156213   -0.949070   -0.246808
  N      1.170389   -0.099098   -0.119293
  H      0.246722   -1.994139   -0.460725
  C      0.647676    1.138446    0.156611
  C     -0.720903    1.006640    0.177240
  C     -2.292114   -0.991817   -0.191473
  C      2.587339   -0.445237   -0.195936
  C     -3.175413   -0.744775    1.026611
  H     -2.048218   -2.059247   -0.228950
  C     -2.978968   -0.610339   -1.500199
  C      2.815257   -1.641564   -1.111195
  C      3.113465   -0.709813    1.213713
  H      3.098993    0.421935   -0.624630
  C      1.438965    2.373362    0.387207
  C     -1.710871    2.077345    0.446318
  H     -3.982772   -1.471365    1.026990
  H     -3.618427    0.245022    1.011861
  H     -2.609026   -0.869308    1.946411
  H     -3.872202   -1.215780   -1.621616
  H     -2.323407   -0.793954   -2.348208
  H     -3.276521    0.433723   -1.510146
  H      2.320378   -1.502214   -2.069445
  H      2.469107   -2.565848   -0.656219
  H      3.880730   -1.744810   -1.295280
  H      4.178608   -0.915676    1.171656
  H      2.614555   -1.571818    1.650382
  H      2.955195    0.148763    1.861282
  H     -2.074194    2.019774    1.471753
  H     -2.562290    2.017422   -0.224724
  H     -1.236722    3.045487    0.312915
  H      1.175661    3.132245   -0.348566
  H      2.506023    2.191516    0.322838
  H      1.221367    2.778590    1.374214

----------------------------
CARTESIAN COORDINATES (A.U.)
----------------------------
  NO LB      ZA    FRAG     MASS         X           Y           Z
   0 N     7.0000    0    14.007   -1.890966   -0.591446   -0.140817
   1 C     6.0000    0    12.011    0.295200   -1.793483   -0.466400
   2 N     7.0000    0    14.007    2.211715   -0.187268   -0.225431
   3 H     1.0000    0     1.008    0.466236   -3.768376   -0.870644
   4 C     6.0000    0    12.011    1.223931    2.151350    0.295951
   5 C     6.0000    0    12.011   -1.362309    1.902275    0.334935
   6 C     6.0000    0    12.011   -4.331468   -1.874263   -0.361832
   7 C     6.0000    0    12.011    4.889361   -0.841376   -0.370265
   8 C     6.0000    0    12.011   -6.000661   -1.407420    1.940013
   9 H     1.0000    0     1.008   -3.870572   -3.891413   -0.432653
  10 C     6.0000    0    12.011   -5.629434   -1.153374   -2.834965
  11 C     6.0000    0    12.011    5.320065   -3.102107   -2.099855
  12 C     6.0000    0    12.011    5.883597   -1.341352    2.293585
  13 H     1.0000    0     1.008    5.856248    0.797342   -1.180380
  14 C     6.0000    0    12.011    2.719250    4.485004    0.731715
  15 C     6.0000    0    12.011   -3.233077    3.925612    0.843418
  16 H     1.0000    0     1.008   -7.526349   -2.780477    1.940729
  17 H     1.0000    0     1.008   -6.837835    0.463025    1.912140
  18 H     1.0000    0     1.008   -4.930344   -1.642753    3.678183
  19 H     1.0000    0     1.008   -7.317401   -2.297491   -3.064411
  20 H     1.0000    0     1.008   -4.390604   -1.500355   -4.437470
  21 H     1.0000    0     1.008   -6.191727    0.819618   -2.853762
  22 H     1.0000    0     1.008    4.384878   -2.838773   -3.910685
  23 H     1.0000    0     1.008    4.665937   -4.848751   -1.240074
  24 H     1.0000    0     1.008    7.333517   -3.297213   -2.447725
  25 H     1.0000    0     1.008    7.896425   -1.730376    2.214109
  26 H     1.0000    0     1.008    4.940792   -2.970305    3.118770
  27 H     1.0000    0     1.008    5.584509    0.281122    3.517314
  28 H     1.0000    0     1.008   -3.919659    3.816820    2.781211
  29 H     1.0000    0     1.008   -4.842027    3.812374   -0.424667
  30 H     1.0000    0     1.008   -2.337065    5.755136    0.591323
  31 H     1.0000    0     1.008    2.221677    5.919085   -0.658695
  32 H     1.0000    0     1.008    4.735698    4.141365    0.610076
  33 H     1.0000    0     1.008    2.308048    5.250774    2.596889

--------------------------------
INTERNAL COORDINATES (ANGSTROEM)
--------------------------------
 N      0   0   0     0.000000000000     0.00000000     0.00000000
 C      1   0   0     1.331406066966     0.00000000     0.00000000
 N      2   1   0     1.329385940393   110.18200369     0.00000000
 H      2   1   3     1.070569906897   124.45057296   180.22097876
 C      3   2   1     1.371446362572   107.78676195     0.43141239
 C      1   2   3     1.372239317393   107.82068182   359.92101869
 C      1   2   3     1.463681287342   122.32692509   178.43633375
 C      3   2   1     1.460627396773   125.69892908   177.69339693
 C      7   1   2     1.524786850827   111.84867601   128.20907187
 H      7   1   2     1.095580426959   104.96212974    10.98424559
 C      7   1   2     1.526452197748   110.46433965   254.43232867
 C      8   3   2     1.523432104183   111.26954998    29.71549659
 C      8   3   2     1.527717502129   109.06938222   266.27512765
 H      8   3   2     1.094328963736   106.63875352   147.83693655
 C      5   3   2     1.484698992527   125.35664588   179.32659549
 C      6   1   2     1.482850911821   126.26765350   180.78993952
 H      9   7   1     1.086168657835   108.81366605   195.63939131
 H      9   7   1     1.084516476022   111.94015518    76.51110110
 H      9   7   1     1.087352627781   110.82139249   314.34104262
 H     11   7   1     1.085894413232   109.06618345   173.11122742
 H     11   7   1     1.087471346716   110.80088285    53.94797795
 H     11   7   1     1.085680710297   111.80874110   292.53366009
 H     12   8   3     1.087458855224   111.14267033    50.19242683
 H     12   8   3     1.086795383579   111.63508566   287.68515665
 H     12   8   3     1.086176965263   108.85792801   169.03835058
 H     13   8   3     1.085668938031   109.57074113   183.02158866
 H     13   8   3     1.087494387527   110.47409996    63.68168498
 H     13   8   3     1.086990772888   111.27021053   302.88580766
 H     16   6   1     1.089420305001   110.81147487    78.03092343
 H     16   6   1     1.085727001249   111.81013956   316.85041498
 H     16   6   1     1.086238113591   109.25990729   196.85696989
 H     15   5   3     1.089309391134   110.22608174   120.18964045
 H     15   5   3     1.084354061737   112.07102899   359.44746700
 H     15   5   3     1.088918358968   110.10902583   238.91916821

---------------------------
INTERNAL COORDINATES (A.U.)
---------------------------
 N      0   0   0     0.000000000000     0.00000000     0.00000000
 C      1   0   0     2.515992839607     0.00000000     0.00000000
 N      2   1   0     2.512175353629   110.18200369     0.00000000
 H      2   1   3     2.023083931252   124.45057296   180.22097876
 C      3   2   1     2.591658032624   107.78676195     0.43141239
 C      1   2   3     2.593156500072   107.82068182   359.92101869
 C      1   2   3     2.765956780422   122.32692509   178.43633375
 C      3   2   1     2.760185763603   125.69892908   177.69339693
 C      7   1   2     2.881429560667   111.84867601   128.20907187
 H      7   1   2     2.070346964636   104.96212974    10.98424559
 C      7   1   2     2.884576610266   110.46433965   254.43232867
 C      8   3   2     2.878869460530   111.26954998    29.71549659
 C      8   3   2     2.886967689022   109.06938222   266.27512765
 H      8   3   2     2.067982041879   106.63875352   147.83693655
 C      5   3   2     2.805674487184   125.35664588   179.32659549
 C      6   1   2     2.802182120778   126.26765350   180.78993952
 H      9   7   1     2.052561298557   108.81366605   195.63939131
 H      9   7   1     2.049439127408   111.94015518    76.51110110
 H      9   7   1     2.054798677506   110.82139249   314.34104262
 H     11   7   1     2.052043051363   109.06618345   173.11122742
 H     11   7   1     2.055023023780   110.80088285    53.94797795
 H     11   7   1     2.051639211343   111.80874110   292.53366009
 H     12   8   3     2.054999418281   111.14267033    50.19242683
 H     12   8   3     2.053745638573   111.63508566   287.68515665
 H     12   8   3     2.052576997321   108.85792801   169.03835058
 H     13   8   3     2.051616964984   109.57074113   183.02158866
 H     13   8   3     2.055066564603   110.47409996    63.68168498
 H     13   8   3     2.054114870858   111.27021053   302.88580766
 H     16   6   1     2.058706021184   110.81147487    78.03092343
 H     16   6   1     2.051726688565   111.81013956   316.85041498
 H     16   6   1     2.052692550914   109.25990729   196.85696989
 H     15   5   3     2.058496424351   110.22608174   120.18964045
 H     15   5   3     2.049132208889   112.07102899   359.44746700
 H     15   5   3     2.057757480649   110.10902583   238.91916821

---------------------
BASIS SET INFORMATION
---------------------
There are 3 groups of distinct atoms

 Group   1 Type N   : 7s4p1d contracted to 3s2p1d pattern {511/31/1}
 Group   2 Type C   : 7s4p1d contracted to 3s2p1d pattern {511/31/1}
 Group   3 Type H   : 4s1p contracted to 2s1p pattern {31/1}

Atom   0N    basis set group =>   1
Atom   1C    basis set group =>   2
Atom   2N    basis set group =>   1
Atom   3H    basis set group =>   3
Atom   4C    basis set group =>   2
Atom   5C    basis set group =>   2
Atom   6C    basis set group =>   2
Atom   7C    basis set group =>   2
Atom   8C    basis set group =>   2
Atom   9H    basis set group =>   3
Atom  10C    basis set group =>   2
Atom  11C    basis set group =>   2
Atom  12C    basis set group =>   2
Atom  13H    basis set group =>   3
Atom  14C    basis set group =>   2
Atom  15C    basis set group =>   2
Atom  16H    basis set group =>   3
Atom  17H    basis set group =>   3
Atom  18H    basis set group =>   3
Atom  19H    basis set group =>   3
Atom  20H    basis set group =>   3
Atom  21H    basis set group =>   3
Atom  22H    basis set group =>   3
Atom  23H    basis set group =>   3
Atom  24H    basis set group =>   3
Atom  25H    basis set group =>   3
Atom  26H    basis set group =>   3
Atom  27H    basis set group =>   3
Atom  28H    basis set group =>   3
Atom  29H    basis set group =>   3
Atom  30H    basis set group =>   3
Atom  31H    basis set group =>   3
Atom  32H    basis set group =>   3
Atom  33H    basis set group =>   3
---------------------------------
AUXILIARY/J BASIS SET INFORMATION
---------------------------------
There are 3 groups of distinct atoms

 Group   1 Type N   : 12s5p4d2f1g contracted to 6s4p3d1f1g pattern {711111/2111/211/2/1}
 Group   2 Type C   : 12s5p4d2f1g contracted to 6s4p3d1f1g pattern {711111/2111/211/2/1}
 Group   3 Type H   : 5s2p1d contracted to 3s1p1d pattern {311/2/1}

Atom   0N    basis set group =>   1
Atom   1C    basis set group =>   2
Atom   2N    basis set group =>   1
Atom   3H    basis set group =>   3
Atom   4C    basis set group =>   2
Atom   5C    basis set group =>   2
Atom   6C    basis set group =>   2
Atom   7C    basis set group =>   2
Atom   8C    basis set group =>   2
Atom   9H    basis set group =>   3
Atom  10C    basis set group =>   2
Atom  11C    basis set group =>   2
Atom  12C    basis set group =>   2
Atom  13H    basis set group =>   3
Atom  14C    basis set group =>   2
Atom  15C    basis set group =>   2
Atom  16H    basis set group =>   3
Atom  17H    basis set group =>   3
Atom  18H    basis set group =>   3
Atom  19H    basis set group =>   3
Atom  20H    basis set group =>   3
Atom  21H    basis set group =>   3
Atom  22H    basis set group =>   3
Atom  23H    basis set group =>   3
Atom  24H    basis set group =>   3
Atom  25H    basis set group =>   3
Atom  26H    basis set group =>   3
Atom  27H    basis set group =>   3
Atom  28H    basis set group =>   3
Atom  29H    basis set group =>   3
Atom  30H    basis set group =>   3
Atom  31H    basis set group =>   3
Atom  32H    basis set group =>   3
Atom  33H    basis set group =>   3
------------------------------------------------------------------------------
                           ORCA GTO INTEGRAL CALCULATION
                           -- RI-GTO INTEGRALS CHOSEN --
------------------------------------------------------------------------------
------------------------------------------------------------------------------
                   ___                                                        
                  /   \      - P O W E R E D   B Y -                         
                 /     \                                                     
                 |  |  |   _    _      __       _____    __    __             
                 |  |  |  | |  | |    /  \     |  _  \  |  |  /  |          
                  \  \/   | |  | |   /    \    | | | |  |  | /  /          
                 / \  \   | |__| |  /  /\  \   | |_| |  |  |/  /          
                |  |  |   |  __  | /  /__\  \  |    /   |      \           
                |  |  |   | |  | | |   __   |  |    \   |  |\   \          
                \     /   | |  | | |  |  |  |  | |\  \  |  | \   \       
                 \___/    |_|  |_| |__|  |__|  |_| \__\ |__|  \__/        
                                                                              
                      - O R C A' S   B I G   F R I E N D -                    
                                      &                                       
                       - I N T E G R A L  F E E D E R -                       
                                                                              
 v1 FN, 2020, v2 2021                                                         
------------------------------------------------------------------------------


Reading SHARK input file 6_prot_aq_4.SHARKINP.tmp ... ok
----------------------
SHARK INTEGRAL PACKAGE
----------------------

Number of atoms                             ...     34
Number of basis functions                   ...    287
Number of shells                            ...    141
Maximum angular momentum                    ...      2
Integral batch strategy                     ... SHARK/LIBINT Hybrid
RI-J (if used) integral strategy            ... SPLIT-RIJ (Revised 2003 algorithm where possible)
Printlevel                                  ...      1
Contraction scheme used                     ... SEGMENTED contraction
Coulomb Range Separation                    ... NOT USED
Exchange Range Separation                   ... Long Range
   Mu parameter                             ...  0.300000
   Scaling (regular/separated)              ...  0.157706  0.842294
Finite Nucleus Model                        ... NOT USED
Auxiliary Coulomb fitting basis             ... AVAILABLE
   # of basis functions in Aux-J            ...    868
   # of shells in Aux-J                     ...    300
   Maximum angular momentum in Aux-J        ...      4
Auxiliary J/K fitting basis                 ... NOT available
Auxiliary Correlation fitting basis         ... NOT available
Auxiliary 'external' fitting basis          ... NOT available
Integral threshold                          ...     2.500000e-11
Primitive cut-off                           ...     2.500000e-12
Primitive pair pre-selection threshold      ...     2.500000e-12

Calculating pre-screening integrals         ... done (  0.1 sec) Dimension = 141
Organizing shell pair data                  ... done (  0.1 sec)
Shell pair information
Total number of shell pairs                 ...     10011
Shell pairs after pre-screening             ...      8611
Total number of primitive shell pairs       ...     34423
Primitive shell pairs kept                  ...     20683
          la=0 lb=0:   2973 shell pairs
          la=1 lb=0:   3258 shell pairs
          la=1 lb=1:    920 shell pairs
          la=2 lb=0:    886 shell pairs
          la=2 lb=1:    498 shell pairs
          la=2 lb=2:     76 shell pairs

Calculating one electron integrals          ... done (  0.1 sec)
Calculating RI/J V-Matrix + Cholesky decomp.... done (  0.1 sec)
Calculating Nuclear repulsion               ... done (  0.0 sec) ENN=    875.737855991886 Eh

SHARK setup successfully completed in   0.4 seconds

Maximum memory used throughout the entire GTOINT-calculation: 49.0 MB
-------------------------------------------------------------------------------
                                 ORCA SCF
-------------------------------------------------------------------------------

------------
SCF SETTINGS
------------
Hamiltonian:
 Density Functional     Method          .... DFT(GTOs)
 Exchange Functional    Exchange        .... WB97X
 Correlation Functional Correlation     .... WB97X
 Gradients option       PostSCFGGA      .... off
 Hybrid DFT is turned on
   Fraction HF Exchange ScalHFX         ....  0.157706
   Scaling of DF-GGA-X  ScalDFX         ....  0.000000
   Scaling of DF-GGA-C  ScalDFC         ....  1.000000
   Scaling of DF-LDA-C  ScalLDAC        ....  1.000000
   Perturbative correction              ....  0.000000
   Density functional embedding theory  .... OFF
 Long-range corrected/Screened/Range-Separated Hybrid DFT is turned on
   Amount of maximum screened exact exchange              ....  0.842294
   Range separation parameter mu (erf(mu*r12)/r12)        ....  0.300000
 RI-approximation to the Coulomb term is turned on
   Number of AuxJ basis functions       .... 868
   RIJ-COSX (HFX calculated with COS-X)).... on


General Settings:
 Integral files         IntName         .... 6_prot_aq_4
 Hartree-Fock type      HFTyp           .... RHF
 Total Charge           Charge          ....    1
 Multiplicity           Mult            ....    1
 Number of Electrons    NEL             ....  100
 Basis Dimension        Dim             ....  287
 Nuclear Repulsion      ENuc            ....    875.7378559919 Eh

Convergence Acceleration:
 DIIS                   CNVDIIS         .... on
   Start iteration      DIISMaxIt       ....     0
   Startup error        DIISStart       ....  0.200000
   # of expansion vecs  DIISMaxEq       ....     5
   Bias factor          DIISBfac        ....   1.050
   Max. coefficient     DIISMaxC        ....  10.000
 Trust-Rad. Augm. Hess. CNVTRAH         .... auto
   Auto Start mean grad. ratio tolernc. ....  1.125000
   Auto Start start iteration           ....    20
   Auto Start num. interpolation iter.  ....    10
   Max. Number of Micro iterations      ....    16
   Max. Number of Macro iterations      .... Maxiter - #DIIS iter
   Number of Davidson start vectors     ....     2
   Converg. threshold I  (grad. norm)   ....   1.000e-05
   Converg. threshold II (energy diff.) ....   1.000e-08
   Grad. Scal. Fac. for Micro threshold ....   0.100
   Minimum threshold for Micro iter.    ....   0.010
   NR start threshold (gradient norm)   ....   0.001
   Initial trust radius                 ....   0.400
   Minimum AH scaling param. (alpha)    ....   1.000
   Maximum AH scaling param. (alpha)    .... 1000.000
   Orbital update algorithm             .... Taylor
   White noise on init. David. guess    .... on
   Maximum white noise                  ....   0.010
   Quad. conv. algorithm                .... NR
 SOSCF                  CNVSOSCF        .... on
   Start iteration      SOSCFMaxIt      ....   150
   Startup grad/error   SOSCFStart      ....  0.001000
 Level Shifting         CNVShift        .... on
   Level shift para.    LevelShift      ....    0.2500
   Turn off err/grad.   ShiftErr        ....    0.0000
 Zerner damping         CNVZerner       .... off
 Static damping         CNVDamp         .... on
   Fraction old density DampFac         ....    0.8500
   Max. Damping (<1)    DampMax         ....    0.9800
   Min. Damping (>=0)   DampMin         ....    0.0000
   Turn off err/grad.   DampErr         ....    0.0300
 Fernandez-Rico         CNVRico         .... off

SCF Procedure:
 Maximum # iterations   MaxIter         ....   125
 SCF integral mode      SCFMode         .... Direct
   Integral package                     .... SHARK and LIBINT hybrid scheme
 Reset frequency        DirectResetFreq ....    20
 Integral Threshold     Thresh          ....  2.500e-11 Eh
 Primitive CutOff       TCut            ....  2.500e-12 Eh

Convergence Tolerance:
 Convergence Check Mode ConvCheckMode   .... Total+1el-Energy
 Convergence forced     ConvForced      .... 0
 Energy Change          TolE            ....  1.000e-08 Eh
 1-El. energy change                    ....  1.000e-05 Eh
 Orbital Gradient       TolG            ....  1.000e-05
 Orbital Rotation angle TolX            ....  1.000e-05
 DIIS Error             TolErr          ....  5.000e-07


Diagonalization of the overlap matrix:
Smallest eigenvalue                        ... 9.046e-04
Time for diagonalization                   ...    0.014 sec
Threshold for overlap eigenvalues          ... 1.000e-08
Number of eigenvalues below threshold      ... 0
Time for construction of square roots      ...    0.006 sec
Total time needed                          ...    0.021 sec

Time for model grid setup =    0.711 sec

------------------------------
INITIAL GUESS: MODEL POTENTIAL
------------------------------
Loading Hartree-Fock densities                     ... done
Calculating cut-offs                               ... done
Initializing the effective Hamiltonian             ... done
Setting up the integral package (SHARK)            ... done
Starting the Coulomb interaction                   ... done (   0.8 sec)
Reading the grid                                   ... done
Mapping shells                                     ... done
Starting the XC term evaluation                    ... done (   0.8 sec)
  promolecular density results
     # of electrons  =    100.988776374
     EX              =    -75.692644562
     EC              =     -3.355080138
     EX+EC           =    -79.047724700
Transforming the Hamiltonian                       ... done (   0.0 sec)
Diagonalizing the Hamiltonian                      ... done (   0.0 sec)
Back transforming the eigenvectors                 ... done (   0.0 sec)
Now organizing SCF variables                       ... done
                      ------------------
                      INITIAL GUESS DONE (   2.3 sec)
                      ------------------
-------------------
DFT GRID GENERATION
-------------------

General Integration Accuracy     IntAcc      ... 4.388
Radial Grid Type                 RadialGrid  ... OptM3 with GC (2021)
Angular Grid (max. ang.)         AngularGrid ... 4 (Lebedev-302)
Angular grid pruning method      GridPruning ... 4 (adaptive)
Weight generation scheme         WeightScheme... Becke
Basis function cutoff            BFCut       ... 1.0000e-11
Integration weight cutoff        WCut        ... 1.0000e-14
Angular grids for H and He will be reduced by one unit
Partially contracted basis set               ... off
Rotationally invariant grid construction     ... off

Total number of grid points                  ...   144204
Total number of batches                      ...     2270
Average number of points per batch           ...       63
Average number of grid points per atom       ...     4241
Time for grid setup =    2.682 sec

--------------------
COSX GRID GENERATION
--------------------

GRIDX 1
-------
General Integration Accuracy     IntAcc      ... 3.816
Radial Grid Type                 RadialGrid  ... OptM3 with GC (2021)
Angular Grid (max. ang.)         AngularGrid ... 1 (Lebedev-50)
Angular grid pruning method      GridPruning ... 4 (adaptive)
Weight generation scheme         WeightScheme... Becke
Basis function cutoff            BFCut       ... 1.0000e-11
Integration weight cutoff        WCut        ... 1.0000e-14
Angular grids for H and He will be reduced by one unit
Partially contracted basis set               ... on
Rotationally invariant grid construction     ... off

Total number of grid points                  ...    18443
Total number of batches                      ...      307
Average number of points per batch           ...       60
Average number of grid points per atom       ...      542
UseSFitting                                  ... on

GRIDX 2
-------
General Integration Accuracy     IntAcc      ... 4.020
Radial Grid Type                 RadialGrid  ... OptM3 with GC (2021)
Angular Grid (max. ang.)         AngularGrid ... 2 (Lebedev-110)
Angular grid pruning method      GridPruning ... 4 (adaptive)
Weight generation scheme         WeightScheme... Becke
Basis function cutoff            BFCut       ... 1.0000e-11
Integration weight cutoff        WCut        ... 1.0000e-14
Angular grids for H and He will be reduced by one unit
Partially contracted basis set               ... on
Rotationally invariant grid construction     ... off

Total number of grid points                  ...    38228
Total number of batches                      ...      620
Average number of points per batch           ...       61
Average number of grid points per atom       ...     1124
UseSFitting                                  ... on

GRIDX 3
-------
General Integration Accuracy     IntAcc      ... 4.338
Radial Grid Type                 RadialGrid  ... OptM3 with GC (2021)
Angular Grid (max. ang.)         AngularGrid ... 3 (Lebedev-194)
Angular grid pruning method      GridPruning ... 4 (adaptive)
Weight generation scheme         WeightScheme... Becke
Basis function cutoff            BFCut       ... 1.0000e-11
Integration weight cutoff        WCut        ... 1.0000e-14
Angular grids for H and He will be reduced by one unit
Partially contracted basis set               ... on
Rotationally invariant grid construction     ... off

Total number of grid points                  ...    83026
Total number of batches                      ...     1316
Average number of points per batch           ...       63
Average number of grid points per atom       ...     2442
UseSFitting                                  ... on

Time for X-Grid setup             =    3.774 sec


--------------------
CPCM SOLVATION MODEL
--------------------
CPCM parameters:
  Epsilon                                         ...      80.4000
  Refrac                                          ...       1.3300
  Rsolv                                           ...       1.3000
  Surface type                                    ... GAUSSIAN VDW
  Epsilon function type                           ...         CPCM
Radii:
 Radius for N  used is    3.5149 Bohr (=   1.8600 Ang.)
 Radius for C  used is    3.8550 Bohr (=   2.0400 Ang.)
 Radius for H  used is    2.4944 Bohr (=   1.3200 Ang.)
Calculating surface                               ...        done! (  0.0s)
GEPOL surface points                              ...         1784
GEPOL Volume                                      ...    1691.3490
GEPOL Surface-area                                ...     906.5492
Calculating surface distance matrix               ...        done! (  0.0s)
Performing Cholesky decomposition & store         ...        done! (  0.1s)
Overall time for CPCM initialization              ...                 0.1s
--------------
SCF ITERATIONS
--------------
ITER       Energy         Delta-E        Max-DP      RMS-DP      [F,P]     Damp
               ***  Starting incremental Fock matrix formation  ***
  0   -540.4117124874   0.000000000000 0.03360825  0.00063364  0.1520586 0.8500
  1   -540.4701276745  -0.058415187167 0.03023576  0.00058985  0.1224040 0.8500
                               ***Turning on DIIS***
  2   -540.5144028363  -0.044275161774 0.02366188  0.00048040  0.0938951 0.8500
  3   -540.5472025326  -0.032799696282 0.01481355  0.00034388  0.0711237 0.8500
  4   -540.5724255247  -0.025222992113 0.00999324  0.00026514  0.0566300 0.8500
  5   -540.5922331978  -0.019807673043 0.00760910  0.00021824  0.0468417 0.8500
  6   -540.6082943367  -0.016061138894 0.00616738  0.00018433  0.0394103 0.8500
  7   -540.6215589497  -0.013264612998 0.00525434  0.00015851  0.0333838 0.8500
  8   -540.6326351609  -0.011076211223 0.02986276  0.00090836  0.0282335 0.0000
  9   -540.6919434269  -0.059308266063 0.00141375  0.00003076  0.0012197 0.0000
                      *** Initiating the SOSCF procedure ***
                           *** Shutting down DIIS ***
                      *** Re-Reading the Fockian *** 
                      *** Removing any level shift *** 
ITER      Energy       Delta-E        Grad      Rot      Max-DP    RMS-DP
 10   -540.69196590  -0.0000224747  0.000167  0.000167  0.000463  0.000012
               *** Restarting incremental Fock matrix formation ***
 11   -540.69198667  -0.0000207658  0.000063  0.000109  0.000339  0.000010
 12   -540.69198711  -0.0000004404  0.000069  0.000188  0.000178  0.000005
 13   -540.69198718  -0.0000000717  0.000014  0.000019  0.000052  0.000002
 14   -540.69198720  -0.0000000241  0.000006  0.000009  0.000018  0.000000
 15   -540.69198721  -0.0000000058  0.000006  0.000011  0.000010  0.000000
                  ***Gradient check signals convergence***
              ***Rediagonalizing the Fockian in SOSCF/NRSCF***

               *****************************************************
               *                     SUCCESS                       *
               *           SCF CONVERGED AFTER  16 CYCLES          *
               *****************************************************

Old exchange energy                            =    -25.378588222 Eh
New exchange energy                            =    -25.378583467 Eh
Exchange energy change after final integration =      0.000004756 Eh
Total energy after final integration           =   -540.691982456 Eh
Final COS-X integration done in                =    95.003 sec

----------------
TOTAL SCF ENERGY
----------------

Total Energy       :         -540.69198246 Eh          -14712.97684 eV

Components:
Nuclear Repulsion  :          875.73785599 Eh           23830.03856 eV
Electronic Energy  :        -1416.42983845 Eh          -38543.01539 eV
One Electron Energy:        -2449.70618829 Eh          -66659.89431 eV
Two Electron Energy:         1033.27634984 Eh           28116.87891 eV
Max COSX asymmetry :            0.00000182 Eh               0.00005 eV
CPCM Dielectric    :           -0.07340131 Eh              -1.99735 eV

Virial components:
Potential Energy   :        -1075.04764046 Eh          -29253.53352 eV
Kinetic Energy     :          534.35565800 Eh           14540.55668 eV
Virial Ratio       :            2.01185788


DFT components:
N(Alpha)           :       49.999940265652 electrons
N(Beta)            :       49.999940265652 electrons
N(Total)           :       99.999880531305 electrons
E(XC)              :      -55.662392373015 Eh       
DFET-embed. en.    :        0.000000000000 Eh       
CPCM Solvation Model Properties:
Surface-charge          :           -1.02355616
Charge-correction       :            0.00303466 Eh               0.08258 eV
Free-energy (cav+disp)  :  This term is not implemented in the current solvation scheme

---------------
SCF CONVERGENCE
---------------

  Last Energy change         ...   -1.7325e-09  Tolerance :   1.0000e-08
  Last MAX-Density change    ...    2.6971e-15  Tolerance :   1.0000e-07
  Last RMS-Density change    ...    3.8477e-17  Tolerance :   5.0000e-09
  Last Orbital Gradient      ...    1.3140e-06  Tolerance :   1.0000e-05
  Last Orbital Rotation      ...    4.4524e-06  Tolerance :   1.0000e-05

             **** THE GBW FILE WAS UPDATED (6_prot_aq_4.gbw) ****
             **** DENSITY 6_prot_aq_4.scfp WAS UPDATED ****
             **** ENERGY FILE WAS UPDATED (6_prot_aq_4.en.tmp) ****
             **** THE GBW FILE WAS UPDATED (6_prot_aq_4.gbw) ****
             **** DENSITY 6_prot_aq_4.scfp WAS UPDATED ****
----------------
ORBITAL ENERGIES
----------------

  NO   OCC          E(Eh)            E(eV) 
   0   2.0000     -14.503740      -394.6668 
   1   2.0000     -14.503226      -394.6529 
   2   2.0000     -10.372200      -282.2419 
   3   2.0000     -10.334295      -281.2105 
   4   2.0000     -10.334013      -281.2028 
   5   2.0000     -10.328798      -281.0609 
   6   2.0000     -10.328263      -281.0463 
   7   2.0000     -10.282278      -279.7950 
   8   2.0000     -10.282202      -279.7929 
   9   2.0000     -10.271985      -279.5149 
  10   2.0000     -10.269581      -279.4495 
  11   2.0000     -10.269529      -279.4481 
  12   2.0000     -10.269331      -279.4427 
  13   2.0000      -1.212651       -32.9979 
  14   2.0000      -1.098392       -29.8888 
  15   2.0000      -0.970531       -26.4095 
  16   2.0000      -0.942471       -25.6459 
  17   2.0000      -0.916748       -24.9460 
  18   2.0000      -0.870843       -23.6968 
  19   2.0000      -0.833387       -22.6776 
  20   2.0000      -0.823526       -22.4093 
  21   2.0000      -0.821944       -22.3662 
  22   2.0000      -0.803527       -21.8651 
  23   2.0000      -0.748260       -20.3612 
  24   2.0000      -0.719249       -19.5718 
  25   2.0000      -0.702754       -19.1229 
  26   2.0000      -0.651197       -17.7200 
  27   2.0000      -0.636465       -17.3191 
  28   2.0000      -0.610426       -16.6105 
  29   2.0000      -0.605882       -16.4869 
  30   2.0000      -0.578450       -15.7404 
  31   2.0000      -0.567238       -15.4353 
  32   2.0000      -0.556645       -15.1471 
  33   2.0000      -0.545753       -14.8507 
  34   2.0000      -0.539997       -14.6941 
  35   2.0000      -0.534606       -14.5474 
  36   2.0000      -0.526110       -14.3162 
  37   2.0000      -0.521594       -14.1933 
  38   2.0000      -0.515136       -14.0176 
  39   2.0000      -0.509431       -13.8623 
  40   2.0000      -0.499895       -13.6028 
  41   2.0000      -0.497923       -13.5492 
  42   2.0000      -0.491717       -13.3803 
  43   2.0000      -0.486267       -13.2320 
  44   2.0000      -0.473491       -12.8843 
  45   2.0000      -0.460601       -12.5336 
  46   2.0000      -0.459404       -12.5010 
  47   2.0000      -0.452312       -12.3080 
  48   2.0000      -0.406051       -11.0492 
  49   2.0000      -0.343435        -9.3453 
  50   0.0000       0.065762         1.7895 
  51   0.0000       0.102520         2.7897 
  52   0.0000       0.132722         3.6116 
  53   0.0000       0.147335         4.0092 
  54   0.0000       0.152874         4.1599 
  55   0.0000       0.175405         4.7730 
  56   0.0000       0.188952         5.1416 
  57   0.0000       0.190989         5.1971 
  58   0.0000       0.193975         5.2783 
  59   0.0000       0.197828         5.3832 
  60   0.0000       0.201729         5.4893 
  61   0.0000       0.214617         5.8400 
  62   0.0000       0.216843         5.9006 
  63   0.0000       0.223484         6.0813 
  64   0.0000       0.231816         6.3080 
  65   0.0000       0.239589         6.5196 
  66   0.0000       0.244542         6.6543 
  67   0.0000       0.248891         6.7727 
  68   0.0000       0.251618         6.8469 
  69   0.0000       0.257764         7.0141 
  70   0.0000       0.258627         7.0376 
  71   0.0000       0.263629         7.1737 
  72   0.0000       0.275409         7.4943 
  73   0.0000       0.278339         7.5740 
  74   0.0000       0.287764         7.8305 
  75   0.0000       0.296467         8.0673 
  76   0.0000       0.301886         8.2147 
  77   0.0000       0.308410         8.3923 
  78   0.0000       0.319579         8.6962 
  79   0.0000       0.332286         9.0420 
  80   0.0000       0.347813         9.4645 
  81   0.0000       0.358538         9.7563 
  82   0.0000       0.372141        10.1265 
  83   0.0000       0.383538        10.4366 
  84   0.0000       0.430153        11.7051 
  85   0.0000       0.448032        12.1916 
  86   0.0000       0.468628        12.7520 
  87   0.0000       0.482059        13.1175 
  88   0.0000       0.489258        13.3134 
  89   0.0000       0.492661        13.4060 
  90   0.0000       0.500709        13.6250 
  91   0.0000       0.512272        13.9396 
  92   0.0000       0.527667        14.3586 
  93   0.0000       0.535039        14.5592 
  94   0.0000       0.547276        14.8921 
  95   0.0000       0.568289        15.4639 
  96   0.0000       0.579702        15.7745 
  97   0.0000       0.594300        16.1717 
  98   0.0000       0.600174        16.3316 
  99   0.0000       0.625893        17.0314 
 100   0.0000       0.642596        17.4859 
 101   0.0000       0.651300        17.7228 
 102   0.0000       0.664612        18.0850 
 103   0.0000       0.674366        18.3504 
 104   0.0000       0.678044        18.4505 
 105   0.0000       0.679703        18.4957 
 106   0.0000       0.697831        18.9889 
 107   0.0000       0.704977        19.1834 
 108   0.0000       0.725223        19.7343 
 109   0.0000       0.729330        19.8461 
 110   0.0000       0.732784        19.9401 
 111   0.0000       0.741483        20.1768 
 112   0.0000       0.747701        20.3460 
 113   0.0000       0.755080        20.5468 
 114   0.0000       0.761744        20.7281 
 115   0.0000       0.763710        20.7816 
 116   0.0000       0.767254        20.8780 
 117   0.0000       0.769516        20.9396 
 118   0.0000       0.776184        21.1211 
 119   0.0000       0.780885        21.2490 
 120   0.0000       0.782888        21.3035 
 121   0.0000       0.791028        21.5250 
 122   0.0000       0.794566        21.6212 
 123   0.0000       0.795613        21.6497 
 124   0.0000       0.801721        21.8159 
 125   0.0000       0.807382        21.9700 
 126   0.0000       0.810332        22.0502 
 127   0.0000       0.814512        22.1640 
 128   0.0000       0.818580        22.2747 
 129   0.0000       0.819410        22.2973 
 130   0.0000       0.824232        22.4285 
 131   0.0000       0.835032        22.7224 
 132   0.0000       0.838040        22.8042 
 133   0.0000       0.839755        22.8509 
 134   0.0000       0.849210        23.1082 
 135   0.0000       0.851339        23.1661 
 136   0.0000       0.855469        23.2785 
 137   0.0000       0.869582        23.6625 
 138   0.0000       0.890604        24.2346 
 139   0.0000       0.905009        24.6265 
 140   0.0000       0.924910        25.1681 
 141   0.0000       0.940076        25.5808 
 142   0.0000       0.998540        27.1716 
 143   0.0000       1.027404        27.9571 
 144   0.0000       1.050754        28.5925 
 145   0.0000       1.071040        29.1445 
 146   0.0000       1.097957        29.8769 
 147   0.0000       1.101674        29.9781 
 148   0.0000       1.141329        31.0571 
 149   0.0000       1.146225        31.1904 
 150   0.0000       1.161760        31.6131 
 151   0.0000       1.194294        32.4984 
 152   0.0000       1.203665        32.7534 
 153   0.0000       1.236460        33.6458 
 154   0.0000       1.242197        33.8019 
 155   0.0000       1.264169        34.3998 
 156   0.0000       1.279385        34.8138 
 157   0.0000       1.301610        35.4186 
 158   0.0000       1.314020        35.7563 
 159   0.0000       1.327394        36.1202 
 160   0.0000       1.375517        37.4297 
 161   0.0000       1.390349        37.8333 
 162   0.0000       1.408904        38.3382 
 163   0.0000       1.416252        38.5382 
 164   0.0000       1.436615        39.0923 
 165   0.0000       1.451742        39.5039 
 166   0.0000       1.483367        40.3645 
 167   0.0000       1.522991        41.4427 
 168   0.0000       1.545711        42.0609 
 169   0.0000       1.579125        42.9702 
 170   0.0000       1.594446        43.3871 
 171   0.0000       1.618107        44.0309 
 172   0.0000       1.637004        44.5451 
 173   0.0000       1.645569        44.7782 
 174   0.0000       1.649034        44.8725 
 175   0.0000       1.649951        44.8974 
 176   0.0000       1.657342        45.0986 
 177   0.0000       1.657770        45.1102 
 178   0.0000       1.663407        45.2636 
 179   0.0000       1.683405        45.8078 
 180   0.0000       1.702677        46.3322 
 181   0.0000       1.766841        48.0782 
 182   0.0000       1.789499        48.6947 
 183   0.0000       1.799228        48.9595 
 184   0.0000       1.818433        49.4821 
 185   0.0000       1.821330        49.5609 
 186   0.0000       1.823347        49.6158 
 187   0.0000       1.838328        50.0234 
 188   0.0000       1.861964        50.6666 
 189   0.0000       1.864959        50.7481 
 190   0.0000       1.871679        50.9310 
 191   0.0000       1.884019        51.2668 
 192   0.0000       1.893604        51.5276 
 193   0.0000       1.899365        51.6844 
 194   0.0000       1.903436        51.7951 
 195   0.0000       1.908622        51.9363 
 196   0.0000       1.916299        52.1452 
 197   0.0000       1.918104        52.1943 
 198   0.0000       1.921031        52.2739 
 199   0.0000       1.931037        52.5462 
 200   0.0000       1.937651        52.7262 
 201   0.0000       1.945398        52.9370 
 202   0.0000       1.957597        53.2689 
 203   0.0000       1.960889        53.3585 
 204   0.0000       1.965513        53.4843 
 205   0.0000       1.976676        53.7881 
 206   0.0000       1.988862        54.1197 
 207   0.0000       1.997221        54.3472 
 208   0.0000       2.000132        54.4264 
 209   0.0000       2.010613        54.7116 
 210   0.0000       2.025030        55.1039 
 211   0.0000       2.030452        55.2514 
 212   0.0000       2.038443        55.4689 
 213   0.0000       2.049895        55.7805 
 214   0.0000       2.056045        55.9478 
 215   0.0000       2.064154        56.1685 
 216   0.0000       2.072159        56.3863 
 217   0.0000       2.088438        56.8293 
 218   0.0000       2.102973        57.2248 
 219   0.0000       2.134699        58.0881 
 220   0.0000       2.149033        58.4781 
 221   0.0000       2.158961        58.7483 
 222   0.0000       2.179888        59.3178 
 223   0.0000       2.208089        60.0851 
 224   0.0000       2.234679        60.8087 
 225   0.0000       2.249877        61.2223 
 226   0.0000       2.265826        61.6563 
 227   0.0000       2.282778        62.1176 
 228   0.0000       2.294467        62.4356 
 229   0.0000       2.335015        63.5390 
 230   0.0000       2.357415        64.1485 
 231   0.0000       2.372472        64.5582 
 232   0.0000       2.376309        64.6626 
 233   0.0000       2.379440        64.7479 
 234   0.0000       2.400727        65.3271 
 235   0.0000       2.452381        66.7327 
 236   0.0000       2.482074        67.5407 
 237   0.0000       2.489161        67.7335 
 238   0.0000       2.505470        68.1773 
 239   0.0000       2.511579        68.3435 
 240   0.0000       2.523767        68.6752 
 241   0.0000       2.535290        68.9888 
 242   0.0000       2.542546        69.1862 
 243   0.0000       2.555874        69.5489 
 244   0.0000       2.568288        69.8867 
 245   0.0000       2.581822        70.2549 
 246   0.0000       2.597325        70.6768 
 247   0.0000       2.614966        71.1568 
 248   0.0000       2.640430        71.8497 
 249   0.0000       2.655374        72.2564 
 250   0.0000       2.668864        72.6235 
 251   0.0000       2.682318        72.9896 
 252   0.0000       2.697745        73.4094 
 253   0.0000       2.703684        73.5710 
 254   0.0000       2.712819        73.8196 
 255   0.0000       2.753964        74.9392 
 256   0.0000       2.805569        76.3434 
 257   0.0000       2.811589        76.5072 
 258   0.0000       2.827104        76.9294 
 259   0.0000       2.848220        77.5040 
 260   0.0000       2.867234        78.0214 
 261   0.0000       2.882886        78.4473 
 262   0.0000       2.921550        79.4994 
 263   0.0000       2.931488        79.7699 
 264   0.0000       2.943605        80.0996 
 265   0.0000       2.965073        80.6837 
 266   0.0000       2.983626        81.1886 
 267   0.0000       2.995508        81.5119 
 268   0.0000       3.025893        82.3387 
 269   0.0000       3.030350        82.4600 
 270   0.0000       3.041087        82.7522 
 271   0.0000       3.045875        82.8825 
 272   0.0000       3.057408        83.1963 
 273   0.0000       3.064615        83.3924 
 274   0.0000       3.078123        83.7600 
 275   0.0000       3.086982        84.0010 
 276   0.0000       3.104151        84.4682 
 277   0.0000       3.108095        84.5756 
 278   0.0000       3.142665        85.5163 
 279   0.0000       3.149286        85.6964 
 280   0.0000       3.163069        86.0715 
 281   0.0000       3.166082        86.1535 
 282   0.0000       3.193467        86.8986 
 283   0.0000       3.325510        90.4917 
 284   0.0000       3.445325        93.7521 
 285   0.0000       3.525599        95.9364 
 286   0.0000       3.596847        97.8752 

                    ********************************
                    * MULLIKEN POPULATION ANALYSIS *
                    ********************************

-----------------------
MULLIKEN ATOMIC CHARGES
-----------------------
   0 N :   -0.166942
   1 C :    0.209268
   2 N :   -0.173943
   3 H :    0.110640
   4 C :   -0.094882
   5 C :   -0.109677
   6 C :   -0.064372
   7 C :   -0.067751
   8 C :    0.003492
   9 H :    0.071932
  10 C :    0.021715
  11 C :   -0.021411
  12 C :    0.026658
  13 H :    0.081245
  14 C :    0.075619
  15 C :    0.104804
  16 H :    0.058594
  17 H :    0.038832
  18 H :    0.052526
  19 H :    0.055408
  20 H :    0.047410
  21 H :    0.040197
  22 H :    0.057808
  23 H :    0.052509
  24 H :    0.062082
  25 H :    0.055097
  26 H :    0.043000
  27 H :    0.043687
  28 H :    0.075094
  29 H :    0.057746
  30 H :    0.050061
  31 H :    0.076755
  32 H :    0.054917
  33 H :    0.071885
Sum of atomic charges:    1.0000000

--------------------------------
MULLIKEN REDUCED ORBITAL CHARGES
--------------------------------
  0 N s       :     3.378736  s :     3.378736
      pz      :     1.446809  p :     3.755095
      px      :     1.147047
      py      :     1.161239
      dz2     :     0.002941  d :     0.033111
      dxz     :     0.005661
      dyz     :     0.006161
      dx2y2   :     0.008711
      dxy     :     0.009638
  1 C s       :     3.089680  s :     3.089680
      pz      :     0.952054  p :     2.633519
      px      :     0.775924
      py      :     0.905542
      dz2     :     0.005397  d :     0.067533
      dxz     :     0.016999
      dyz     :     0.006482
      dx2y2   :     0.016850
      dxy     :     0.021805
  2 N s       :     3.383747  s :     3.383747
      pz      :     1.452452  p :     3.757059
      px      :     1.151612
      py      :     1.152995
      dz2     :     0.002859  d :     0.033137
      dxz     :     0.005531
      dyz     :     0.006515
      dx2y2   :     0.007629
      dxy     :     0.010603
  3 H s       :     0.864004  s :     0.864004
      pz      :     0.005268  p :     0.025356
      px      :     0.001631
      py      :     0.018457
  4 C s       :     3.094989  s :     3.094989
      pz      :     1.038309  p :     2.941600
      px      :     0.992753
      py      :     0.910538
      dz2     :     0.005130  d :     0.058293
      dxz     :     0.009026
      dyz     :     0.010940
      dx2y2   :     0.018146
      dxy     :     0.015052
  5 C s       :     3.097491  s :     3.097491
      pz      :     1.045306  p :     2.953886
      px      :     1.017870
      py      :     0.890710
      dz2     :     0.005177  d :     0.058300
      dxz     :     0.009454
      dyz     :     0.010414
      dx2y2   :     0.020854
      dxy     :     0.012402
  6 C s       :     3.112694  s :     3.112694
      pz      :     1.050854  p :     2.895282
      px      :     0.826943
      py      :     1.017486
      dz2     :     0.014108  d :     0.056396
      dxz     :     0.012996
      dyz     :     0.006130
      dx2y2   :     0.010641
      dxy     :     0.012521
  7 C s       :     3.108387  s :     3.108387
      pz      :     1.063836  p :     2.903119
      px      :     0.767352
      py      :     1.071932
      dz2     :     0.012431  d :     0.056244
      dxz     :     0.010157
      dyz     :     0.010243
      dx2y2   :     0.014241
      dxy     :     0.009172
  8 C s       :     2.989061  s :     2.989061
      pz      :     0.950729  p :     2.981172
      px      :     0.998396
      py      :     1.032048
      dz2     :     0.006929  d :     0.026275
      dxz     :     0.007262
      dyz     :     0.001722
      dx2y2   :     0.003081
      dxy     :     0.007281
  9 H s       :     0.906657  s :     0.906657
      pz      :     0.003441  p :     0.021412
      px      :     0.002555
      py      :     0.015415
 10 C s       :     2.977985  s :     2.977985
      pz      :     0.939821  p :     2.973831
      px      :     1.005611
      py      :     1.028399
      dz2     :     0.007093  d :     0.026469
      dxz     :     0.006892
      dyz     :     0.002373
      dx2y2   :     0.004503
      dxy     :     0.005609
 11 C s       :     2.999055  s :     2.999055
      pz      :     0.979518  p :     2.996026
      px      :     1.046650
      py      :     0.969857
      dz2     :     0.005541  d :     0.026331
      dxz     :     0.003788
      dyz     :     0.006588
      dx2y2   :     0.007778
      dxy     :     0.002635
 12 C s       :     2.982044  s :     2.982044
      pz      :     0.931285  p :     2.964862
      px      :     1.008887
      py      :     1.024690
      dz2     :     0.005856  d :     0.026435
      dxz     :     0.003306
      dyz     :     0.008038
      dx2y2   :     0.005977
      dxy     :     0.003258
 13 H s       :     0.897143  s :     0.897143
      pz      :     0.005446  p :     0.021612
      px      :     0.005216
      py      :     0.010950
 14 C s       :     2.900970  s :     2.900970
      pz      :     1.045751  p :     2.996759
      px      :     0.993071
      py      :     0.957937
      dz2     :     0.005883  d :     0.026652
      dxz     :     0.002205
      dyz     :     0.007341
      dx2y2   :     0.005640
      dxy     :     0.005583
 15 C s       :     2.879245  s :     2.879245
      pz      :     1.041034  p :     2.988862
      px      :     0.974065
      py      :     0.973763
      dz2     :     0.006498  d :     0.027088
      dxz     :     0.006979
      dyz     :     0.002228
      dx2y2   :     0.003772
      dxy     :     0.007611
 16 H s       :     0.916623  s :     0.916623
      pz      :     0.004330  p :     0.024784
      px      :     0.010662
      py      :     0.009792
 17 H s       :     0.936333  s :     0.936333
      pz      :     0.004070  p :     0.024835
      px      :     0.006595
      py      :     0.014170
 18 H s       :     0.923159  s :     0.923159
      pz      :     0.012007  p :     0.024315
      px      :     0.007263
      py      :     0.005045
 19 H s       :     0.919839  s :     0.919839
      pz      :     0.004360  p :     0.024754
      px      :     0.012107
      py      :     0.008287
 20 H s       :     0.928348  s :     0.928348
      pz      :     0.010658  p :     0.024242
      px      :     0.008434
      py      :     0.005150
 21 H s       :     0.934930  s :     0.934930
      pz      :     0.004046  p :     0.024873
      px      :     0.005749
      py      :     0.015077
 22 H s       :     0.917812  s :     0.917812
      pz      :     0.013050  p :     0.024380
      px      :     0.007040
      py      :     0.004290
 23 H s       :     0.922885  s :     0.922885
      pz      :     0.006121  p :     0.024606
      px      :     0.006046
      py      :     0.012439
 24 H s       :     0.913220  s :     0.913220
      pz      :     0.005009  p :     0.024698
      px      :     0.015256
      py      :     0.004434
 25 H s       :     0.920188  s :     0.920188
      pz      :     0.004034  p :     0.024715
      px      :     0.015296
      py      :     0.005384
 26 H s       :     0.932656  s :     0.932656
      pz      :     0.005645  p :     0.024344
      px      :     0.006966
      py      :     0.011734
 27 H s       :     0.931787  s :     0.931787
      pz      :     0.007941  p :     0.024526
      px      :     0.005031
      py      :     0.011554
 28 H s       :     0.899836  s :     0.899836
      pz      :     0.014697  p :     0.025071
      px      :     0.005914
      py      :     0.004460
 29 H s       :     0.916813  s :     0.916813
      pz      :     0.009345  p :     0.025441
      px      :     0.011640
      py      :     0.004456
 30 H s       :     0.924765  s :     0.924765
      pz      :     0.005154  p :     0.025174
      px      :     0.006460
      py      :     0.013560
 31 H s       :     0.898133  s :     0.898133
      pz      :     0.010034  p :     0.025112
      px      :     0.005325
      py      :     0.009753
 32 H s       :     0.919548  s :     0.919548
      pz      :     0.005209  p :     0.025535
      px      :     0.015801
      py      :     0.004525
 33 H s       :     0.902999  s :     0.902999
      pz      :     0.014082  p :     0.025116
      px      :     0.005135
      py      :     0.005900


                     *******************************
                     * LOEWDIN POPULATION ANALYSIS *
                     *******************************

----------------------
LOEWDIN ATOMIC CHARGES
----------------------
   0 N :    0.105543
   1 C :    0.113127
   2 N :    0.105712
   3 H :    0.056403
   4 C :   -0.006152
   5 C :   -0.008546
   6 C :    0.041422
   7 C :    0.039402
   8 C :   -0.049576
   9 H :    0.049026
  10 C :   -0.048249
  11 C :   -0.049873
  12 C :   -0.046921
  13 H :    0.045311
  14 C :   -0.047921
  15 C :   -0.045475
  16 H :    0.044342
  17 H :    0.031466
  18 H :    0.036428
  19 H :    0.042504
  20 H :    0.034694
  21 H :    0.030905
  22 H :    0.036751
  23 H :    0.034450
  24 H :    0.046342
  25 H :    0.041198
  26 H :    0.033669
  27 H :    0.032235
  28 H :    0.051516
  29 H :    0.044300
  30 H :    0.051716
  31 H :    0.054446
  32 H :    0.046052
  33 H :    0.053754

-------------------------------
LOEWDIN REDUCED ORBITAL CHARGES
-------------------------------
  0 N s       :     3.044744  s :     3.044744
      pz      :     1.377804  p :     3.772932
      px      :     1.190940
      py      :     1.204188
      dz2     :     0.005654  d :     0.076781
      dxz     :     0.010096
      dyz     :     0.012334
      dx2y2   :     0.023312
      dxy     :     0.025385
  1 C s       :     2.828338  s :     2.828338
      pz      :     0.977031  p :     2.899631
      px      :     0.900505
      py      :     1.022095
      dz2     :     0.011461  d :     0.158903
      dxz     :     0.035776
      dyz     :     0.011030
      dx2y2   :     0.043096
      dxy     :     0.057539
  2 N s       :     3.042763  s :     3.042763
      pz      :     1.379298  p :     3.774243
      px      :     1.190610
[...]
     76       0.045837   0.000266  -0.000086  -0.000182   0.000140   0.000039
     77       0.003891   0.000020   0.000006  -0.000027  -0.000013  -0.000171
     78      -0.034474  -0.000642   0.000041  -0.002055   0.000810  -0.000139
     79      -0.069531  -0.001192   0.000096  -0.003696   0.001428  -0.000170
     80       0.029845   0.000549  -0.000045   0.001823  -0.000720  -0.000098
     81      -0.031009   0.000022   0.000026   0.000965  -0.000390  -0.000024
     82       0.137392  -0.000040  -0.000182  -0.004347   0.001833   0.000341
     83       0.105662  -0.000043  -0.000134  -0.003430   0.001437   0.000289
     84       0.000350  -0.153246   0.117338  -0.023362  -0.057820  -0.000737
     85       0.000024  -0.031446   0.025897  -0.002456  -0.007632   0.000151
     86      -0.000646   0.312833  -0.234615   0.057999   0.136486   0.000849
     87       0.000339   0.193078  -0.189708  -0.190827  -0.315482  -0.001422
     88      -0.000043   0.011310  -0.009417  -0.005694  -0.009178   0.000242
     89       0.000284   0.183691  -0.182183  -0.190214  -0.315326  -0.001194
     90       0.000123  -0.108151   0.005248  -0.167334  -0.323745   0.000323
     91       0.000168  -0.216105   0.007170  -0.336977  -0.650238   0.000286
     92      -0.000011   0.006386   0.002472   0.017226   0.032590  -0.000080
     93      -0.000209  -0.015072   0.000250  -0.445415   0.245248  -0.000606
     94       0.000161   0.022221  -0.000550   0.636641  -0.348289   0.000504
     95       0.000074   0.004783  -0.000158   0.130003  -0.070480   0.000112
     96      -0.001074  -0.003839  -0.000087  -0.132064   0.071601   0.000593
     97      -0.000300  -0.001627   0.000077  -0.045835   0.024432   0.000463
     98       0.001493   0.006417   0.000126   0.209615  -0.112975  -0.000543
     99       0.001181  -0.009613   0.000933  -0.171976   0.087467   0.001031
    100      -0.000255   0.001646  -0.000230   0.026138  -0.013001   0.000159
    101       0.001519  -0.012120   0.001093  -0.223583   0.114413   0.001091


-----------
IR SPECTRUM
-----------

 Mode   freq       eps      Int      T**2         TX        TY        TZ
       cm**-1   L/(mol*cm) km/mol    a.u.
----------------------------------------------------------------------------
  6:     48.38   0.000093    0.47  0.000601  ( 0.000330  0.006764  0.023571)
  7:     55.46   0.000010    0.05  0.000054  (-0.003604 -0.001461 -0.006213)
  8:     98.10   0.000062    0.31  0.000196  (-0.001515 -0.002360  0.013719)
  9:    101.50   0.000023    0.11  0.000069  (-0.000890  0.001475 -0.008142)
 10:    107.97   0.000029    0.15  0.000085  (-0.001730 -0.002144 -0.008810)
 11:    149.08   0.000008    0.04  0.000016  (-0.003217  0.002086 -0.001138)
 12:    158.21   0.000014    0.07  0.000027  ( 0.005155 -0.000696  0.000579)
 13:    204.75   0.000011    0.05  0.000016  (-0.001090 -0.001195 -0.003713)
 14:    221.89   0.000004    0.02  0.000005  (-0.001432 -0.001778 -0.000270)
 15:    233.30   0.000040    0.20  0.000054  ( 0.003270  0.004236  0.005023)
 16:    241.96   0.000048    0.24  0.000061  ( 0.002559  0.002548 -0.006958)
 17:    265.05   0.000362    1.83  0.000426  ( 0.003919  0.009597 -0.017842)
 18:    281.50   0.000490    2.48  0.000543  ( 0.002206  0.005774 -0.022475)
 19:    287.21   0.000983    4.97  0.001068  (-0.002840  0.002283 -0.032469)
 20:    292.65   0.001141    5.77  0.001217  ( 0.003136 -0.001472  0.034713)
 21:    318.06   0.000026    0.13  0.000025  ( 0.000335  0.003380 -0.003680)
 22:    336.23   0.000017    0.08  0.000015  (-0.000374 -0.003769  0.001000)
 23:    388.35   0.000176    0.89  0.000141  (-0.006134 -0.003026 -0.009713)
 24:    410.49   0.000310    1.57  0.000236  ( 0.014066  0.004916 -0.003696)
 25:    468.85   0.000310    1.57  0.000207  ( 0.011793  0.008209  0.000187)
 26:    486.10   0.000076    0.39  0.000049  (-0.006699 -0.001174  0.001630)
 27:    541.34   0.000647    3.27  0.000373  (-0.013929  0.013205  0.002076)
 28:    581.97   0.000825    4.17  0.000443  ( 0.018732 -0.008574  0.004270)
 29:    648.36   0.001091    5.51  0.000525  (-0.022113 -0.004611  0.003862)
 30:    674.89   0.005710   28.86  0.002640  (-0.005236 -0.006207  0.050739)
 31:    714.20   0.000023    0.12  0.000010  (-0.000902  0.002205 -0.002135)
 32:    751.21   0.000456    2.30  0.000189  (-0.003996  0.012615  0.003784)
 33:    789.71   0.000517    2.61  0.000204  ( 0.012669 -0.003068  0.005849)
 34:    873.88   0.002473   12.50  0.000883  (-0.003387  0.007244 -0.028621)
 35:    915.02   0.000180    0.91  0.000061  (-0.007070  0.002284  0.002499)
 36:    930.62   0.001052    5.32  0.000353  ( 0.008335  0.016612  0.002717)
 37:    937.06   0.000775    3.92  0.000258  (-0.000512  0.000181  0.016059)
 38:    940.88   0.000586    2.96  0.000194  ( 0.004194 -0.003679 -0.012777)
 39:    960.90   0.000194    0.98  0.000063  ( 0.002155  0.000734 -0.007607)
 40:    966.09   0.000291    1.47  0.000094  (-0.002659  0.005420  0.007588)
 41:    975.94   0.000162    0.82  0.000052  ( 0.001447  0.006966  0.001147)
 42:   1039.28   0.001493    7.54  0.000448  ( 0.004377  0.000498 -0.020710)
 43:   1050.52   0.002052   10.37  0.000610  (-0.018500 -0.016290 -0.001432)
 44:   1066.39   0.000213    1.07  0.000062  ( 0.006971 -0.003688 -0.000067)
 45:   1095.82   0.001696    8.57  0.000483  (-0.002031 -0.021351 -0.004790)
 46:   1127.36   0.007408   37.44  0.002051  (-0.042814 -0.014747  0.000326)
 47:   1170.82   0.002420   12.23  0.000645  (-0.020423 -0.000394  0.015092)
 48:   1174.23   0.000594    3.00  0.000158  (-0.008665 -0.004122 -0.008111)
 49:   1176.73   0.003045   15.39  0.000808  (-0.000426 -0.003549  0.028192)
 50:   1187.43   0.000946    4.78  0.000249  (-0.011181 -0.011029  0.001393)
 51:   1215.98   0.000838    4.24  0.000215  ( 0.006128  0.013215  0.001704)
 52:   1237.14   0.039603  200.14  0.009990  ( 0.099923  0.000345  0.002245)
 53:   1269.42   0.001953    9.87  0.000480  ( 0.018779  0.011268 -0.000648)
 54:   1343.93   0.010273   51.91  0.002385  ( 0.046201  0.014695  0.005905)
 55:   1350.40   0.003148   15.91  0.000727  (-0.026330 -0.003761 -0.004477)
 56:   1351.64   0.000053    0.27  0.000012  (-0.002313 -0.001277 -0.002296)
 57:   1375.19   0.000809    4.09  0.000184  ( 0.006508  0.011861 -0.000785)
 58:   1393.21   0.002733   13.81  0.000612  (-0.023195  0.008166 -0.002737)
 59:   1400.38   0.002885   14.58  0.000643  (-0.001423 -0.001810 -0.025249)
 60:   1401.94   0.004989   25.21  0.001110  ( 0.000169 -0.008312  0.032270)
 61:   1402.86   0.003664   18.51  0.000815  ( 0.026585  0.009452  0.004342)
 62:   1407.32   0.001232    6.23  0.000273  ( 0.010406 -0.011538 -0.005633)
 63:   1418.43   0.004374   22.10  0.000962  ( 0.007684 -0.028713 -0.008877)
 64:   1430.36   0.009366   47.33  0.002043  ( 0.027310 -0.035491 -0.006160)
 65:   1436.79   0.006035   30.50  0.001311  ( 0.003221  0.001839 -0.036015)
 66:   1441.75   0.000202    1.02  0.000044  (-0.000887  0.005431  0.003652)
 67:   1443.40   0.001992   10.07  0.000431  (-0.016715  0.003258 -0.011861)
 68:   1446.84   0.000097    0.49  0.000021  (-0.001455 -0.004205  0.001045)
 69:   1447.56   0.000211    1.07  0.000045  (-0.004489  0.001776  0.004707)
 70:   1451.84   0.000409    2.07  0.000088  ( 0.000802 -0.007860 -0.005048)
 71:   1454.72   0.002269   11.47  0.000487  (-0.019556 -0.007987 -0.006368)
 72:   1460.76   0.002351   11.88  0.000502  ( 0.014889 -0.015924  0.005190)
 73:   1464.27   0.007818   39.51  0.001666  (-0.000066 -0.038835  0.012566)
 74:   1465.92   0.000797    4.03  0.000170  ( 0.005690 -0.002031 -0.011536)
 75:   1470.87   0.001602    8.10  0.000340  (-0.007666 -0.016665  0.001834)
 76:   1476.35   0.000116    0.59  0.000025  (-0.001738 -0.001483  0.004391)
 77:   1518.92   0.001836    9.28  0.000377  ( 0.017162  0.009081  0.000383)
 78:   1528.21   0.000828    4.18  0.000169  (-0.010406 -0.007606 -0.001687)
 79:   1654.48   0.040594  205.14  0.007657  ( 0.087413  0.001671  0.003580)
 80:   1724.11   0.006205   31.36  0.001123  (-0.000356  0.032840  0.006669)
 81:   3071.39   0.002822   14.26  0.000287  (-0.005048  0.000487 -0.016155)
 82:   3074.96   0.001817    9.18  0.000184  (-0.001430  0.012519  0.005058)
 83:   3078.78   0.002987   15.09  0.000303  (-0.001664  0.003699 -0.016920)
 84:   3078.85   0.002251   11.38  0.000228  (-0.012335 -0.007819 -0.003860)
 85:   3081.27   0.001069    5.40  0.000108  ( 0.007425 -0.000370 -0.007283)
 86:   3090.76   0.003044   15.38  0.000307  ( 0.015305 -0.008147 -0.002600)
 87:   3126.61   0.001036    5.24  0.000103  ( 0.000786 -0.010134 -0.000351)
 88:   3139.93   0.000530    2.68  0.000053  ( 0.004568  0.004129 -0.003846)
 89:   3170.32   0.000609    3.08  0.000060  ( 0.001329 -0.000155  0.007629)
 90:   3175.58   0.001171    5.92  0.000115  (-0.003037 -0.007542 -0.006997)
 91:   3178.59   0.005402   27.30  0.000530  ( 0.009478  0.019199 -0.008481)
 92:   3183.55   0.000873    4.41  0.000086  (-0.003245  0.001807  0.008471)
 93:   3185.02   0.001747    8.83  0.000171  (-0.004259 -0.002107 -0.012189)
 94:   3186.34   0.002775   14.03  0.000272  (-0.016383 -0.000846  0.001648)
 95:   3187.36   0.001894    9.57  0.000185  ( 0.007964 -0.005491 -0.009582)
 96:   3189.64   0.002787   14.09  0.000273  ( 0.015901 -0.003020  0.003272)
 97:   3190.04   0.004130   20.87  0.000404  (-0.000386  0.020095 -0.000100)
 98:   3193.80   0.001849    9.34  0.000181  (-0.002841  0.013114 -0.000771)
 99:   3205.90   0.000791    4.00  0.000077  ( 0.007847 -0.003876  0.000619)
100:   3209.68   0.000429    2.17  0.000042  ( 0.003608  0.005176  0.001367)
101:   3307.10   0.009947   50.27  0.000939  (-0.003438  0.030021  0.005048)

* The epsilon (eps) is given for a Dirac delta lineshape.
** The dipole moment derivative (T) already includes vibrational overlap.

The first frequency considered to be a vibration is 6
The total number of vibrations considered is 96


--------------------------
THERMOCHEMISTRY AT 298.15K
--------------------------

Temperature         ... 298.15 K
Pressure            ... 1.00 atm
Total Mass          ... 181.30 AMU

Throughout the following assumptions are being made:
  (1) The electronic state is orbitally nondegenerate
  (2) There are no thermally accessible electronically excited states
  (3) Hindered rotations indicated by low frequency modes are not
      treated as such but are treated as vibrations and this may
      cause some error
  (4) All equations used are the standard statistical mechanics
      equations for an ideal gas
  (5) All vibrations are strictly harmonic

freq.      48.38  E(vib)   ...       0.53 
freq.      55.46  E(vib)   ...       0.52 
freq.      98.10  E(vib)   ...       0.46 
freq.     101.50  E(vib)   ...       0.46 
freq.     107.97  E(vib)   ...       0.45 
freq.     149.08  E(vib)   ...       0.40 
freq.     158.21  E(vib)   ...       0.39 
freq.     204.75  E(vib)   ...       0.35 
freq.     221.89  E(vib)   ...       0.33 
freq.     233.30  E(vib)   ...       0.32 
freq.     241.96  E(vib)   ...       0.31 
freq.     265.05  E(vib)   ...       0.29 
freq.     281.50  E(vib)   ...       0.28 
freq.     287.21  E(vib)   ...       0.27 
freq.     292.65  E(vib)   ...       0.27 
freq.     318.06  E(vib)   ...       0.25 
freq.     336.23  E(vib)   ...       0.24 
freq.     388.35  E(vib)   ...       0.20 
freq.     410.49  E(vib)   ...       0.19 
freq.     468.85  E(vib)   ...       0.16 
freq.     486.10  E(vib)   ...       0.15 
freq.     541.34  E(vib)   ...       0.12 
freq.     581.97  E(vib)   ...       0.11 
freq.     648.36  E(vib)   ...       0.08 
freq.     674.89  E(vib)   ...       0.08 
freq.     714.20  E(vib)   ...       0.07 
freq.     751.21  E(vib)   ...       0.06 
freq.     789.71  E(vib)   ...       0.05 
freq.     873.88  E(vib)   ...       0.04 
freq.     915.02  E(vib)   ...       0.03 
freq.     930.62  E(vib)   ...       0.03 
freq.     937.06  E(vib)   ...       0.03 
freq.     940.88  E(vib)   ...       0.03 
freq.     960.90  E(vib)   ...       0.03 
freq.     966.09  E(vib)   ...       0.03 
freq.     975.94  E(vib)   ...       0.03 
freq.    1039.28  E(vib)   ...       0.02 
freq.    1050.52  E(vib)   ...       0.02 
freq.    1066.39  E(vib)   ...       0.02 
freq.    1095.82  E(vib)   ...       0.02 
freq.    1127.36  E(vib)   ...       0.01 
freq.    1170.82  E(vib)   ...       0.01 
freq.    1174.23  E(vib)   ...       0.01 
freq.    1176.73  E(vib)   ...       0.01 
freq.    1187.43  E(vib)   ...       0.01 
freq.    1215.98  E(vib)   ...       0.01 
freq.    1237.14  E(vib)   ...       0.01 
freq.    1269.42  E(vib)   ...       0.01 
freq.    1343.93  E(vib)   ...       0.01 
freq.    1350.40  E(vib)   ...       0.01 
freq.    1351.64  E(vib)   ...       0.01 
freq.    1375.19  E(vib)   ...       0.01 
freq.    1393.21  E(vib)   ...       0.00 
freq.    1400.38  E(vib)   ...       0.00 
freq.    1401.94  E(vib)   ...       0.00 
freq.    1402.86  E(vib)   ...       0.00 
freq.    1407.32  E(vib)   ...       0.00 
freq.    1418.43  E(vib)   ...       0.00 
freq.    1430.36  E(vib)   ...       0.00 
freq.    1436.79  E(vib)   ...       0.00 
freq.    1441.75  E(vib)   ...       0.00 
freq.    1443.40  E(vib)   ...       0.00 
freq.    1446.84  E(vib)   ...       0.00 
freq.    1447.56  E(vib)   ...       0.00 
freq.    1451.84  E(vib)   ...       0.00 
freq.    1454.72  E(vib)   ...       0.00 
freq.    1460.76  E(vib)   ...       0.00 
freq.    1464.27  E(vib)   ...       0.00 
freq.    1465.92  E(vib)   ...       0.00 
freq.    1470.87  E(vib)   ...       0.00 
freq.    1476.35  E(vib)   ...       0.00 
freq.    1518.92  E(vib)   ...       0.00 
freq.    1528.21  E(vib)   ...       0.00 
freq.    1654.48  E(vib)   ...       0.00 
freq.    1724.11  E(vib)   ...       0.00 
freq.    3071.39  E(vib)   ...       0.00 
freq.    3074.96  E(vib)   ...       0.00 
freq.    3078.78  E(vib)   ...       0.00 
freq.    3078.85  E(vib)   ...       0.00 
freq.    3081.27  E(vib)   ...       0.00 
freq.    3090.76  E(vib)   ...       0.00 
freq.    3126.61  E(vib)   ...       0.00 
freq.    3139.93  E(vib)   ...       0.00 
freq.    3170.32  E(vib)   ...       0.00 
freq.    3175.58  E(vib)   ...       0.00 
freq.    3178.59  E(vib)   ...       0.00 
freq.    3183.55  E(vib)   ...       0.00 
freq.    3185.02  E(vib)   ...       0.00 
freq.    3186.34  E(vib)   ...       0.00 
freq.    3187.36  E(vib)   ...       0.00 
freq.    3189.64  E(vib)   ...       0.00 
freq.    3190.04  E(vib)   ...       0.00 
freq.    3193.80  E(vib)   ...       0.00 
freq.    3205.90  E(vib)   ...       0.00 
freq.    3209.68  E(vib)   ...       0.00 
freq.    3307.10  E(vib)   ...       0.00 

------------
INNER ENERGY
------------

The inner energy is: U= E(el) + E(ZPE) + E(vib) + E(rot) + E(trans)
    E(el)   - is the total energy from the electronic structure calculation
              = E(kin-el) + E(nuc-el) + E(el-el) + E(nuc-nuc)
    E(ZPE)  - the the zero temperature vibrational energy from the frequency calculation
    E(vib)  - the the finite temperature correction to E(ZPE) due to population
              of excited vibrational states
    E(rot)  - is the rotational thermal energy
    E(trans)- is the translational thermal energy

Summary of contributions to the inner energy U:
Electronic energy                ...   -540.70340423 Eh
Zero point energy                ...      0.31128009 Eh     195.33 kcal/mol
Thermal vibrational correction   ...      0.01257608 Eh       7.89 kcal/mol
Thermal rotational correction    ...      0.00141627 Eh       0.89 kcal/mol
Thermal translational correction ...      0.00141627 Eh       0.89 kcal/mol
-----------------------------------------------------------------------
Total thermal energy                   -540.37671551 Eh


Summary of corrections to the electronic energy:
(perhaps to be used in another calculation)
Total thermal correction                  0.01540862 Eh       9.67 kcal/mol
Non-thermal (ZPE) correction              0.31128009 Eh     195.33 kcal/mol
-----------------------------------------------------------------------
Total correction                          0.32668871 Eh     205.00 kcal/mol


--------
ENTHALPY
--------

The enthalpy is H = U + kB*T
                kB is Boltzmann's constant
Total free energy                 ...   -540.37671551 Eh 
Thermal Enthalpy correction       ...      0.00094421 Eh       0.59 kcal/mol
-----------------------------------------------------------------------
Total Enthalpy                    ...   -540.37577130 Eh


Note: Only C1 symmetry has been detected, increase convergence thresholds 
      if your molecule has a higher symmetry. Symmetry factor of 1.0 is   
      used for the rotational entropy correction. 
 

Note: Rotational entropy computed according to Herzberg 
Infrared and Raman Spectra, Chapter V,1, Van Nostrand Reinhold, 1945 
Point Group:  C1, Symmetry Number:   1  
Rotational constants in cm-1:     0.041358     0.017477     0.014408 

Vibrational entropy computed according to the QRRHO of S. Grimme
Chem.Eur.J. 2012 18 9955


-------
ENTROPY
-------

The entropy contributions are T*S = T*(S(el)+S(vib)+S(rot)+S(trans))
     S(el)   - electronic entropy
     S(vib)  - vibrational entropy
     S(rot)  - rotational entropy
     S(trans)- translational entropy
The entropies will be listed as multiplied by the temperature to get
units of energy

Electronic entropy                ...      0.00000000 Eh      0.00 kcal/mol
Vibrational entropy               ...      0.02187912 Eh     13.73 kcal/mol
Rotational entropy                ...      0.01492679 Eh      9.37 kcal/mol
Translational entropy             ...      0.01971392 Eh     12.37 kcal/mol
-----------------------------------------------------------------------
Final entropy term                ...      0.05651984 Eh     35.47 kcal/mol

In case the symmetry of your molecule has not been determined correctly
or in case you have a reason to use a different symmetry number we print 
out the resulting rotational entropy values for sn=1,12 :
 --------------------------------------------------------
|  sn= 1 | S(rot)=       0.01492679 Eh      9.37 kcal/mol|
|  sn= 2 | S(rot)=       0.01427234 Eh      8.96 kcal/mol|
|  sn= 3 | S(rot)=       0.01388951 Eh      8.72 kcal/mol|
|  sn= 4 | S(rot)=       0.01361788 Eh      8.55 kcal/mol|
|  sn= 5 | S(rot)=       0.01340719 Eh      8.41 kcal/mol|
|  sn= 6 | S(rot)=       0.01323505 Eh      8.31 kcal/mol|
|  sn= 7 | S(rot)=       0.01308950 Eh      8.21 kcal/mol|
|  sn= 8 | S(rot)=       0.01296343 Eh      8.13 kcal/mol|
|  sn= 9 | S(rot)=       0.01285222 Eh      8.06 kcal/mol|
|  sn=10 | S(rot)=       0.01275274 Eh      8.00 kcal/mol|
|  sn=11 | S(rot)=       0.01266275 Eh      7.95 kcal/mol|
|  sn=12 | S(rot)=       0.01258059 Eh      7.89 kcal/mol|
 --------------------------------------------------------


-------------------
GIBBS FREE ENERGY
-------------------

The Gibbs free energy is G = H - T*S

Total enthalpy                    ...   -540.37577130 Eh 
Total entropy correction          ...     -0.05651984 Eh    -35.47 kcal/mol
-----------------------------------------------------------------------
Final Gibbs free energy         ...   -540.43229114 Eh

For completeness - the Gibbs free energy minus the electronic energy
G-E(el)                           ...      0.27111308 Eh    170.13 kcal/mol


Timings for individual modules:

Sum of individual times         ...    14122.732 sec (= 235.379 min)
GTO integral calculation        ...        8.684 sec (=   0.145 min)   0.1 %
SCF iterations                  ...     8748.013 sec (= 145.800 min)  61.9 %
SCF Gradient evaluation         ...     2497.923 sec (=  41.632 min)  17.7 %
Geometry relaxation             ...        1.773 sec (=   0.030 min)   0.0 %
Analytical frequency calculation...     2866.339 sec (=  47.772 min)  20.3 %
                             ****ORCA TERMINATED NORMALLY****
TOTAL RUN TIME: 0 days 3 hours 55 minutes 25 seconds 869 msec
