
                                 *****************
                                 * O   R   C   A *
                                 *****************

                                            #,                                       
                                            ###                                      
                                            ####                                     
                                            #####                                    
                                            ######                                   
                                           ########,                                 
                                     ,,################,,,,,                         
                               ,,#################################,,                 
                          ,,##########################################,,             
                       ,#########################################, ''#####,          
                    ,#############################################,,   '####,        
                  ,##################################################,,,,####,       
                ,###########''''           ''''###############################       
              ,#####''   ,,,,##########,,,,          '''####'''          '####       
            ,##' ,,,,###########################,,,                        '##       
           ' ,,###''''                  '''############,,,                           
         ,,##''                                '''############,,,,        ,,,,,,###''
      ,#''                                            '''#######################'''  
     '                                                          ''''####''''         
             ,#######,   #######,   ,#######,      ##                                
            ,#'     '#,  ##    ##  ,#'     '#,    #''#        ######   ,####,        
            ##       ##  ##   ,#'  ##            #'  '#       #        #'  '#        
            ##       ##  #######   ##           ,######,      #####,   #    #        
            '#,     ,#'  ##    ##  '#,     ,#' ,#      #,         ##   #,  ,#        
             '#######'   ##     ##  '#######'  #'      '#     #####' # '####'        



                  #######################################################
                  #                        -***-                        #
                  #          Department of theory and spectroscopy      #
                  #    Directorship and core code : Frank Neese         #
                  #        Max Planck Institute fuer Kohlenforschung    #
                  #                Kaiser Wilhelm Platz 1               #
                  #                 D-45470 Muelheim/Ruhr               #
                  #                      Germany                        #
                  #                                                     #
                  #                  All rights reserved                #
                  #                        -***-                        #
                  #######################################################


                         Program Version 5.0.4 -  RELEASE  -


 With contributions from (in alphabetic order):
   Daniel Aravena         : Magnetic Suceptibility
   Michael Atanasov       : Ab Initio Ligand Field Theory (pilot matlab implementation)
   Alexander A. Auer      : GIAO ZORA, VPT2 properties, NMR spectrum
   Ute Becker             : Parallelization
   Giovanni Bistoni       : ED, misc. LED, open-shell LED, HFLD
   Martin Brehm           : Molecular dynamics
   Dmytro Bykov           : SCF Hessian
   Vijay G. Chilkuri      : MRCI spin determinant printing, contributions to CSF-ICE
   Dipayan Datta          : RHF DLPNO-CCSD density
   Achintya Kumar Dutta   : EOM-CC, STEOM-CC
   Dmitry Ganyushin       : Spin-Orbit,Spin-Spin,Magnetic field MRCI
   Miquel Garcia          : C-PCM and meta-GGA Hessian, CC/C-PCM, Gaussian charge scheme
   Yang Guo               : DLPNO-NEVPT2, F12-NEVPT2, CIM, IAO-localization
   Andreas Hansen         : Spin unrestricted coupled pair/coupled cluster methods
   Benjamin Helmich-Paris : MC-RPA, TRAH-SCF, COSX integrals
   Lee Huntington         : MR-EOM, pCC
   Robert Izsak           : Overlap fitted RIJCOSX, COSX-SCS-MP3, EOM
   Marcus Kettner         : VPT2
   Christian Kollmar      : KDIIS, OOCD, Brueckner-CCSD(T), CCSD density, CASPT2, CASPT2-K
   Simone Kossmann        : Meta GGA functionals, TD-DFT gradient, OOMP2, MP2 Hessian
   Martin Krupicka        : Initial AUTO-CI
   Lucas Lang             : DCDCAS
   Marvin Lechner         : AUTO-CI (C++ implementation), FIC-MRCC
   Dagmar Lenk            : GEPOL surface, SMD
   Dimitrios Liakos       : Extrapolation schemes; Compound Job, initial MDCI parallelization
   Dimitrios Manganas     : Further ROCIS development; embedding schemes
   Dimitrios Pantazis     : SARC Basis sets
   Anastasios Papadopoulos: AUTO-CI, single reference methods and gradients
   Taras Petrenko         : DFT Hessian,TD-DFT gradient, ASA, ECA, R-Raman, ABS, FL, XAS/XES, NRVS
   Peter Pinski           : DLPNO-MP2, DLPNO-MP2 Gradient
   Christoph Reimann      : Effective Core Potentials
   Marius Retegan         : Local ZFS, SOC
   Christoph Riplinger    : Optimizer, TS searches, QM/MM, DLPNO-CCSD(T), (RO)-DLPNO pert. Triples
   Tobias Risthaus        : Range-separated hybrids, TD-DFT gradient, RPA, STAB
   Michael Roemelt        : Original ROCIS implementation
   Masaaki Saitow         : Open-shell DLPNO-CCSD energy and density
   Barbara Sandhoefer     : DKH picture change effects
   Avijit Sen             : IP-ROCIS
   Kantharuban Sivalingam : CASSCF convergence, NEVPT2, FIC-MRCI
   Bernardo de Souza      : ESD, SOC TD-DFT
   Georgi Stoychev        : AutoAux, RI-MP2 NMR, DLPNO-MP2 response
   Willem Van den Heuvel  : Paramagnetic NMR
   Boris Wezisla          : Elementary symmetry handling
   Frank Wennmohs         : Technical directorship


 We gratefully acknowledge several colleagues who have allowed us to
 interface, adapt or use parts of their codes:
   Stefan Grimme, W. Hujo, H. Kruse, P. Pracht,  : VdW corrections, initial TS optimization,
                  C. Bannwarth, S. Ehlert          DFT functionals, gCP, sTDA/sTD-DF
   Ed Valeev, F. Pavosevic, A. Kumar             : LibInt (2-el integral package), F12 methods
   Garnet Chan, S. Sharma, J. Yang, R. Olivares  : DMRG
   Ulf Ekstrom                                   : XCFun DFT Library
   Mihaly Kallay                                 : mrcc  (arbitrary order and MRCC methods)
   Jiri Pittner, Ondrej Demel                    : Mk-CCSD
   Frank Weinhold                                : gennbo (NPA and NBO analysis)
   Christopher J. Cramer and Donald G. Truhlar   : smd solvation model
   Lars Goerigk                                  : TD-DFT with DH, B97 family of functionals
   V. Asgeirsson, H. Jonsson                     : NEB implementation
   FAccTs GmbH                                   : IRC, NEB, NEB-TS, DLPNO-Multilevel, CI-OPT
                                                   MM, QMMM, 2- and 3-layer-ONIOM, Crystal-QMMM,
                                                   LR-CPCM, SF, NACMEs, symmetry and pop. for TD-DFT,
                                                   nearIR, NL-DFT gradient (VV10), updates on ESD,
                                                   ML-optimized integration grids
   S Lehtola, MJT Oliveira, MAL Marques          : LibXC Library
   Liviu Ungur et al                             : ANISO software


 Your calculation uses the libint2 library for the computation of 2-el integrals
 For citations please refer to: http://libint.valeyev.net

 Your ORCA version has been built with support for libXC version: 5.1.0
 For citations please refer to: https://tddft.org/programs/libxc/

 This ORCA versions uses:
   CBLAS   interface :  Fast vector & matrix operations
   LAPACKE interface :  Fast linear algebra routines
   SCALAPACK package :  Parallel linear algebra routines
   Shared memory     :  Shared parallel matrices
   BLAS/LAPACK       :  OpenBLAS 0.3.15  USE64BITINT DYNAMIC_ARCH NO_AFFINITY SkylakeX SINGLE_THREADED
        Core in use  :  SkylakeX
   Copyright (c) 2011-2014, The OpenBLAS Project




***************************************
The coordinates will be read from file: 6_prot_aq_5.xyz
***************************************


Your calculation utilizes the atom-pairwise dispersion correction
based on tight binding partial charges (D4)
Cite in your paper:
E.Caldeweyher, C.Bannwarth, S.Grimme, J.Chem.Phys., (2017), 147, 034112.
E.Caldeweyher, S.Ehlert, A.Hansen, H.Neugebauer, S.Grimme, J.Chem.Phys., (2018), in progress.
   

XCFun DFT library Copyright 2009-2010 Ulf Ekstrom and contributors.
See http://admol.org/xcfun for more information.
This is free software; see the source code for copying conditions.
There is ABSOLUTELY NO WARRANTY; not even for MERCHANTABILITY or FITNESS FOR A PARTICULAR PURPOSE.
For details see the documentation.
Scientific users of this library should cite U. Ekstrom, L. Visscher, R. Bast, A. J. Thorvaldsen and K. Ruud;
J.Chem.Theor.Comp. 2010, DOI: 10.1021/ct100117s
XCFun Version 0.99 

================================================================================

----- Orbital basis set information -----
Your calculation utilizes the basis: def2-SVP
   F. Weigend and R. Ahlrichs, Phys. Chem. Chem. Phys. 7, 3297 (2005).

----- AuxJ basis set information -----
Your calculation utilizes the auxiliary basis: def2/J
   F. Weigend, Phys. Chem. Chem. Phys. 8, 1057 (2006).

================================================================================
                                        WARNINGS
                       Please study these warnings very carefully!
================================================================================


WARNING: Geometry Optimization
  ===> : Switching off AutoStart
         For restart on a previous wavefunction, please use MOREAD

INFO   : the flag for use of the SHARK integral package has been found!

================================================================================
                                       INPUT FILE
================================================================================
NAME = 6_prot_aq_5.inp
|  1> # ORCA 5.0.4 - /users/bwb16179/postgrad/2024_03/DFT_Crest_Conformers/Opt/prot/6_prot_aq_5.inp # write input file
|  2> # Basic Mode
|  3> #
|  4> ! Opt Freq wB97X Def2-SVP D4 SlowConv TightSCF Defgrid2 Def2/J RIJCOSX CPCM(Water)
|  5> 
|  6> 
|  7> 
|  8> %maxcore 4500
|  9> 
| 10> %geom
| 11> Maxiter 150
| 12> END
| 13> 
| 14> * xyzfile 1 1 6_prot_aq_5.xyz
| 15> 
| 16>                          ****END OF INPUT****
================================================================================

                       *****************************
                       * Geometry Optimization Run *
                       *****************************

Geometry optimization settings:
Update method            Update   .... BFGS
Choice of coordinates    CoordSys .... Z-matrix Internals
Initial Hessian          InHess   .... Almoef's Model

Convergence Tolerances:
Energy Change            TolE     ....  5.0000e-06 Eh
Max. Gradient            TolMAXG  ....  3.0000e-04 Eh/bohr
RMS Gradient             TolRMSG  ....  1.0000e-04 Eh/bohr
Max. Displacement        TolMAXD  ....  4.0000e-03 bohr
RMS Displacement         TolRMSD  ....  2.0000e-03 bohr
Strict Convergence                ....  False
------------------------------------------------------------------------------
                        ORCA OPTIMIZATION COORDINATE SETUP
------------------------------------------------------------------------------

The optimization will be done in new redundant internal coordinates
Making redundant internal coordinates   ...  (new redundants) done
Evaluating the initial hessian          ...  (Almloef) done
Evaluating the coordinates              ...  done
Calculating the B-matrix                .... done
Calculating the G-matrix                .... done
Diagonalizing the G-matrix              .... done
Small eigenvalue found = 1.453e-02
Small eigenvalue found = 1.810e-02
Small eigenvalue found = 2.193e-02
The first mode is                       ....   81
The number of degrees of freedom        ....   96

    -----------------------------------------------------------------
                    Redundant Internal Coordinates


    -----------------------------------------------------------------
         Definition                    Initial Value    Approx d2E/dq
    -----------------------------------------------------------------
      1. B(C   1,N   0)                  1.3297         0.698289   
      2. B(N   2,C   1)                  1.3297         0.698270   
      3. B(H   3,C   1)                  1.0721         0.384558   
      4. B(C   4,N   2)                  1.3727         0.596252   
      5. B(C   5,C   4)                  1.3763         0.657006   
      6. B(C   5,N   0)                  1.3727         0.596268   
      7. B(C   6,N   0)                  1.4642         0.426098   
      8. B(C   7,N   2)                  1.4642         0.426088   
      9. B(C   8,C   6)                  1.5265         0.378401   
     10. B(H   9,C   6)                  1.0956         0.352745   
     11. B(C  10,C   6)                  1.5249         0.380700   
     12. B(C  11,C   7)                  1.5248         0.380725   
     13. B(C  12,C   7)                  1.5265         0.378405   
     14. B(H  13,C   7)                  1.0956         0.352748   
     15. B(C  14,C   4)                  1.4838         0.442655   
     16. B(C  15,C   5)                  1.4838         0.442638   
     17. B(H  16,C   8)                  1.0857         0.365885   
     18. B(H  17,C   8)                  1.0875         0.363463   
     19. B(H  18,C   8)                  1.0859         0.365524   
     20. B(H  19,C  10)                  1.0845         0.367502   
     21. B(H  20,C  10)                  1.0862         0.365177   
     22. B(H  21,C  10)                  1.0873         0.363640   
     23. B(H  22,C  11)                  1.0862         0.365182   
     24. B(H  23,C  11)                  1.0873         0.363647   
     25. B(H  24,C  11)                  1.0845         0.367509   
     26. B(H  25,C  12)                  1.0859         0.365516   
     27. B(H  26,C  12)                  1.0857         0.365878   
     28. B(H  27,C  12)                  1.0875         0.363450   
     29. B(H  28,C  15)                  1.0854         0.366292   
     30. B(H  29,C  15)                  1.0896         0.360602   
     31. B(H  30,C  15)                  1.0859         0.365543   
     32. B(H  31,C  14)                  1.0896         0.360611   
     33. B(H  32,C  14)                  1.0859         0.365565   
     34. B(H  33,C  14)                  1.0854         0.366286   
     35. A(C   5,N   0,C   6)          130.0791         0.398046   
     36. A(C   1,N   0,C   6)          122.2623         0.409293   
     37. A(C   1,N   0,C   5)          107.6455         0.434603   
     38. A(N   0,C   1,H   3)          124.7689         0.361907   
     39. A(N   2,C   1,H   3)          124.7692         0.361905   
     40. A(N   0,C   1,N   2)          110.4619         0.447179   
     41. A(C   4,N   2,C   7)          130.0832         0.398042   
     42. A(C   1,N   2,C   4)          107.6447         0.434599   
     43. A(C   1,N   2,C   7)          122.2590         0.409290   
     44. A(C   5,C   4,C  14)          127.4722         0.412953   
     45. A(N   2,C   4,C   5)          107.1217         0.432695   
     46. A(N   2,C   4,C  14)          125.4030         0.403308   
     47. A(N   0,C   5,C   4)          107.1213         0.432697   
     48. A(N   0,C   5,C  15)          125.4068         0.403307   
     49. A(C   4,C   5,C  15)          127.4687         0.412950   
     50. A(C   8,C   6,H   9)          108.2305         0.323904   
     51. A(N   0,C   6,H   9)          104.8462         0.328316   
     52. A(N   0,C   6,C  10)          111.8831         0.370519   
     53. A(N   0,C   6,C   8)          110.5761         0.370133   
     54. A(H   9,C   6,C  10)          108.2343         0.324226   
     55. A(C   8,C   6,C  10)          112.6746         0.365329   
     56. A(C  12,C   7,H  13)          108.2311         0.323905   
     57. A(C  11,C   7,H  13)          108.2365         0.324230   
     58. A(N   2,C   7,H  13)          104.8450         0.328315   
     59. A(C  11,C   7,C  12)          112.6697         0.365334   
     60. A(N   2,C   7,C  12)          110.5796         0.370132   
     61. A(N   2,C   7,C  11)          111.8831         0.370521   
     62. A(H  16,C   8,H  17)          108.6749         0.291996   
     63. A(C   6,C   8,H  16)          111.9285         0.325856   
     64. A(C   6,C   8,H  17)          110.7771         0.325501   
     65. A(C   6,C   8,H  18)          109.0151         0.325803   
     66. A(H  17,C   8,H  18)          108.3214         0.291950   
     67. A(H  16,C   8,H  18)          108.0201         0.292255   
     68. A(H  19,C  10,H  21)          109.1735         0.292221   
     69. A(C   6,C  10,H  21)          110.8001         0.325851   
     70. A(H  19,C  10,H  20)          107.8626         0.292415   
     71. A(C   6,C  10,H  20)          108.7829         0.326077   
     72. A(H  20,C  10,H  21)          108.0622         0.291929   
     73. A(C   6,C  10,H  19)          112.0347         0.326418   
     74. A(H  23,C  11,H  24)          109.1750         0.292222   
     75. A(H  22,C  11,H  24)          107.8618         0.292416   
     76. A(C   7,C  11,H  24)          112.0322         0.326423   
     77. A(H  22,C  11,H  23)          108.0627         0.291930   
     78. A(C   7,C  11,H  23)          110.8014         0.325856   
     79. A(C   7,C  11,H  22)          108.7830         0.326082   
     80. A(H  26,C  12,H  27)          108.6779         0.291993   
     81. A(H  25,C  12,H  27)          108.3210         0.291948   
     82. A(C   7,C  12,H  27)          110.7783         0.325499   
     83. A(H  25,C  12,H  26)          108.0182         0.292254   
     84. A(C   7,C  12,H  26)          111.9292         0.325856   
     85. A(C   7,C  12,H  25)          109.0124         0.325803   
     86. A(H  31,C  14,H  33)          108.5057         0.291684   
     87. A(C   4,C  14,H  33)          111.5088         0.334476   
     88. A(H  31,C  14,H  32)          108.1760         0.291594   
     89. A(C   4,C  14,H  32)          109.7163         0.334367   
     90. A(C   4,C  14,H  31)          110.8345         0.333610   
     91. A(H  32,C  14,H  33)          107.9947         0.292311   
     92. A(H  29,C  15,H  30)          108.1765         0.291590   
     93. A(H  28,C  15,H  30)          107.9931         0.292309   
     94. A(C   5,C  15,H  30)          109.7157         0.334361   
     95. A(H  28,C  15,H  29)          108.5058         0.291684   
     96. A(C   5,C  15,H  29)          110.8333         0.333607   
     97. A(C   5,C  15,H  28)          111.5115         0.334475   
     98. D(H   3,C   1,N   0,C   6)      0.9695         0.040331   
     99. D(H   3,C   1,N   0,C   5)    179.7742         0.040331   
    100. D(N   2,C   1,N   0,C   6)   -179.0319         0.040331   
    101. D(N   2,C   1,N   0,C   5)     -0.2271         0.040331   
    102. D(C   7,N   2,C   1,N   0)   -179.0321         0.040329   
    103. D(C   7,N   2,C   1,H   3)      0.9666         0.040329   
    104. D(C   4,N   2,C   1,H   3)    179.7734         0.040329   
    105. D(C   4,N   2,C   1,N   0)     -0.2252         0.040329   
    106. D(C  14,C   4,N   2,C   1)    179.9841         0.028621   
    107. D(C   5,C   4,N   2,C   1)      0.5843         0.028621   
    108. D(C  14,C   4,N   2,C   7)     -1.3346         0.028621   
    109. D(C   5,C   4,N   2,C   7)    179.2655         0.028621   
    110. D(C  15,C   5,N   0,C   1)    179.9882         0.028623   
    111. D(C   4,C   5,N   0,C   6)    179.2645         0.028623   
    112. D(C   4,C   5,N   0,C   1)      0.5854         0.028623   
    113. D(C  15,C   5,C   4,C  14)      0.5137         0.030101   
    114. D(C  15,C   5,C   4,N   2)    179.8973         0.030101   
    115. D(N   0,C   5,C   4,C  14)    179.9004         0.030101   
    116. D(N   0,C   5,C   4,N   2)     -0.7160         0.030101   
    117. D(C  15,C   5,N   0,C   6)     -1.3327         0.028623   
    118. D(C  10,C   6,N   0,C   5)     53.2375         0.015480   
    119. D(C  10,C   6,N   0,C   1)   -128.2512         0.015480   
    120. D(H   9,C   6,N   0,C   5)    170.3226         0.015480   
    121. D(H   9,C   6,N   0,C   1)    -11.1660         0.015480   
    122. D(C   8,C   6,N   0,C   5)    -73.2408         0.015480   
    123. D(C   8,C   6,N   0,C   1)    105.2706         0.015480   
    124. D(C  12,C   7,N   2,C   4)    -73.2092         0.015479   
    125. D(C  11,C   7,N   2,C   4)     53.2653         0.015479   
    126. D(C  11,C   7,N   2,C   1)   -128.2208         0.015479   
    127. D(H  13,C   7,N   2,C   1)    -11.1337         0.015479   
    128. D(C  12,C   7,N   2,C   1)    105.3046         0.015479   
    129. D(H  13,C   7,N   2,C   4)    170.3524         0.015479   
    130. D(H  18,C   8,C   6,C  10)     61.0794         0.011417   
    131. D(H  18,C   8,C   6,H   9)    -58.5668         0.011417   
    132. D(H  18,C   8,C   6,N   0)   -172.8845         0.011417   
    133. D(H  17,C   8,C   6,C  10)   -179.8184         0.011417   
    134. D(H  17,C   8,C   6,N   0)    -53.7823         0.011417   
    135. D(H  16,C   8,C   6,C  10)    -58.3573         0.011417   
    136. D(H  16,C   8,C   6,H   9)   -178.0035         0.011417   
    137. D(H  16,C   8,C   6,N   0)     67.6788         0.011417   
    138. D(H  17,C   8,C   6,H   9)     60.5354         0.011417   
    139. D(H  21,C  10,C   6,H   9)    -69.7001         0.011549   
    140. D(H  21,C  10,C   6,C   8)    170.6558         0.011549   
    141. D(H  21,C  10,C   6,N   0)     45.3268         0.011549   
    142. D(H  20,C  10,C   6,H   9)     48.9534         0.011549   
    143. D(H  20,C  10,C   6,C   8)    -70.6906         0.011549   
    144. D(H  20,C  10,C   6,N   0)    163.9804         0.011549   
    145. D(H  19,C  10,C   6,H   9)    168.1080         0.011549   
    146. D(H  19,C  10,C   6,C   8)     48.4640         0.011549   
    147. D(H  19,C  10,C   6,N   0)    -76.8651         0.011549   
    148. D(H  24,C  11,C   7,C  12)     48.5072         0.011550   
    149. D(H  24,C  11,C   7,N   2)    -76.8228         0.011550   
    150. D(H  23,C  11,C   7,H  13)    -69.6566         0.011550   
    151. D(H  23,C  11,C   7,C  12)    170.7001         0.011550   
    152. D(H  23,C  11,C   7,N   2)     45.3701         0.011550   
    153. D(H  22,C  11,C   7,H  13)     48.9984         0.011550   
    154. D(H  22,C  11,C   7,C  12)    -70.6449         0.011550   
    155. D(H  24,C  11,C   7,H  13)    168.1505         0.011550   
    156. D(H  22,C  11,C   7,N   2)    164.0251         0.011550   
    157. D(H  26,C  12,C   7,N   2)     67.7313         0.011417   
    158. D(H  25,C  12,C   7,H  13)    -58.5174         0.011417   
    159. D(H  25,C  12,C   7,C  11)     61.1290         0.011417   
    160. D(H  25,C  12,C   7,N   2)   -172.8358         0.011417   
    161. D(H  27,C  12,C   7,H  13)     60.5834         0.011417   
    162. D(H  27,C  12,C   7,C  11)   -179.7702         0.011417   
    163. D(H  27,C  12,C   7,N   2)    -53.7350         0.011417   
    164. D(H  26,C  12,C   7,H  13)   -177.9504         0.011417   
    165. D(H  26,C  12,C   7,C  11)    -58.3039         0.011417   
    166. D(H  33,C  14,C   4,C   5)   -140.2427         0.014456   
    167. D(H  33,C  14,C   4,N   2)     40.4800         0.014456   
    168. D(H  32,C  14,C   4,C   5)    -20.6414         0.014456   
    169. D(H  32,C  14,C   4,N   2)    160.0813         0.014456   
    170. D(H  31,C  14,C   4,C   5)     98.7601         0.014456   
    171. D(H  31,C  14,C   4,N   2)    -80.5172         0.014456   
    172. D(H  30,C  15,C   5,C   4)    -20.7809         0.014455   
    173. D(H  30,C  15,C   5,N   0)    159.9382         0.014455   
    174. D(H  29,C  15,C   5,C   4)     98.6201         0.014455   
    175. D(H  29,C  15,C   5,N   0)    -80.6608         0.014455   
    176. D(H  28,C  15,C   5,C   4)   -140.3815         0.014455   
    177. D(H  28,C  15,C   5,N   0)     40.3376         0.014455   
    -----------------------------------------------------------------

Number of atoms                         .... 34
Number of degrees of freedom            .... 177

         *************************************************************
         *                GEOMETRY OPTIMIZATION CYCLE   1            *
         *************************************************************
---------------------------------
CARTESIAN COORDINATES (ANGSTROEM)
---------------------------------
  N     -1.091956   -0.378893   -0.027274
  C      0.000101   -1.137096   -0.000514
  N      1.092010   -0.378687    0.026831
  H      0.000209   -2.209208   -0.000949
  C      0.687939    0.933143    0.012187
  C     -0.688173    0.933006   -0.011574
  C     -2.440008   -0.950249   -0.039965
  C      2.440152   -0.949857    0.039086
  C     -3.101611   -0.794475    1.326869
  H     -2.290132   -2.019083   -0.228402
  C     -3.288122   -0.380522   -1.171912
  C      3.287935   -0.381435    1.171912
  C      3.102125   -0.792226   -1.327353
  H      2.290373   -2.018950    0.226111
  C      1.590305    2.110844    0.033555
  C     -1.590725    2.110596   -0.031930
  H     -3.310231    0.245086    1.560215
  H     -2.470391   -1.207297    2.110278
  H     -4.043733   -1.334523    1.327539
  H     -3.647804    0.617761   -0.948046
  H     -4.152926   -1.021368   -1.317635
  H     -2.725315   -0.357119   -2.101967
  H      4.153217   -1.021892    1.316479
  H      2.725203   -0.359985    2.102053
  H      3.646881    0.617466    0.949648
  H      4.043905   -1.332879   -1.328684
  H      3.311509    0.247588   -1.558913
  H      2.470826   -1.203368   -2.111594
  H     -2.461164    1.955825    0.597664
  H     -1.930183    2.321197   -1.045679
  H     -1.061378    2.984280    0.336419
  H      1.931700    2.319148    1.047122
  H      1.060102    2.985281   -0.331718
  H      2.459545    1.957660   -0.598085

----------------------------
CARTESIAN COORDINATES (A.U.)
----------------------------
  NO LB      ZA    FRAG     MASS         X           Y           Z
   0 N     7.0000    0    14.007   -2.063498   -0.716004   -0.051539
   1 C     6.0000    0    12.011    0.000192   -2.148800   -0.000972
   2 N     7.0000    0    14.007    2.063600   -0.715615    0.050704
   3 H     1.0000    0     1.008    0.000395   -4.174799   -0.001793
   4 C     6.0000    0    12.011    1.300016    1.763384    0.023030
   5 C     6.0000    0    12.011   -1.300458    1.763126   -0.021871
   6 C     6.0000    0    12.011   -4.610947   -1.795710   -0.075524
   7 C     6.0000    0    12.011    4.611219   -1.794970    0.073861
   8 C     6.0000    0    12.011   -5.861195   -1.501341    2.507419
   9 H     1.0000    0     1.008   -4.327723   -3.815513   -0.431617
  10 C     6.0000    0    12.011   -6.213649   -0.719082   -2.214593
  11 C     6.0000    0    12.011    6.213296   -0.720807    2.214592
  12 C     6.0000    0    12.011    5.862167   -1.497089   -2.508334
  13 H     1.0000    0     1.008    4.328177   -3.815263    0.427287
  14 C     6.0000    0    12.011    3.005241    3.988917    0.063410
  15 C     6.0000    0    12.011   -3.006035    3.988448   -0.060338
  16 H     1.0000    0     1.008   -6.255429    0.463146    2.948379
  17 H     1.0000    0     1.008   -4.668363   -2.281462    3.987847
  18 H     1.0000    0     1.008   -7.641547   -2.521882    2.508685
  19 H     1.0000    0     1.008   -6.893350    1.167400   -1.791548
  20 H     1.0000    0     1.008   -7.847893   -1.930106   -2.489969
  21 H     1.0000    0     1.008   -5.150098   -0.674858   -3.972142
  22 H     1.0000    0     1.008    7.848443   -1.931095    2.487784
  23 H     1.0000    0     1.008    5.149888   -0.680274    3.972305
  24 H     1.0000    0     1.008    6.891606    1.166841    1.794575
  25 H     1.0000    0     1.008    7.641874   -2.518776   -2.510849
  26 H     1.0000    0     1.008    6.257845    0.467873   -2.945918
  27 H     1.0000    0     1.008    4.669185   -2.274037   -3.990335
  28 H     1.0000    0     1.008   -4.650926    3.695973    1.129420
  29 H     1.0000    0     1.008   -3.647518    4.386427   -1.976048
  30 H     1.0000    0     1.008   -2.005713    5.639472    0.635740
  31 H     1.0000    0     1.008    3.650384    4.382555    1.978774
  32 H     1.0000    0     1.008    2.003303    5.641363   -0.626855
  33 H     1.0000    0     1.008    4.647867    3.699441   -1.130217

--------------------------------
INTERNAL COORDINATES (ANGSTROEM)
--------------------------------
 N      0   0   0     0.000000000000     0.00000000     0.00000000
 C      1   0   0     1.329728185795     0.00000000     0.00000000
 N      2   1   0     1.329735577189   110.46191351     0.00000000
 H      2   1   3     1.072112443599   124.76891128   180.00134159
 C      3   2   1     1.372729024247   107.64471946   359.77475663
 C      1   2   3     1.372722152449   107.64547551   359.77290200
 C      1   2   3     1.464190165287   122.26226265   180.96813456
 C      3   2   1     1.464196557422   122.25896741   180.96789255
 C      7   1   2     1.526505574856   110.57605580   105.27058436
 H      7   1   2     1.095617065820   104.84624915   348.83399679
 C      7   1   2     1.524856888833   111.88308632   231.74883946
 C      8   3   2     1.524839338476   111.88314861   231.77922034
 C      8   3   2     1.526503220619   110.57955312   105.30464535
 H      8   3   2     1.095614776702   104.84497536   348.86631881
 C      5   3   2     1.483813224707   125.40302573   179.98413634
 C      6   1   2     1.483823891575   125.40684752   179.98819940
 H      9   7   1     1.085661395433   111.92848600    67.67881500
 H      9   7   1     1.087469436521   110.77708282   306.21772278
 H      9   7   1     1.085930581919   109.01512799   187.11553990
 H     11   7   1     1.084461284962   112.03471094   283.13493092
 H     11   7   1     1.086188668816   108.78291164   163.98036531
 H     11   7   1     1.087336708847   110.80008432    45.32679553
 H     12   8   3     1.086185263926   108.78303751   164.02511382
 H     12   8   3     1.087331802408   110.80136910    45.37013923
 H     12   8   3     1.084455969016   112.03222864   283.17723326
 H     13   8   3     1.085936156402   109.01237369   187.16424010
 H     13   8   3     1.085667071064   111.92916714    67.73128964
 H     13   8   3     1.087479327233   110.77833293   306.26501834
 H     16   6   1     1.085359181126   111.51148331    40.33756365
 H     16   6   1     1.089620595853   110.83328317   279.33918782
 H     16   6   1     1.085916396658   109.71567150   159.93821893
 H     15   5   3     1.089614193957   110.83451441   279.48278430
 H     15   5   3     1.085899959273   109.71626632   160.08125873
 H     15   5   3     1.085363370339   111.50876812    40.47998365

---------------------------
INTERNAL COORDINATES (A.U.)
---------------------------
 N      0   0   0     0.000000000000     0.00000000     0.00000000
 C      1   0   0     2.512822103708     0.00000000     0.00000000
 N      2   1   0     2.512836071420   110.46191351     0.00000000
 H      2   1   3     2.025998903171   124.76891128   180.00134159
 C      3   2   1     2.594081911913   107.64471946   359.77475663
 C      1   2   3     2.594068926096   107.64547551   359.77290200
 C      1   2   3     2.766918420373   122.26226265   180.96813456
 C      3   2   1     2.766930499758   122.25896741   180.96789255
 C      7   1   2     2.884677478381   110.57605580   105.27058436
 H      7   1   2     2.070416202050   104.84624915   348.83399679
 C      7   1   2     2.881561913317   111.88308632   231.74883946
 C      8   3   2     2.881528747948   111.88314861   231.77922034
 C      8   3   2     2.884673029519   110.57955312   105.30464535
 H      8   3   2     2.070411876244   104.84497536   348.86631881
 C      5   3   2     2.804000628586   125.40302573   179.98413634
 C      6   1   2     2.804020786046   125.40684752   179.98819940
 H      9   7   1     2.051602711539   111.92848600    67.67881500
 H      9   7   1     2.055019414035   110.77708282   306.21772278
 H      9   7   1     2.052111400277   109.01512799   187.11553990
 H     11   7   1     2.049334831419   112.03471094   283.13493092
 H     11   7   1     2.052599113831   108.78291164   163.98036531
 H     11   7   1     2.054768595080   110.80008432    45.32679553
 H     12   8   3     2.052592679521   108.78303751   164.02511382
 H     12   8   3     2.054759323255   110.80136910    45.37013923
 H     12   8   3     2.049324785736   112.03222864   283.17723326
 H     13   8   3     2.052121934523   109.01237369   187.16424010
 H     13   8   3     2.051613436927   111.92916714    67.73128964
 H     13   8   3     2.055038104770   110.77833293   306.26501834
 H     16   6   1     2.051031609266   111.51148331    40.33756365
 H     16   6   1     2.059084516041   110.83328317   279.33918782
 H     16   6   1     2.052084594018   109.71567150   159.93821893
 H     15   5   3     2.059072418211   110.83451441   279.48278430
 H     15   5   3     2.052053531862   109.71626632   160.08125873
 H     15   5   3     2.051039525730   111.50876812    40.47998365

---------------------
BASIS SET INFORMATION
---------------------
There are 3 groups of distinct atoms

 Group   1 Type N   : 7s4p1d contracted to 3s2p1d pattern {511/31/1}
 Group   2 Type C   : 7s4p1d contracted to 3s2p1d pattern {511/31/1}
 Group   3 Type H   : 4s1p contracted to 2s1p pattern {31/1}

Atom   0N    basis set group =>   1
Atom   1C    basis set group =>   2
Atom   2N    basis set group =>   1
Atom   3H    basis set group =>   3
Atom   4C    basis set group =>   2
Atom   5C    basis set group =>   2
Atom   6C    basis set group =>   2
Atom   7C    basis set group =>   2
Atom   8C    basis set group =>   2
Atom   9H    basis set group =>   3
Atom  10C    basis set group =>   2
Atom  11C    basis set group =>   2
Atom  12C    basis set group =>   2
Atom  13H    basis set group =>   3
Atom  14C    basis set group =>   2
Atom  15C    basis set group =>   2
Atom  16H    basis set group =>   3
Atom  17H    basis set group =>   3
Atom  18H    basis set group =>   3
Atom  19H    basis set group =>   3
Atom  20H    basis set group =>   3
Atom  21H    basis set group =>   3
Atom  22H    basis set group =>   3
Atom  23H    basis set group =>   3
Atom  24H    basis set group =>   3
Atom  25H    basis set group =>   3
Atom  26H    basis set group =>   3
Atom  27H    basis set group =>   3
Atom  28H    basis set group =>   3
Atom  29H    basis set group =>   3
Atom  30H    basis set group =>   3
Atom  31H    basis set group =>   3
Atom  32H    basis set group =>   3
Atom  33H    basis set group =>   3
---------------------------------
AUXILIARY/J BASIS SET INFORMATION
---------------------------------
There are 3 groups of distinct atoms

 Group   1 Type N   : 12s5p4d2f1g contracted to 6s4p3d1f1g pattern {711111/2111/211/2/1}
 Group   2 Type C   : 12s5p4d2f1g contracted to 6s4p3d1f1g pattern {711111/2111/211/2/1}
 Group   3 Type H   : 5s2p1d contracted to 3s1p1d pattern {311/2/1}

Atom   0N    basis set group =>   1
Atom   1C    basis set group =>   2
Atom   2N    basis set group =>   1
Atom   3H    basis set group =>   3
Atom   4C    basis set group =>   2
Atom   5C    basis set group =>   2
Atom   6C    basis set group =>   2
Atom   7C    basis set group =>   2
Atom   8C    basis set group =>   2
Atom   9H    basis set group =>   3
Atom  10C    basis set group =>   2
Atom  11C    basis set group =>   2
Atom  12C    basis set group =>   2
Atom  13H    basis set group =>   3
Atom  14C    basis set group =>   2
Atom  15C    basis set group =>   2
Atom  16H    basis set group =>   3
Atom  17H    basis set group =>   3
Atom  18H    basis set group =>   3
Atom  19H    basis set group =>   3
Atom  20H    basis set group =>   3
Atom  21H    basis set group =>   3
Atom  22H    basis set group =>   3
Atom  23H    basis set group =>   3
Atom  24H    basis set group =>   3
Atom  25H    basis set group =>   3
Atom  26H    basis set group =>   3
Atom  27H    basis set group =>   3
Atom  28H    basis set group =>   3
Atom  29H    basis set group =>   3
Atom  30H    basis set group =>   3
Atom  31H    basis set group =>   3
Atom  32H    basis set group =>   3
Atom  33H    basis set group =>   3
------------------------------------------------------------------------------
                           ORCA GTO INTEGRAL CALCULATION
                           -- RI-GTO INTEGRALS CHOSEN --
------------------------------------------------------------------------------
------------------------------------------------------------------------------
                   ___                                                        
                  /   \      - P O W E R E D   B Y -                         
                 /     \                                                     
                 |  |  |   _    _      __       _____    __    __             
                 |  |  |  | |  | |    /  \     |  _  \  |  |  /  |          
                  \  \/   | |  | |   /    \    | | | |  |  | /  /          
                 / \  \   | |__| |  /  /\  \   | |_| |  |  |/  /          
                |  |  |   |  __  | /  /__\  \  |    /   |      \           
                |  |  |   | |  | | |   __   |  |    \   |  |\   \          
                \     /   | |  | | |  |  |  |  | |\  \  |  | \   \       
                 \___/    |_|  |_| |__|  |__|  |_| \__\ |__|  \__/        
                                                                              
                      - O R C A' S   B I G   F R I E N D -                    
                                      &                                       
                       - I N T E G R A L  F E E D E R -                       
                                                                              
 v1 FN, 2020, v2 2021                                                         
------------------------------------------------------------------------------


Reading SHARK input file 6_prot_aq_5.SHARKINP.tmp ... ok
----------------------
SHARK INTEGRAL PACKAGE
----------------------

Number of atoms                             ...     34
Number of basis functions                   ...    287
Number of shells                            ...    141
Maximum angular momentum                    ...      2
Integral batch strategy                     ... SHARK/LIBINT Hybrid
RI-J (if used) integral strategy            ... SPLIT-RIJ (Revised 2003 algorithm where possible)
Printlevel                                  ...      1
Contraction scheme used                     ... SEGMENTED contraction
Coulomb Range Separation                    ... NOT USED
Exchange Range Separation                   ... Long Range
   Mu parameter                             ...  0.300000
   Scaling (regular/separated)              ...  0.157706  0.842294
Finite Nucleus Model                        ... NOT USED
Auxiliary Coulomb fitting basis             ... AVAILABLE
   # of basis functions in Aux-J            ...    868
   # of shells in Aux-J                     ...    300
   Maximum angular momentum in Aux-J        ...      4
Auxiliary J/K fitting basis                 ... NOT available
Auxiliary Correlation fitting basis         ... NOT available
Auxiliary 'external' fitting basis          ... NOT available
Integral threshold                          ...     2.500000e-11
Primitive cut-off                           ...     2.500000e-12
Primitive pair pre-selection threshold      ...     2.500000e-12

Calculating pre-screening integrals         ... done (  0.1 sec) Dimension = 141
Organizing shell pair data                  ... done (  0.1 sec)
Shell pair information
Total number of shell pairs                 ...     10011
Shell pairs after pre-screening             ...      8612
Total number of primitive shell pairs       ...     34423
Primitive shell pairs kept                  ...     20721
          la=0 lb=0:   2974 shell pairs
          la=1 lb=0:   3257 shell pairs
          la=1 lb=1:    921 shell pairs
          la=2 lb=0:    883 shell pairs
          la=2 lb=1:    501 shell pairs
          la=2 lb=2:     76 shell pairs

Calculating one electron integrals          ... done (  0.1 sec)
Calculating RI/J V-Matrix + Cholesky decomp.... done (  0.0 sec)
Calculating Nuclear repulsion               ... done (  0.0 sec) ENN=    875.619669536834 Eh

SHARK setup successfully completed in   0.4 seconds

Maximum memory used throughout the entire GTOINT-calculation: 49.1 MB
-------------------------------------------------------------------------------
                                 ORCA SCF
-------------------------------------------------------------------------------

------------
SCF SETTINGS
------------
Hamiltonian:
 Density Functional     Method          .... DFT(GTOs)
 Exchange Functional    Exchange        .... WB97X
 Correlation Functional Correlation     .... WB97X
 Gradients option       PostSCFGGA      .... off
 Hybrid DFT is turned on
   Fraction HF Exchange ScalHFX         ....  0.157706
   Scaling of DF-GGA-X  ScalDFX         ....  0.000000
   Scaling of DF-GGA-C  ScalDFC         ....  1.000000
   Scaling of DF-LDA-C  ScalLDAC        ....  1.000000
   Perturbative correction              ....  0.000000
   Density functional embedding theory  .... OFF
 Long-range corrected/Screened/Range-Separated Hybrid DFT is turned on
   Amount of maximum screened exact exchange              ....  0.842294
   Range separation parameter mu (erf(mu*r12)/r12)        ....  0.300000
 RI-approximation to the Coulomb term is turned on
   Number of AuxJ basis functions       .... 868
   RIJ-COSX (HFX calculated with COS-X)).... on


General Settings:
 Integral files         IntName         .... 6_prot_aq_5
 Hartree-Fock type      HFTyp           .... RHF
 Total Charge           Charge          ....    1
 Multiplicity           Mult            ....    1
 Number of Electrons    NEL             ....  100
 Basis Dimension        Dim             ....  287
 Nuclear Repulsion      ENuc            ....    875.6196695368 Eh

Convergence Acceleration:
 DIIS                   CNVDIIS         .... on
   Start iteration      DIISMaxIt       ....     0
   Startup error        DIISStart       ....  0.200000
   # of expansion vecs  DIISMaxEq       ....     5
   Bias factor          DIISBfac        ....   1.050
   Max. coefficient     DIISMaxC        ....  10.000
 Trust-Rad. Augm. Hess. CNVTRAH         .... auto
   Auto Start mean grad. ratio tolernc. ....  1.125000
   Auto Start start iteration           ....    20
   Auto Start num. interpolation iter.  ....    10
   Max. Number of Micro iterations      ....    16
   Max. Number of Macro iterations      .... Maxiter - #DIIS iter
   Number of Davidson start vectors     ....     2
   Converg. threshold I  (grad. norm)   ....   1.000e-05
   Converg. threshold II (energy diff.) ....   1.000e-08
   Grad. Scal. Fac. for Micro threshold ....   0.100
   Minimum threshold for Micro iter.    ....   0.010
   NR start threshold (gradient norm)   ....   0.001
   Initial trust radius                 ....   0.400
   Minimum AH scaling param. (alpha)    ....   1.000
   Maximum AH scaling param. (alpha)    .... 1000.000
   Orbital update algorithm             .... Taylor
   White noise on init. David. guess    .... on
   Maximum white noise                  ....   0.010
   Quad. conv. algorithm                .... NR
 SOSCF                  CNVSOSCF        .... on
   Start iteration      SOSCFMaxIt      ....   150
   Startup grad/error   SOSCFStart      ....  0.001000
 Level Shifting         CNVShift        .... on
   Level shift para.    LevelShift      ....    0.2500
   Turn off err/grad.   ShiftErr        ....    0.0000
 Zerner damping         CNVZerner       .... off
 Static damping         CNVDamp         .... on
   Fraction old density DampFac         ....    0.8500
   Max. Damping (<1)    DampMax         ....    0.9800
   Min. Damping (>=0)   DampMin         ....    0.0000
   Turn off err/grad.   DampErr         ....    0.0300
 Fernandez-Rico         CNVRico         .... off

SCF Procedure:
 Maximum # iterations   MaxIter         ....   125
 SCF integral mode      SCFMode         .... Direct
   Integral package                     .... SHARK and LIBINT hybrid scheme
 Reset frequency        DirectResetFreq ....    20
 Integral Threshold     Thresh          ....  2.500e-11 Eh
 Primitive CutOff       TCut            ....  2.500e-12 Eh

Convergence Tolerance:
 Convergence Check Mode ConvCheckMode   .... Total+1el-Energy
 Convergence forced     ConvForced      .... 0
 Energy Change          TolE            ....  1.000e-08 Eh
 1-El. energy change                    ....  1.000e-05 Eh
 Orbital Gradient       TolG            ....  1.000e-05
 Orbital Rotation angle TolX            ....  1.000e-05
 DIIS Error             TolErr          ....  5.000e-07


Diagonalization of the overlap matrix:
Smallest eigenvalue                        ... 8.687e-04
Time for diagonalization                   ...    0.014 sec
Threshold for overlap eigenvalues          ... 1.000e-08
Number of eigenvalues below threshold      ... 0
Time for construction of square roots      ...    0.006 sec
Total time needed                          ...    0.020 sec

Time for model grid setup =    0.710 sec

------------------------------
INITIAL GUESS: MODEL POTENTIAL
------------------------------
Loading Hartree-Fock densities                     ... done
Calculating cut-offs                               ... done
Initializing the effective Hamiltonian             ... done
Setting up the integral package (SHARK)            ... done
Starting the Coulomb interaction                   ... done (   0.8 sec)
Reading the grid                                   ... done
Mapping shells                                     ... done
Starting the XC term evaluation                    ... done (   0.8 sec)
  promolecular density results
     # of electrons  =    100.987369989
     EX              =    -75.691075459
     EC              =     -3.355387700
     EX+EC           =    -79.046463159
Transforming the Hamiltonian                       ... done (   0.0 sec)
Diagonalizing the Hamiltonian                      ... done (   0.0 sec)
Back transforming the eigenvectors                 ... done (   0.0 sec)
Now organizing SCF variables                       ... done
                      ------------------
                      INITIAL GUESS DONE (   2.3 sec)
                      ------------------
-------------------
DFT GRID GENERATION
-------------------

General Integration Accuracy     IntAcc      ... 4.388
Radial Grid Type                 RadialGrid  ... OptM3 with GC (2021)
Angular Grid (max. ang.)         AngularGrid ... 4 (Lebedev-302)
Angular grid pruning method      GridPruning ... 4 (adaptive)
Weight generation scheme         WeightScheme... Becke
Basis function cutoff            BFCut       ... 1.0000e-11
Integration weight cutoff        WCut        ... 1.0000e-14
Angular grids for H and He will be reduced by one unit
Partially contracted basis set               ... off
Rotationally invariant grid construction     ... off

Total number of grid points                  ...   144175
Total number of batches                      ...     2271
Average number of points per batch           ...       63
Average number of grid points per atom       ...     4240
Time for grid setup =    2.608 sec

--------------------
COSX GRID GENERATION
--------------------

GRIDX 1
-------
General Integration Accuracy     IntAcc      ... 3.816
Radial Grid Type                 RadialGrid  ... OptM3 with GC (2021)
Angular Grid (max. ang.)         AngularGrid ... 1 (Lebedev-50)
Angular grid pruning method      GridPruning ... 4 (adaptive)
Weight generation scheme         WeightScheme... Becke
Basis function cutoff            BFCut       ... 1.0000e-11
Integration weight cutoff        WCut        ... 1.0000e-14
Angular grids for H and He will be reduced by one unit
Partially contracted basis set               ... on
Rotationally invariant grid construction     ... off

Total number of grid points                  ...    18446
Total number of batches                      ...      305
Average number of points per batch           ...       60
Average number of grid points per atom       ...      543
UseSFitting                                  ... on

GRIDX 2
-------
General Integration Accuracy     IntAcc      ... 4.020
Radial Grid Type                 RadialGrid  ... OptM3 with GC (2021)
Angular Grid (max. ang.)         AngularGrid ... 2 (Lebedev-110)
Angular grid pruning method      GridPruning ... 4 (adaptive)
Weight generation scheme         WeightScheme... Becke
Basis function cutoff            BFCut       ... 1.0000e-11
Integration weight cutoff        WCut        ... 1.0000e-14
Angular grids for H and He will be reduced by one unit
Partially contracted basis set               ... on
Rotationally invariant grid construction     ... off

Total number of grid points                  ...    38211
Total number of batches                      ...      619
Average number of points per batch           ...       61
Average number of grid points per atom       ...     1124
UseSFitting                                  ... on

GRIDX 3
-------
General Integration Accuracy     IntAcc      ... 4.338
Radial Grid Type                 RadialGrid  ... OptM3 with GC (2021)
Angular Grid (max. ang.)         AngularGrid ... 3 (Lebedev-194)
Angular grid pruning method      GridPruning ... 4 (adaptive)
Weight generation scheme         WeightScheme... Becke
Basis function cutoff            BFCut       ... 1.0000e-11
Integration weight cutoff        WCut        ... 1.0000e-14
Angular grids for H and He will be reduced by one unit
Partially contracted basis set               ... on
Rotationally invariant grid construction     ... off

Total number of grid points                  ...    82981
Total number of batches                      ...     1313
Average number of points per batch           ...       63
Average number of grid points per atom       ...     2441
UseSFitting                                  ... on

Time for X-Grid setup             =    3.367 sec


--------------------
CPCM SOLVATION MODEL
--------------------
CPCM parameters:
  Epsilon                                         ...      80.4000
  Refrac                                          ...       1.3300
  Rsolv                                           ...       1.3000
  Surface type                                    ... GAUSSIAN VDW
  Epsilon function type                           ...         CPCM
Radii:
 Radius for N  used is    3.5149 Bohr (=   1.8600 Ang.)
 Radius for C  used is    3.8550 Bohr (=   2.0400 Ang.)
 Radius for H  used is    2.4944 Bohr (=   1.3200 Ang.)
Calculating surface                               ...        done! (  0.0s)
GEPOL surface points                              ...         1767
GEPOL Volume                                      ...    1704.1723
GEPOL Surface-area                                ...     909.2432
Calculating surface distance matrix               ...        done! (  0.0s)
Performing Cholesky decomposition & store         ...        done! (  0.1s)
Overall time for CPCM initialization              ...                 0.1s
--------------
SCF ITERATIONS
--------------
ITER       Energy         Delta-E        Max-DP      RMS-DP      [F,P]     Damp
               ***  Starting incremental Fock matrix formation  ***
  0   -540.4104443442   0.000000000000 0.03339067  0.00063408  0.1523992 0.8500
  1   -540.4691212618  -0.058676917576 0.03004149  0.00059032  0.1226935 0.8500
                               ***Turning on DIIS***
  2   -540.5135508114  -0.044429549577 0.02351539  0.00048073  0.0941286 0.8500
  3   -540.5464422357  -0.032891424393 0.01471344  0.00034425  0.0713090 0.8500
  4   -540.5717275908  -0.025285355062 0.00990788  0.00026567  0.0567693 0.8500
  5   -540.5915805528  -0.019852961970 0.00754755  0.00021875  0.0469431 0.8500
  6   -540.6076792611  -0.016098708302 0.00612386  0.00018476  0.0394845 0.8500
  7   -540.6209764193  -0.013297158231 0.00522641  0.00015885  0.0334386 0.8500
  8   -540.6320813531  -0.011104933791 0.02970405  0.00091025  0.0282748 0.0000
  9   -540.6915420805  -0.059460727403 0.00138340  0.00003130  0.0011968 0.0000
                      *** Initiating the SOSCF procedure ***
                           *** Shutting down DIIS ***
                      *** Re-Reading the Fockian *** 
                      *** Removing any level shift *** 
ITER      Energy       Delta-E        Grad      Rot      Max-DP    RMS-DP
 10   -540.69156379  -0.0000217046  0.000175  0.000175  0.000421  0.000012
               *** Restarting incremental Fock matrix formation ***
 11   -540.69147758   0.0000862093  0.000078  0.000122  0.000342  0.000010
 12   -540.69147804  -0.0000004690  0.000074  0.000203  0.000190  0.000005
 13   -540.69147811  -0.0000000655  0.000014  0.000024  0.000050  0.000002
 14   -540.69147814  -0.0000000269  0.000006  0.000016  0.000010  0.000000
 15   -540.69147814  -0.0000000000  0.000003  0.000011  0.000007  0.000000
                  ***Gradient check signals convergence***
              ***Rediagonalizing the Fockian in SOSCF/NRSCF***

               *****************************************************
               *                     SUCCESS                       *
               *           SCF CONVERGED AFTER  16 CYCLES          *
               *****************************************************

Old exchange energy                            =    -25.378702996 Eh
New exchange energy                            =    -25.378697173 Eh
Exchange energy change after final integration =      0.000005823 Eh
Total energy after final integration           =   -540.691472320 Eh
Final COS-X integration done in                =    95.002 sec

----------------
TOTAL SCF ENERGY
----------------

Total Energy       :         -540.69147232 Eh          -14712.96295 eV

Components:
Nuclear Repulsion  :          875.61966954 Eh           23826.82254 eV
Electronic Energy  :        -1416.31114186 Eh          -38539.78549 eV
One Electron Energy:        -2449.51175104 Eh          -66654.60340 eV
Two Electron Energy:         1033.20060918 Eh           28114.81791 eV
Max COSX asymmetry :            0.00000450 Eh               0.00012 eV
CPCM Dielectric    :           -0.07396422 Eh              -2.01267 eV

Virial components:
Potential Energy   :        -1075.04841844 Eh          -29253.55469 eV
Kinetic Energy     :          534.35694612 Eh           14540.59173 eV
Virial Ratio       :            2.01185448


DFT components:
N(Alpha)           :       49.999974384656 electrons
N(Beta)            :       49.999974384656 electrons
N(Total)           :       99.999948769311 electrons
E(XC)              :      -55.662632238451 Eh       
DFET-embed. en.    :        0.000000000000 Eh       
CPCM Solvation Model Properties:
Surface-charge          :           -1.02335328
Charge-correction       :            0.00301599 Eh               0.08207 eV
Free-energy (cav+disp)  :  This term is not implemented in the current solvation scheme

---------------
SCF CONVERGENCE
---------------

  Last Energy change         ...   -5.5201e-09  Tolerance :   1.0000e-08
  Last MAX-Density change    ...    5.3291e-15  Tolerance :   1.0000e-07
  Last RMS-Density change    ...    4.5069e-17  Tolerance :   5.0000e-09
  Last Orbital Gradient      ...    6.6321e-07  Tolerance :   1.0000e-05
  Last Orbital Rotation      ...    2.4992e-06  Tolerance :   1.0000e-05

             **** THE GBW FILE WAS UPDATED (6_prot_aq_5.gbw) ****
             **** DENSITY 6_prot_aq_5.scfp WAS UPDATED ****
             **** ENERGY FILE WAS UPDATED (6_prot_aq_5.en.tmp) ****
             **** THE GBW FILE WAS UPDATED (6_prot_aq_5.gbw) ****
             **** DENSITY 6_prot_aq_5.scfp WAS UPDATED ****
----------------
ORBITAL ENERGIES
----------------

  NO   OCC          E(Eh)            E(eV) 
   0   2.0000     -14.503079      -394.6488 
   1   2.0000     -14.503056      -394.6482 
   2   2.0000     -10.372640      -282.2539 
   3   2.0000     -10.334597      -281.2187 
   4   2.0000     -10.334574      -281.2181 
   5   2.0000     -10.330214      -281.0994 
   6   2.0000     -10.329744      -281.0866 
   7   2.0000     -10.282040      -279.7885 
   8   2.0000     -10.281984      -279.7870 
   9   2.0000     -10.269453      -279.4460 
  10   2.0000     -10.269447      -279.4459 
  11   2.0000     -10.269405      -279.4447 
  12   2.0000     -10.269404      -279.4447 
  13   2.0000      -1.212552       -32.9952 
  14   2.0000      -1.097928       -29.8761 
  15   2.0000      -0.969370       -26.3779 
  16   2.0000      -0.943528       -25.6747 
  17   2.0000      -0.915751       -24.9188 
  18   2.0000      -0.873152       -23.7597 
  19   2.0000      -0.832113       -22.6429 
  20   2.0000      -0.823877       -22.4188 
  21   2.0000      -0.823341       -22.4042 
  22   2.0000      -0.795662       -21.6511 
  23   2.0000      -0.756743       -20.5920 
  24   2.0000      -0.716308       -19.4917 
  25   2.0000      -0.702477       -19.1154 
  26   2.0000      -0.647647       -17.6234 
  27   2.0000      -0.634158       -17.2563 
  28   2.0000      -0.619986       -16.8707 
  29   2.0000      -0.596794       -16.2396 
  30   2.0000      -0.573875       -15.6159 
  31   2.0000      -0.569869       -15.5069 
  32   2.0000      -0.558044       -15.1852 
  33   2.0000      -0.547880       -14.9086 
  34   2.0000      -0.539042       -14.6681 
  35   2.0000      -0.534724       -14.5506 
  36   2.0000      -0.533845       -14.5267 
  37   2.0000      -0.524175       -14.2635 
  38   2.0000      -0.512742       -13.9524 
  39   2.0000      -0.505116       -13.7449 
  40   2.0000      -0.499451       -13.5908 
  41   2.0000      -0.498595       -13.5675 
  42   2.0000      -0.491541       -13.3755 
  43   2.0000      -0.488596       -13.2954 
  44   2.0000      -0.471845       -12.8396 
  45   2.0000      -0.460578       -12.5330 
  46   2.0000      -0.452432       -12.3113 
  47   2.0000      -0.451960       -12.2985 
  48   2.0000      -0.407171       -11.0797 
  49   2.0000      -0.344569        -9.3762 
  50   0.0000       0.065916         1.7937 
  51   0.0000       0.102902         2.8001 
  52   0.0000       0.132916         3.6168 
  53   0.0000       0.148388         4.0378 
  54   0.0000       0.153766         4.1842 
  55   0.0000       0.169783         4.6200 
  56   0.0000       0.187211         5.0943 
  57   0.0000       0.189313         5.1515 
  58   0.0000       0.190622         5.1871 
  59   0.0000       0.200697         5.4612 
  60   0.0000       0.207558         5.6479 
  61   0.0000       0.213219         5.8020 
  62   0.0000       0.220241         5.9931 
  63   0.0000       0.231124         6.2892 
  64   0.0000       0.236042         6.4230 
  65   0.0000       0.237871         6.4728 
  66   0.0000       0.239907         6.5282 
  67   0.0000       0.248506         6.7622 
  68   0.0000       0.252389         6.8679 
  69   0.0000       0.254950         6.9375 
  70   0.0000       0.260454         7.0873 
  71   0.0000       0.264858         7.2072 
  72   0.0000       0.275248         7.4899 
  73   0.0000       0.280906         7.6439 
  74   0.0000       0.297466         8.0945 
  75   0.0000       0.300141         8.1672 
  76   0.0000       0.300987         8.1903 
  77   0.0000       0.317323         8.6348 
  78   0.0000       0.328420         8.9368 
  79   0.0000       0.332339         9.0434 
  80   0.0000       0.340229         9.2581 
  81   0.0000       0.349308         9.5052 
  82   0.0000       0.375427        10.2159 
  83   0.0000       0.386775        10.5247 
  84   0.0000       0.426898        11.6165 
  85   0.0000       0.445672        12.1274 
  86   0.0000       0.461832        12.5671 
  87   0.0000       0.485929        13.2228 
  88   0.0000       0.487697        13.2709 
  89   0.0000       0.499305        13.5868 
  90   0.0000       0.500644        13.6232 
  91   0.0000       0.517952        14.0942 
  92   0.0000       0.523621        14.2485 
  93   0.0000       0.534422        14.5424 
  94   0.0000       0.538189        14.6449 
  95   0.0000       0.550627        14.9833 
  96   0.0000       0.582428        15.8487 
  97   0.0000       0.595266        16.1980 
  98   0.0000       0.606651        16.5078 
  99   0.0000       0.629191        17.1211 
 100   0.0000       0.647090        17.6082 
 101   0.0000       0.652628        17.7589 
 102   0.0000       0.670244        18.2383 
 103   0.0000       0.670396        18.2424 
 104   0.0000       0.677904        18.4467 
 105   0.0000       0.683318        18.5940 
 106   0.0000       0.690352        18.7854 
 107   0.0000       0.711427        19.3589 
 108   0.0000       0.716212        19.4891 
 109   0.0000       0.729394        19.8478 
 110   0.0000       0.734956        19.9992 
 111   0.0000       0.747534        20.3414 
 112   0.0000       0.752592        20.4791 
 113   0.0000       0.754240        20.5239 
 114   0.0000       0.759439        20.6654 
 115   0.0000       0.762728        20.7549 
 116   0.0000       0.769729        20.9454 
 117   0.0000       0.771643        20.9975 
 118   0.0000       0.774432        21.0734 
 119   0.0000       0.780073        21.2269 
 120   0.0000       0.786930        21.4135 
 121   0.0000       0.788049        21.4439 
 122   0.0000       0.794578        21.6216 
 123   0.0000       0.798679        21.7332 
 124   0.0000       0.802632        21.8407 
 125   0.0000       0.804275        21.8854 
 126   0.0000       0.808429        21.9985 
 127   0.0000       0.813196        22.1282 
 128   0.0000       0.816196        22.2098 
 129   0.0000       0.825861        22.4728 
 130   0.0000       0.830598        22.6017 
 131   0.0000       0.833475        22.6800 
 132   0.0000       0.835349        22.7310 
 133   0.0000       0.841869        22.9084 
 134   0.0000       0.849394        23.1132 
 135   0.0000       0.860850        23.4249 
 136   0.0000       0.863894        23.5078 
 137   0.0000       0.874471        23.7956 
 138   0.0000       0.883578        24.0434 
 139   0.0000       0.897938        24.4341 
 140   0.0000       0.925793        25.1921 
 141   0.0000       0.933715        25.4077 
 142   0.0000       1.003406        27.3041 
 143   0.0000       1.031272        28.0623 
 144   0.0000       1.044012        28.4090 
 145   0.0000       1.074357        29.2347 
 146   0.0000       1.077188        29.3118 
 147   0.0000       1.108713        30.1696 
 148   0.0000       1.145891        31.1813 
 149   0.0000       1.151282        31.3280 
 150   0.0000       1.169769        31.8310 
 151   0.0000       1.176333        32.0096 
 152   0.0000       1.190893        32.4059 
 153   0.0000       1.227275        33.3959 
 154   0.0000       1.252858        34.0920 
 155   0.0000       1.257283        34.2124 
 156   0.0000       1.265750        34.4428 
 157   0.0000       1.302548        35.4441 
 158   0.0000       1.318953        35.8905 
 159   0.0000       1.331676        36.2367 
 160   0.0000       1.367175        37.2027 
 161   0.0000       1.400270        38.1033 
 162   0.0000       1.404187        38.2099 
 163   0.0000       1.422296        38.7026 
 164   0.0000       1.451826        39.5062 
 165   0.0000       1.473366        40.0923 
 166   0.0000       1.491457        40.5846 
 167   0.0000       1.514161        41.2024 
 168   0.0000       1.555327        42.3226 
 169   0.0000       1.583996        43.1027 
 170   0.0000       1.585222        43.1361 
 171   0.0000       1.623315        44.1726 
 172   0.0000       1.637796        44.5667 
 173   0.0000       1.640217        44.6326 
 174   0.0000       1.644790        44.7570 
 175   0.0000       1.651184        44.9310 
 176   0.0000       1.656721        45.0817 
 177   0.0000       1.661233        45.2045 
 178   0.0000       1.661943        45.2238 
 179   0.0000       1.695798        46.1450 
 180   0.0000       1.703821        46.3633 
 181   0.0000       1.748268        47.5728 
 182   0.0000       1.779064        48.4108 
 183   0.0000       1.785816        48.5945 
 184   0.0000       1.816817        49.4381 
 185   0.0000       1.817843        49.4660 
 186   0.0000       1.833064        49.8802 
 187   0.0000       1.836345        49.9695 
 188   0.0000       1.865201        50.7547 
 189   0.0000       1.871248        50.9192 
 190   0.0000       1.882217        51.2177 
 191   0.0000       1.885207        51.2991 
 192   0.0000       1.889647        51.4199 
 193   0.0000       1.905414        51.8490 
 194   0.0000       1.910377        51.9840 
 195   0.0000       1.911867        52.0246 
 196   0.0000       1.916864        52.1605 
 197   0.0000       1.919475        52.2316 
 198   0.0000       1.923532        52.3420 
 199   0.0000       1.940922        52.8152 
 200   0.0000       1.944463        52.9115 
 201   0.0000       1.951969        53.1158 
 202   0.0000       1.953798        53.1655 
 203   0.0000       1.964862        53.4666 
 204   0.0000       1.975171        53.7471 
 205   0.0000       1.977908        53.8216 
 206   0.0000       1.984309        53.9958 
 207   0.0000       1.990978        54.1773 
 208   0.0000       1.993473        54.2452 
 209   0.0000       2.010151        54.6990 
 210   0.0000       2.021312        55.0027 
 211   0.0000       2.031324        55.2751 
 212   0.0000       2.046596        55.6907 
 213   0.0000       2.048730        55.7488 
 214   0.0000       2.051559        55.8258 
 215   0.0000       2.075872        56.4873 
 216   0.0000       2.079197        56.5778 
 217   0.0000       2.088041        56.8185 
 218   0.0000       2.110231        57.4223 
 219   0.0000       2.139035        58.2061 
 220   0.0000       2.145385        58.3789 
 221   0.0000       2.173778        59.1515 
 222   0.0000       2.181518        59.3621 
 223   0.0000       2.201922        59.9173 
 224   0.0000       2.221497        60.4500 
 225   0.0000       2.253906        61.3319 
 226   0.0000       2.263307        61.5877 
 227   0.0000       2.287550        62.2474 
 228   0.0000       2.296849        62.5004 
 229   0.0000       2.338971        63.6466 
 230   0.0000       2.349615        63.9363 
 231   0.0000       2.360051        64.2202 
 232   0.0000       2.366187        64.3872 
 233   0.0000       2.368911        64.4613 
 234   0.0000       2.392911        65.1144 
 235   0.0000       2.435272        66.2671 
 236   0.0000       2.485693        67.6391 
 237   0.0000       2.487489        67.6880 
 238   0.0000       2.517080        68.4932 
 239   0.0000       2.519647        68.5631 
 240   0.0000       2.528318        68.7990 
 241   0.0000       2.538776        69.0836 
 242   0.0000       2.541051        69.1455 
 243   0.0000       2.554173        69.5026 
 244   0.0000       2.561560        69.7036 
 245   0.0000       2.588991        70.4500 
 246   0.0000       2.596082        70.6430 
 247   0.0000       2.606003        70.9130 
 248   0.0000       2.649210        72.0887 
 249   0.0000       2.655323        72.2550 
 250   0.0000       2.675882        72.8144 
 251   0.0000       2.691381        73.2362 
 252   0.0000       2.697754        73.4096 
 253   0.0000       2.700641        73.4882 
 254   0.0000       2.720343        74.0243 
 255   0.0000       2.746007        74.7226 
 256   0.0000       2.799729        76.1845 
 257   0.0000       2.818767        76.7025 
 258   0.0000       2.823204        76.8233 
 259   0.0000       2.843994        77.3890 
 260   0.0000       2.859429        77.8090 
 261   0.0000       2.888204        78.5920 
 262   0.0000       2.905639        79.0665 
 263   0.0000       2.926294        79.6285 
 264   0.0000       2.943057        80.0846 
 265   0.0000       2.968465        80.7760 
 266   0.0000       2.995859        81.5215 
 267   0.0000       2.996736        81.5453 
 268   0.0000       3.027786        82.3903 
 269   0.0000       3.034296        82.5674 
 270   0.0000       3.038679        82.6867 
 271   0.0000       3.046446        82.8980 
 272   0.0000       3.060541        83.2816 
 273   0.0000       3.080350        83.8206 
 274   0.0000       3.080719        83.8306 
 275   0.0000       3.088938        84.0543 
 276   0.0000       3.107075        84.5478 
 277   0.0000       3.110028        84.6282 
 278   0.0000       3.147417        85.6456 
 279   0.0000       3.150551        85.7308 
 280   0.0000       3.157442        85.9184 
 281   0.0000       3.165691        86.1428 
 282   0.0000       3.181926        86.5846 
 283   0.0000       3.329575        90.6023 
 284   0.0000       3.441047        93.6356 
 285   0.0000       3.528383        96.0122 
 286   0.0000       3.588802        97.6563 

                    ********************************
                    * MULLIKEN POPULATION ANALYSIS *
                    ********************************

-----------------------
MULLIKEN ATOMIC CHARGES
-----------------------
   0 N :   -0.168581
   1 C :    0.207591
   2 N :   -0.168586
   3 H :    0.117397
   4 C :   -0.104510
   5 C :   -0.104470
   6 C :   -0.065102
   7 C :   -0.065042
   8 C :    0.021427
   9 H :    0.071965
  10 C :    0.003739
  11 C :    0.003746
  12 C :    0.021364
  13 H :    0.071960
  14 C :    0.094995
  15 C :    0.094877
  16 H :    0.041394
  17 H :    0.047274
  18 H :    0.055521
  19 H :    0.039541
  20 H :    0.058550
  21 H :    0.052416
  22 H :    0.058530
  23 H :    0.052413
  24 H :    0.039548
  25 H :    0.055524
  26 H :    0.041401
  27 H :    0.047279
  28 H :    0.056086
  29 H :    0.075662
  30 H :    0.057206
  31 H :    0.075683
  32 H :    0.057092
  33 H :    0.056111
Sum of atomic charges:    1.0000000

--------------------------------
MULLIKEN REDUCED ORBITAL CHARGES
--------------------------------
  0 N s       :     3.379546  s :     3.379546
      pz      :     1.459663  p :     3.756025
      px      :     1.150752
      py      :     1.145610
      dz2     :     0.002368  d :     0.033011
      dxz     :     0.005330
      dyz     :     0.006767
      dx2y2   :     0.008046
      dxy     :     0.010500
  1 C s       :     3.090323  s :     3.090323
      pz      :     0.946525  p :     2.634059
      px      :     0.777609
      py      :     0.909925
      dz2     :     0.005170  d :     0.068028
      dxz     :     0.017072
      dyz     :     0.006227
      dx2y2   :     0.017217
      dxy     :     0.022342
  2 N s       :     3.379552  s :     3.379552
      pz      :     1.459654  p :     3.756024
      px      :     1.150773
      py      :     1.145597
      dz2     :     0.002368  d :     0.033010
      dxz     :     0.005329
      dyz     :     0.006767
      dx2y2   :     0.008044
      dxy     :     0.010502
  3 H s       :     0.857558  s :     0.857558
      pz      :     0.004610  p :     0.025046
      px      :     0.001373
      py      :     0.019062
  4 C s       :     3.098426  s :     3.098426
      pz      :     1.049634  p :     2.947717
      px      :     1.002635
      py      :     0.895448
      dz2     :     0.004521  d :     0.058367
      dxz     :     0.009345
      dyz     :     0.010504
      dx2y2   :     0.020095
      dxy     :     0.013903
  5 C s       :     3.098420  s :     3.098420
      pz      :     1.049643  p :     2.947684
      px      :     1.002733
      py      :     0.895308
      dz2     :     0.004520  d :     0.058367
      dxz     :     0.009342
      dyz     :     0.010508
      dx2y2   :     0.020098
      dxy     :     0.013898
  6 C s       :     3.113281  s :     3.113281
      pz      :     1.056442  p :     2.895449
      px      :     0.803242
      py      :     1.035765
      dz2     :     0.013850  d :     0.056372
      dxz     :     0.012606
      dyz     :     0.006749
      dx2y2   :     0.012731
      dxy     :     0.010437
  7 C s       :     3.113244  s :     3.113244
      pz      :     1.056414  p :     2.895425
      px      :     0.803205
      py      :     1.035806
      dz2     :     0.013856  d :     0.056374
      dxz     :     0.012609
      dyz     :     0.006740
      dx2y2   :     0.012737
      dxy     :     0.010432
  8 C s       :     2.977778  s :     2.977778
      pz      :     0.936704  p :     2.974308
      px      :     1.006764
      py      :     1.030841
      dz2     :     0.006579  d :     0.026487
      dxz     :     0.006208
      dyz     :     0.004009
      dx2y2   :     0.004829
      dxy     :     0.004861
  9 H s       :     0.906607  s :     0.906607
      pz      :     0.003839  p :     0.021429
      px      :     0.002199
      py      :     0.015391
 10 C s       :     2.988716  s :     2.988716
      pz      :     0.957086  p :     2.981284
      px      :     1.001765
      py      :     1.022433
      dz2     :     0.006463  d :     0.026261
      dxz     :     0.006705
      dyz     :     0.002628
      dx2y2   :     0.003797
      dxy     :     0.006669
 11 C s       :     2.988730  s :     2.988730
      pz      :     0.957012  p :     2.981261
      px      :     1.001756
      py      :     1.022493
      dz2     :     0.006474  d :     0.026263
      dxz     :     0.006704
      dyz     :     0.002618
      dx2y2   :     0.003807
      dxy     :     0.006659
 12 C s       :     2.977830  s :     2.977830
      pz      :     0.936728  p :     2.974320
      px      :     1.006745
      py      :     1.030847
      dz2     :     0.006587  d :     0.026486
      dxz     :     0.006214
      dyz     :     0.003991
      dx2y2   :     0.004829
      dxy     :     0.004866
 13 H s       :     0.906611  s :     0.906611
      pz      :     0.003833  p :     0.021429
      px      :     0.002199
      py      :     0.015397
 14 C s       :     2.886769  s :     2.886769
      pz      :     1.044060  p :     2.991247
      px      :     0.985610
      py      :     0.961577
      dz2     :     0.005690  d :     0.026990
      dxz     :     0.006391
      dyz     :     0.003685
      dx2y2   :     0.003441
      dxy     :     0.007783
 15 C s       :     2.886856  s :     2.886856
      pz      :     1.044061  p :     2.991278
      px      :     0.985584
      py      :     0.961633
      dz2     :     0.005685  d :     0.026989
      dxz     :     0.006370
      dyz     :     0.003712
      dx2y2   :     0.003444
      dxy     :     0.007778
 16 H s       :     0.933712  s :     0.933712
      pz      :     0.004530  p :     0.024894
      px      :     0.005353
      py      :     0.015010
 17 H s       :     0.928477  s :     0.928477
      pz      :     0.009637  p :     0.024249
      px      :     0.008170
      py      :     0.006442
 18 H s       :     0.919725  s :     0.919725
      pz      :     0.004109  p :     0.024753
      px      :     0.012940
      py      :     0.007705
 19 H s       :     0.935607  s :     0.935607
      pz      :     0.004574  p :     0.024852
      px      :     0.005978
      py      :     0.014300
 20 H s       :     0.916676  s :     0.916676
      pz      :     0.004683  p :     0.024774
      px      :     0.011542
      py      :     0.008550
 21 H s       :     0.923261  s :     0.923261
      pz      :     0.012241  p :     0.024323
      px      :     0.007258
      py      :     0.004824
 22 H s       :     0.916695  s :     0.916695
      pz      :     0.004678  p :     0.024775
      px      :     0.011550
      py      :     0.008547
 23 H s       :     0.923265  s :     0.923265
      pz      :     0.012241  p :     0.024322
      px      :     0.007257
      py      :     0.004823
 24 H s       :     0.935600  s :     0.935600
      pz      :     0.004566  p :     0.024852
      px      :     0.005973
      py      :     0.014313
 25 H s       :     0.919723  s :     0.919723
      pz      :     0.004110  p :     0.024753
      px      :     0.012933
      py      :     0.007710
 26 H s       :     0.933706  s :     0.933706
      pz      :     0.004522  p :     0.024894
      px      :     0.005356
      py      :     0.015015
 27 H s       :     0.928472  s :     0.928472
      pz      :     0.009650  p :     0.024248
      px      :     0.008170
      py      :     0.006428
 28 H s       :     0.918346  s :     0.918346
      pz      :     0.008973  p :     0.025567
      px      :     0.012080
      py      :     0.004515
 29 H s       :     0.899352  s :     0.899352
      pz      :     0.014443  p :     0.024986
      px      :     0.005789
      py      :     0.004754
 30 H s       :     0.917478  s :     0.917478
      pz      :     0.006351  p :     0.025316
      px      :     0.007186
      py      :     0.011779
 31 H s       :     0.899330  s :     0.899330
      pz      :     0.014440  p :     0.024987
      px      :     0.005802
      py      :     0.004745
 32 H s       :     0.917591  s :     0.917591
      pz      :     0.006330  p :     0.025317
      px      :     0.007195
      py      :     0.011793
 33 H s       :     0.918322  s :     0.918322
      pz      :     0.008996  p :     0.025567
      px      :     0.012059
      py      :     0.004512


                     *******************************
                     * LOEWDIN POPULATION ANALYSIS *
                     *******************************

----------------------
LOEWDIN ATOMIC CHARGES
----------------------
   0 N :    0.103801
   1 C :    0.117014
   2 N :    0.103796
   3 H :    0.059537
   4 C :   -0.006903
   5 C :   -0.006905
   6 C :    0.041671
   7 C :    0.041678
   8 C :   -0.048311
   9 H :    0.049181
  10 C :   -0.049611
  11 C :   -0.049604
  12 C :   -0.048317
  13 H :    0.049179
  14 C :   -0.046236
  15 C :   -0.046234
  16 H :    0.031096
  17 H :    0.034687
  18 H :    0.042641
  19 H :    0.031768
  20 H :    0.044358
  21 H :    0.036483
  22 H :    0.044356
  23 H :    0.036477
  24 H :    0.031767
  25 H :    0.042646
  26 H :    0.031092
  27 H :    0.034688
  28 H :    0.044122
  29 H :    0.051630
  30 H :    0.051347
  31 H :    0.051616
  32 H :    0.051338
  33 H :    0.044152

-------------------------------
LOEWDIN REDUCED ORBITAL CHARGES
-------------------------------
  0 N s       :     3.045080  s :     3.045080
      pz      :     1.385988  p :     3.774521
      px      :     1.191374
      py      :     1.197158
      dz2     :     0.004573  d :     0.076599
      dxz     :     0.008988
      dyz     :     0.013297
      dx2y2   :     0.021845
      dxy     :     0.027897
  1 C s       :     2.830913  s :     2.830913
      pz      :     0.968001  p :     2.892307
      px      :     0.900450
      py      :     1.023856
      dz2     :     0.011214  d :     0.159767
      dxz     :     0.035493
      dyz     :     0.009995
      dx2y2   :     0.043878
      dxy     :     0.059186
  2 N s       :     3.045085  s :     3.045085
      pz      :     1.385989  p :     3.774523
      px      :     1.191373
[...]
     76      -0.122111  -0.009722   0.017318   0.017006  -0.011508   0.000021
     77      -0.003743  -0.000433   0.000852   0.000448  -0.000329   0.000240
     78      -0.076286  -0.002129   0.001453   0.016625  -0.011730   0.000193
     79      -0.364491  -0.007502   0.000589   0.085110  -0.060878   0.000425
     80       0.061096   0.002341  -0.002527  -0.013098   0.009159  -0.000290
     81      -0.066001   0.002461  -0.009020   0.018424  -0.012720  -0.000491
     82      -0.033515   0.001247  -0.004638   0.009749  -0.006690  -0.000354
     83      -0.082075   0.003055  -0.011259   0.023159  -0.016008  -0.000567
     84       0.231087   0.130750   0.068307   0.308257   0.269208  -0.001464
     85       0.033056   0.017673   0.009317   0.038568   0.033229   0.000151
     86      -0.204082  -0.116246  -0.060777  -0.284784  -0.250067   0.001220
     87      -0.143582  -0.076090  -0.037646   0.021418   0.039573  -0.000724
     88       0.035876   0.017118   0.008395  -0.011882  -0.016043   0.000370
     89      -0.312030  -0.161598  -0.079926   0.063380   0.101900  -0.000863
     90      -0.101388  -0.011375  -0.005256   0.277835   0.299252   0.000298
     91      -0.163921  -0.016649  -0.007402   0.454599   0.487805   0.000149
     92      -0.037003  -0.002355  -0.000854   0.118064   0.125055   0.000112
     93       0.143738  -0.031815   0.077852   0.022002  -0.039682   0.000725
     94       0.035523  -0.007113   0.017231   0.011981  -0.015907   0.000369
     95       0.312197  -0.067527   0.165181   0.064710  -0.101993   0.000864
     96       0.101096  -0.004746   0.010670   0.279918  -0.297929  -0.000298
     97      -0.163412   0.007090  -0.015265  -0.457926   0.485571   0.000150
     98       0.036633  -0.001077   0.001867   0.118225  -0.123750  -0.000112
     99      -0.231394   0.052267  -0.136867   0.309011  -0.266909   0.001463
    100       0.032792  -0.006937   0.018376  -0.038232   0.032572   0.000153
    101       0.204501  -0.046474   0.121822  -0.285701   0.248122  -0.001219


-----------
IR SPECTRUM
-----------

 Mode   freq       eps      Int      T**2         TX        TY        TZ
       cm**-1   L/(mol*cm) km/mol    a.u.
----------------------------------------------------------------------------
  6:     42.68   0.000007    0.03  0.000049  (-0.005978 -0.000028 -0.003573)
  7:     51.03   0.000000    0.00  0.000001  ( 0.000153 -0.000972  0.000059)
  8:     99.26   0.000000    0.00  0.000000  ( 0.000005  0.000213  0.000103)
  9:    116.51   0.000111    0.56  0.000297  (-0.004333  0.000003 -0.016695)
 10:    170.33   0.000004    0.02  0.000007  (-0.000000 -0.002669 -0.000034)
 11:    190.28   0.000015    0.08  0.000025  ( 0.000640 -0.000435 -0.004942)
 12:    193.98   0.000046    0.23  0.000074  ( 0.000038  0.008590 -0.000259)
 13:    216.14   0.000003    0.01  0.000004  (-0.000006  0.002036 -0.000017)
 14:    229.18   0.000115    0.58  0.000156  (-0.001765 -0.000048 -0.012385)
 15:    235.99   0.000059    0.30  0.000077  (-0.000124  0.008800 -0.000153)
 16:    240.18   0.000030    0.15  0.000038  (-0.005466 -0.000157 -0.002917)
 17:    269.54   0.000005    0.02  0.000005  (-0.000015  0.002304  0.000125)
 18:    275.07   0.000815    4.12  0.000925  (-0.000300  0.000039 -0.030405)
 19:    284.92   0.000006    0.03  0.000007  ( 0.000002 -0.002537 -0.000255)
 20:    304.43   0.002007   10.14  0.002058  (-0.003567 -0.000027  0.045219)
 21:    332.05   0.000032    0.16  0.000030  (-0.000023  0.005485  0.000006)
 22:    342.02   0.000042    0.21  0.000038  (-0.003555 -0.000021  0.005061)
 23:    388.69   0.000324    1.64  0.000260  (-0.013815 -0.000002 -0.008344)
 24:    410.77   0.000376    1.90  0.000286  (-0.016416  0.000005  0.004031)
 25:    456.73   0.000402    2.03  0.000274  ( 0.000010  0.016565  0.000008)
 26:    487.81   0.000064    0.32  0.000041  (-0.000005 -0.006386  0.000006)
 27:    538.17   0.000243    1.23  0.000141  (-0.011787 -0.000001  0.001385)
 28:    600.19   0.000001    0.00  0.000000  (-0.000010  0.000511 -0.000002)
 29:    644.92   0.001365    6.90  0.000660  ( 0.025569  0.000005 -0.002581)
 30:    677.19   0.006196   31.31  0.002855  ( 0.004879 -0.000027  0.053213)
 31:    718.89   0.000008    0.04  0.000004  (-0.000005 -0.001888 -0.000010)
 32:    756.59   0.000146    0.74  0.000060  (-0.000004  0.007761  0.000010)
 33:    774.05   0.001173    5.93  0.000473  (-0.021098 -0.000009  0.005284)
 34:    875.54   0.002661   13.45  0.000948  ( 0.002752  0.000020 -0.030673)
 35:    917.57   0.001044    5.28  0.000355  (-0.000013  0.018847 -0.000002)
 36:    931.80   0.000425    2.15  0.000142  ( 0.011791  0.000010 -0.001774)
 37:    934.82   0.000052    0.26  0.000017  (-0.000346 -0.002710 -0.003121)
 38:    935.03   0.001397    7.06  0.000466  (-0.002498  0.000393 -0.021446)
 39:    963.70   0.000026    0.13  0.000008  (-0.000010 -0.002873  0.000123)
 40:    963.98   0.000296    1.50  0.000096  (-0.000494 -0.000024 -0.009777)
 41:    983.05   0.000598    3.02  0.000190  ( 0.000004 -0.013773 -0.000005)
 42:   1040.51   0.001580    7.99  0.000474  (-0.005493  0.000004 -0.021065)
 43:   1046.40   0.002691   13.60  0.000803  (-0.028170 -0.000010 -0.002997)
 44:   1069.34   0.000332    1.68  0.000097  (-0.000009  0.009837 -0.000035)
 45:   1085.17   0.003916   19.79  0.001126  ( 0.000009  0.033559  0.000016)
 46:   1135.10   0.010648   53.81  0.002927  ( 0.054070 -0.000013  0.001960)
 47:   1174.51   0.000006    0.03  0.000002  ( 0.000007 -0.001288 -0.000003)
 48:   1175.90   0.004423   22.35  0.001174  (-0.004415  0.000081 -0.033973)
 49:   1180.59   0.001226    6.19  0.000324  ( 0.000004  0.017998  0.000138)
 50:   1184.89   0.001722    8.70  0.000454  ( 0.021294  0.000028  0.000306)
 51:   1215.02   0.000398    2.01  0.000102  ( 0.000009 -0.010114 -0.000004)
 52:   1231.88   0.022358  112.99  0.005664  (-0.075259 -0.000008 -0.000144)
 53:   1279.75   0.018283   92.39  0.004458  (-0.066767 -0.000002 -0.000600)
 54:   1347.81   0.000089    0.45  0.000021  (-0.000041  0.004540 -0.000015)
 55:   1348.45   0.000170    0.86  0.000039  ( 0.004199  0.000252 -0.004661)
 56:   1349.49   0.002579   13.03  0.000596  ( 0.000080 -0.024421 -0.000059)
 57:   1370.46   0.012790   64.64  0.002912  (-0.053934 -0.000031  0.001887)
 58:   1400.43   0.000053    0.27  0.000012  (-0.000213  0.003402 -0.000510)
 59:   1401.08   0.009199   46.49  0.002049  ( 0.009187  0.000130  0.044322)
 60:   1402.68   0.000498    2.51  0.000111  (-0.000118  0.010510 -0.000448)
 61:   1405.54   0.000165    0.84  0.000037  ( 0.000805 -0.006005 -0.000104)
 62:   1406.62   0.006185   31.25  0.001372  ( 0.036367  0.000162 -0.007034)
 63:   1420.24   0.005265   26.61  0.001157  ( 0.033910 -0.000026 -0.002650)
 64:   1434.72   0.006176   31.21  0.001343  (-0.000018  0.036651  0.000078)
 65:   1444.06   0.004142   20.93  0.000895  ( 0.006601 -0.000023  0.029181)
 66:   1444.63   0.001119    5.65  0.000242  (-0.000218 -0.000113  0.015543)
 67:   1445.39   0.000036    0.18  0.000008  (-0.000057  0.002785  0.000009)
 68:   1448.72   0.002050   10.36  0.000442  ( 0.016212  0.000031 -0.013373)
 69:   1451.29   0.000055    0.28  0.000012  ( 0.000057  0.003446 -0.000174)
 70:   1454.28   0.001473    7.45  0.000316  ( 0.000023 -0.017781 -0.000027)
 71:   1460.44   0.000131    0.66  0.000028  (-0.000099  0.005288  0.000062)
 72:   1463.52   0.003091   15.62  0.000659  ( 0.018815  0.000107 -0.017469)
 73:   1465.89   0.000056    0.28  0.000012  (-0.002775 -0.000053  0.002053)
 74:   1469.30   0.008944   45.20  0.001900  (-0.000020  0.043585  0.000041)
 75:   1472.37   0.000285    1.44  0.000060  (-0.000103  0.005237 -0.005749)
 76:   1472.41   0.000441    2.23  0.000094  (-0.000023  0.009009  0.003520)
 77:   1518.82   0.000639    3.23  0.000131  (-0.000001  0.011457  0.000006)
 78:   1533.49   0.000519    2.62  0.000106  ( 0.010089 -0.000005 -0.001953)
 79:   1650.55   0.047092  237.98  0.008904  (-0.094357 -0.000010  0.000583)
 80:   1715.33   0.005987   30.25  0.001089  ( 0.000005 -0.033002 -0.000017)
 81:   3078.02   0.005535   27.97  0.000561  ( 0.004790 -0.000060 -0.023200)
 82:   3078.05   0.000100    0.50  0.000010  (-0.000631 -0.000536  0.003071)
 83:   3082.11   0.003028   15.30  0.000307  ( 0.011395 -0.000352  0.013288)
 84:   3082.17   0.000195    0.99  0.000020  (-0.000935 -0.004203 -0.001093)
 85:   3091.25   0.003827   19.34  0.000386  (-0.019617 -0.000045 -0.001231)
 86:   3092.90   0.001699    8.58  0.000171  (-0.000078  0.013091 -0.000005)
 87:   3128.39   0.000074    0.37  0.000007  (-0.000330  0.000816 -0.002572)
 88:   3128.50   0.002433   12.29  0.000243  (-0.000015 -0.015577 -0.000143)
 89:   3183.41   0.001906    9.63  0.000187  ( 0.006506  0.000069  0.012023)
 90:   3183.67   0.001848    9.34  0.000181  ( 0.000041 -0.013459  0.000060)
 91:   3185.17   0.002027   10.24  0.000199  (-0.000159 -0.000211 -0.014090)
 92:   3185.19   0.000061    0.31  0.000006  ( 0.000071 -0.001978  0.001449)
 93:   3186.14   0.005714   28.87  0.000560  ( 0.023229 -0.000018 -0.004477)
 94:   3186.29   0.000177    0.89  0.000017  (-0.000174 -0.004154  0.000055)
 95:   3189.65   0.000527    2.66  0.000052  ( 0.004090  0.000032  0.005900)
 96:   3190.70   0.005593   28.27  0.000547  (-0.000013  0.023389  0.000025)
 97:   3194.39   0.000838    4.23  0.000082  ( 0.003191 -0.007124 -0.004575)
 98:   3194.41   0.003734   18.87  0.000365  (-0.001201 -0.018982  0.001727)
 99:   3208.31   0.000939    4.74  0.000091  (-0.009347  0.000014  0.001987)
100:   3212.78   0.000124    0.63  0.000012  (-0.000027 -0.003466  0.000008)
101:   3297.65   0.010814   54.65  0.001023  (-0.000003  0.031990  0.000018)

* The epsilon (eps) is given for a Dirac delta lineshape.
** The dipole moment derivative (T) already includes vibrational overlap.

The first frequency considered to be a vibration is 6
The total number of vibrations considered is 96


--------------------------
THERMOCHEMISTRY AT 298.15K
--------------------------

Temperature         ... 298.15 K
Pressure            ... 1.00 atm
Total Mass          ... 181.30 AMU

Throughout the following assumptions are being made:
  (1) The electronic state is orbitally nondegenerate
  (2) There are no thermally accessible electronically excited states
  (3) Hindered rotations indicated by low frequency modes are not
      treated as such but are treated as vibrations and this may
      cause some error
  (4) All equations used are the standard statistical mechanics
      equations for an ideal gas
  (5) All vibrations are strictly harmonic

freq.      42.68  E(vib)   ...       0.53 
freq.      51.03  E(vib)   ...       0.52 
freq.      99.26  E(vib)   ...       0.46 
freq.     116.51  E(vib)   ...       0.44 
freq.     170.33  E(vib)   ...       0.38 
freq.     190.28  E(vib)   ...       0.36 
freq.     193.98  E(vib)   ...       0.36 
freq.     216.14  E(vib)   ...       0.34 
freq.     229.18  E(vib)   ...       0.32 
freq.     235.99  E(vib)   ...       0.32 
freq.     240.18  E(vib)   ...       0.31 
freq.     269.54  E(vib)   ...       0.29 
freq.     275.07  E(vib)   ...       0.28 
freq.     284.92  E(vib)   ...       0.28 
freq.     304.43  E(vib)   ...       0.26 
freq.     332.05  E(vib)   ...       0.24 
freq.     342.02  E(vib)   ...       0.23 
freq.     388.69  E(vib)   ...       0.20 
freq.     410.77  E(vib)   ...       0.19 
freq.     456.73  E(vib)   ...       0.16 
freq.     487.81  E(vib)   ...       0.15 
freq.     538.17  E(vib)   ...       0.12 
freq.     600.19  E(vib)   ...       0.10 
freq.     644.92  E(vib)   ...       0.09 
freq.     677.19  E(vib)   ...       0.08 
freq.     718.89  E(vib)   ...       0.07 
freq.     756.59  E(vib)   ...       0.06 
freq.     774.05  E(vib)   ...       0.05 
freq.     875.54  E(vib)   ...       0.04 
freq.     917.57  E(vib)   ...       0.03 
freq.     931.80  E(vib)   ...       0.03 
freq.     934.82  E(vib)   ...       0.03 
freq.     935.03  E(vib)   ...       0.03 
freq.     963.70  E(vib)   ...       0.03 
freq.     963.98  E(vib)   ...       0.03 
freq.     983.05  E(vib)   ...       0.02 
freq.    1040.51  E(vib)   ...       0.02 
freq.    1046.40  E(vib)   ...       0.02 
freq.    1069.34  E(vib)   ...       0.02 
freq.    1085.17  E(vib)   ...       0.02 
freq.    1135.10  E(vib)   ...       0.01 
freq.    1174.51  E(vib)   ...       0.01 
freq.    1175.90  E(vib)   ...       0.01 
freq.    1180.59  E(vib)   ...       0.01 
freq.    1184.89  E(vib)   ...       0.01 
freq.    1215.02  E(vib)   ...       0.01 
freq.    1231.88  E(vib)   ...       0.01 
freq.    1279.75  E(vib)   ...       0.01 
freq.    1347.81  E(vib)   ...       0.01 
freq.    1348.45  E(vib)   ...       0.01 
freq.    1349.49  E(vib)   ...       0.01 
freq.    1370.46  E(vib)   ...       0.01 
freq.    1400.43  E(vib)   ...       0.00 
freq.    1401.08  E(vib)   ...       0.00 
freq.    1402.68  E(vib)   ...       0.00 
freq.    1405.54  E(vib)   ...       0.00 
freq.    1406.62  E(vib)   ...       0.00 
freq.    1420.24  E(vib)   ...       0.00 
freq.    1434.72  E(vib)   ...       0.00 
freq.    1444.06  E(vib)   ...       0.00 
freq.    1444.63  E(vib)   ...       0.00 
freq.    1445.39  E(vib)   ...       0.00 
freq.    1448.72  E(vib)   ...       0.00 
freq.    1451.29  E(vib)   ...       0.00 
freq.    1454.28  E(vib)   ...       0.00 
freq.    1460.44  E(vib)   ...       0.00 
freq.    1463.52  E(vib)   ...       0.00 
freq.    1465.89  E(vib)   ...       0.00 
freq.    1469.30  E(vib)   ...       0.00 
freq.    1472.37  E(vib)   ...       0.00 
freq.    1472.41  E(vib)   ...       0.00 
freq.    1518.82  E(vib)   ...       0.00 
freq.    1533.49  E(vib)   ...       0.00 
freq.    1650.55  E(vib)   ...       0.00 
freq.    1715.33  E(vib)   ...       0.00 
freq.    3078.02  E(vib)   ...       0.00 
freq.    3078.05  E(vib)   ...       0.00 
freq.    3082.11  E(vib)   ...       0.00 
freq.    3082.17  E(vib)   ...       0.00 
freq.    3091.25  E(vib)   ...       0.00 
freq.    3092.90  E(vib)   ...       0.00 
freq.    3128.39  E(vib)   ...       0.00 
freq.    3128.50  E(vib)   ...       0.00 
freq.    3183.41  E(vib)   ...       0.00 
freq.    3183.67  E(vib)   ...       0.00 
freq.    3185.17  E(vib)   ...       0.00 
freq.    3185.19  E(vib)   ...       0.00 
freq.    3186.14  E(vib)   ...       0.00 
freq.    3186.29  E(vib)   ...       0.00 
freq.    3189.65  E(vib)   ...       0.00 
freq.    3190.70  E(vib)   ...       0.00 
freq.    3194.39  E(vib)   ...       0.00 
freq.    3194.41  E(vib)   ...       0.00 
freq.    3208.31  E(vib)   ...       0.00 
freq.    3212.78  E(vib)   ...       0.00 
freq.    3297.65  E(vib)   ...       0.00 

------------
INNER ENERGY
------------

The inner energy is: U= E(el) + E(ZPE) + E(vib) + E(rot) + E(trans)
    E(el)   - is the total energy from the electronic structure calculation
              = E(kin-el) + E(nuc-el) + E(el-el) + E(nuc-nuc)
    E(ZPE)  - the the zero temperature vibrational energy from the frequency calculation
    E(vib)  - the the finite temperature correction to E(ZPE) due to population
              of excited vibrational states
    E(rot)  - is the rotational thermal energy
    E(trans)- is the translational thermal energy

Summary of contributions to the inner energy U:
Electronic energy                ...   -540.70112560 Eh
Zero point energy                ...      0.31194783 Eh     195.75 kcal/mol
Thermal vibrational correction   ...      0.01226572 Eh       7.70 kcal/mol
Thermal rotational correction    ...      0.00141627 Eh       0.89 kcal/mol
Thermal translational correction ...      0.00141627 Eh       0.89 kcal/mol
-----------------------------------------------------------------------
Total thermal energy                   -540.37407951 Eh


Summary of corrections to the electronic energy:
(perhaps to be used in another calculation)
Total thermal correction                  0.01509826 Eh       9.47 kcal/mol
Non-thermal (ZPE) correction              0.31194783 Eh     195.75 kcal/mol
-----------------------------------------------------------------------
Total correction                          0.32704609 Eh     205.22 kcal/mol


--------
ENTHALPY
--------

The enthalpy is H = U + kB*T
                kB is Boltzmann's constant
Total free energy                 ...   -540.37407951 Eh 
Thermal Enthalpy correction       ...      0.00094421 Eh       0.59 kcal/mol
-----------------------------------------------------------------------
Total Enthalpy                    ...   -540.37313530 Eh


Note: Only C1 symmetry has been detected, increase convergence thresholds 
      if your molecule has a higher symmetry. Symmetry factor of 1.0 is   
      used for the rotational entropy correction. 
 

Note: Rotational entropy computed according to Herzberg 
Infrared and Raman Spectra, Chapter V,1, Van Nostrand Reinhold, 1945 
Point Group:  C1, Symmetry Number:   1  
Rotational constants in cm-1:     0.046397     0.016269     0.014366 

Vibrational entropy computed according to the QRRHO of S. Grimme
Chem.Eur.J. 2012 18 9955


-------
ENTROPY
-------

The entropy contributions are T*S = T*(S(el)+S(vib)+S(rot)+S(trans))
     S(el)   - electronic entropy
     S(vib)  - vibrational entropy
     S(rot)  - rotational entropy
     S(trans)- translational entropy
The entropies will be listed as multiplied by the temperature to get
units of energy

Electronic entropy                ...      0.00000000 Eh      0.00 kcal/mol
Vibrational entropy               ...      0.02105663 Eh     13.21 kcal/mol
Rotational entropy                ...      0.01490770 Eh      9.35 kcal/mol
Translational entropy             ...      0.01971392 Eh     12.37 kcal/mol
-----------------------------------------------------------------------
Final entropy term                ...      0.05567825 Eh     34.94 kcal/mol

In case the symmetry of your molecule has not been determined correctly
or in case you have a reason to use a different symmetry number we print 
out the resulting rotational entropy values for sn=1,12 :
 --------------------------------------------------------
|  sn= 1 | S(rot)=       0.01490770 Eh      9.35 kcal/mol|
|  sn= 2 | S(rot)=       0.01425324 Eh      8.94 kcal/mol|
|  sn= 3 | S(rot)=       0.01387041 Eh      8.70 kcal/mol|
|  sn= 4 | S(rot)=       0.01359879 Eh      8.53 kcal/mol|
|  sn= 5 | S(rot)=       0.01338810 Eh      8.40 kcal/mol|
|  sn= 6 | S(rot)=       0.01321595 Eh      8.29 kcal/mol|
|  sn= 7 | S(rot)=       0.01307041 Eh      8.20 kcal/mol|
|  sn= 8 | S(rot)=       0.01294433 Eh      8.12 kcal/mol|
|  sn= 9 | S(rot)=       0.01283312 Eh      8.05 kcal/mol|
|  sn=10 | S(rot)=       0.01273364 Eh      7.99 kcal/mol|
|  sn=11 | S(rot)=       0.01264365 Eh      7.93 kcal/mol|
|  sn=12 | S(rot)=       0.01256150 Eh      7.88 kcal/mol|
 --------------------------------------------------------


-------------------
GIBBS FREE ENERGY
-------------------

The Gibbs free energy is G = H - T*S

Total enthalpy                    ...   -540.37313530 Eh 
Total entropy correction          ...     -0.05567825 Eh    -34.94 kcal/mol
-----------------------------------------------------------------------
Final Gibbs free energy         ...   -540.42881356 Eh

For completeness - the Gibbs free energy minus the electronic energy
G-E(el)                           ...      0.27231205 Eh    170.88 kcal/mol


Timings for individual modules:

Sum of individual times         ...     7663.460 sec (= 127.724 min)
GTO integral calculation        ...        3.786 sec (=   0.063 min)   0.0 %
SCF iterations                  ...     3882.509 sec (=  64.708 min)  50.7 %
SCF Gradient evaluation         ...     1056.333 sec (=  17.606 min)  13.8 %
Geometry relaxation             ...        0.753 sec (=   0.013 min)   0.0 %
Analytical frequency calculation...     2720.079 sec (=  45.335 min)  35.5 %
                             ****ORCA TERMINATED NORMALLY****
TOTAL RUN TIME: 0 days 2 hours 7 minutes 44 seconds 875 msec
