
                                 *****************
                                 * O   R   C   A *
                                 *****************

                                            #,                                       
                                            ###                                      
                                            ####                                     
                                            #####                                    
                                            ######                                   
                                           ########,                                 
                                     ,,################,,,,,                         
                               ,,#################################,,                 
                          ,,##########################################,,             
                       ,#########################################, ''#####,          
                    ,#############################################,,   '####,        
                  ,##################################################,,,,####,       
                ,###########''''           ''''###############################       
              ,#####''   ,,,,##########,,,,          '''####'''          '####       
            ,##' ,,,,###########################,,,                        '##       
           ' ,,###''''                  '''############,,,                           
         ,,##''                                '''############,,,,        ,,,,,,###''
      ,#''                                            '''#######################'''  
     '                                                          ''''####''''         
             ,#######,   #######,   ,#######,      ##                                
            ,#'     '#,  ##    ##  ,#'     '#,    #''#        ######   ,####,        
            ##       ##  ##   ,#'  ##            #'  '#       #        #'  '#        
            ##       ##  #######   ##           ,######,      #####,   #    #        
            '#,     ,#'  ##    ##  '#,     ,#' ,#      #,         ##   #,  ,#        
             '#######'   ##     ##  '#######'  #'      '#     #####' # '####'        



                  #######################################################
                  #                        -***-                        #
                  #          Department of theory and spectroscopy      #
                  #    Directorship and core code : Frank Neese         #
                  #        Max Planck Institute fuer Kohlenforschung    #
                  #                Kaiser Wilhelm Platz 1               #
                  #                 D-45470 Muelheim/Ruhr               #
                  #                      Germany                        #
                  #                                                     #
                  #                  All rights reserved                #
                  #                        -***-                        #
                  #######################################################


                         Program Version 5.0.4 -  RELEASE  -


 With contributions from (in alphabetic order):
   Daniel Aravena         : Magnetic Suceptibility
   Michael Atanasov       : Ab Initio Ligand Field Theory (pilot matlab implementation)
   Alexander A. Auer      : GIAO ZORA, VPT2 properties, NMR spectrum
   Ute Becker             : Parallelization
   Giovanni Bistoni       : ED, misc. LED, open-shell LED, HFLD
   Martin Brehm           : Molecular dynamics
   Dmytro Bykov           : SCF Hessian
   Vijay G. Chilkuri      : MRCI spin determinant printing, contributions to CSF-ICE
   Dipayan Datta          : RHF DLPNO-CCSD density
   Achintya Kumar Dutta   : EOM-CC, STEOM-CC
   Dmitry Ganyushin       : Spin-Orbit,Spin-Spin,Magnetic field MRCI
   Miquel Garcia          : C-PCM and meta-GGA Hessian, CC/C-PCM, Gaussian charge scheme
   Yang Guo               : DLPNO-NEVPT2, F12-NEVPT2, CIM, IAO-localization
   Andreas Hansen         : Spin unrestricted coupled pair/coupled cluster methods
   Benjamin Helmich-Paris : MC-RPA, TRAH-SCF, COSX integrals
   Lee Huntington         : MR-EOM, pCC
   Robert Izsak           : Overlap fitted RIJCOSX, COSX-SCS-MP3, EOM
   Marcus Kettner         : VPT2
   Christian Kollmar      : KDIIS, OOCD, Brueckner-CCSD(T), CCSD density, CASPT2, CASPT2-K
   Simone Kossmann        : Meta GGA functionals, TD-DFT gradient, OOMP2, MP2 Hessian
   Martin Krupicka        : Initial AUTO-CI
   Lucas Lang             : DCDCAS
   Marvin Lechner         : AUTO-CI (C++ implementation), FIC-MRCC
   Dagmar Lenk            : GEPOL surface, SMD
   Dimitrios Liakos       : Extrapolation schemes; Compound Job, initial MDCI parallelization
   Dimitrios Manganas     : Further ROCIS development; embedding schemes
   Dimitrios Pantazis     : SARC Basis sets
   Anastasios Papadopoulos: AUTO-CI, single reference methods and gradients
   Taras Petrenko         : DFT Hessian,TD-DFT gradient, ASA, ECA, R-Raman, ABS, FL, XAS/XES, NRVS
   Peter Pinski           : DLPNO-MP2, DLPNO-MP2 Gradient
   Christoph Reimann      : Effective Core Potentials
   Marius Retegan         : Local ZFS, SOC
   Christoph Riplinger    : Optimizer, TS searches, QM/MM, DLPNO-CCSD(T), (RO)-DLPNO pert. Triples
   Tobias Risthaus        : Range-separated hybrids, TD-DFT gradient, RPA, STAB
   Michael Roemelt        : Original ROCIS implementation
   Masaaki Saitow         : Open-shell DLPNO-CCSD energy and density
   Barbara Sandhoefer     : DKH picture change effects
   Avijit Sen             : IP-ROCIS
   Kantharuban Sivalingam : CASSCF convergence, NEVPT2, FIC-MRCI
   Bernardo de Souza      : ESD, SOC TD-DFT
   Georgi Stoychev        : AutoAux, RI-MP2 NMR, DLPNO-MP2 response
   Willem Van den Heuvel  : Paramagnetic NMR
   Boris Wezisla          : Elementary symmetry handling
   Frank Wennmohs         : Technical directorship


 We gratefully acknowledge several colleagues who have allowed us to
 interface, adapt or use parts of their codes:
   Stefan Grimme, W. Hujo, H. Kruse, P. Pracht,  : VdW corrections, initial TS optimization,
                  C. Bannwarth, S. Ehlert          DFT functionals, gCP, sTDA/sTD-DF
   Ed Valeev, F. Pavosevic, A. Kumar             : LibInt (2-el integral package), F12 methods
   Garnet Chan, S. Sharma, J. Yang, R. Olivares  : DMRG
   Ulf Ekstrom                                   : XCFun DFT Library
   Mihaly Kallay                                 : mrcc  (arbitrary order and MRCC methods)
   Jiri Pittner, Ondrej Demel                    : Mk-CCSD
   Frank Weinhold                                : gennbo (NPA and NBO analysis)
   Christopher J. Cramer and Donald G. Truhlar   : smd solvation model
   Lars Goerigk                                  : TD-DFT with DH, B97 family of functionals
   V. Asgeirsson, H. Jonsson                     : NEB implementation
   FAccTs GmbH                                   : IRC, NEB, NEB-TS, DLPNO-Multilevel, CI-OPT
                                                   MM, QMMM, 2- and 3-layer-ONIOM, Crystal-QMMM,
                                                   LR-CPCM, SF, NACMEs, symmetry and pop. for TD-DFT,
                                                   nearIR, NL-DFT gradient (VV10), updates on ESD,
                                                   ML-optimized integration grids
   S Lehtola, MJT Oliveira, MAL Marques          : LibXC Library
   Liviu Ungur et al                             : ANISO software


 Your calculation uses the libint2 library for the computation of 2-el integrals
 For citations please refer to: http://libint.valeyev.net

 Your ORCA version has been built with support for libXC version: 5.1.0
 For citations please refer to: https://tddft.org/programs/libxc/

 This ORCA versions uses:
   CBLAS   interface :  Fast vector & matrix operations
   LAPACKE interface :  Fast linear algebra routines
   SCALAPACK package :  Parallel linear algebra routines
   Shared memory     :  Shared parallel matrices
   BLAS/LAPACK       :  OpenBLAS 0.3.15  USE64BITINT DYNAMIC_ARCH NO_AFFINITY SkylakeX SINGLE_THREADED
        Core in use  :  SkylakeX
   Copyright (c) 2011-2014, The OpenBLAS Project




***************************************
The coordinates will be read from file: 6_prot_aq_1.xyz
***************************************


Your calculation utilizes the atom-pairwise dispersion correction
based on tight binding partial charges (D4)
Cite in your paper:
E.Caldeweyher, C.Bannwarth, S.Grimme, J.Chem.Phys., (2017), 147, 034112.
E.Caldeweyher, S.Ehlert, A.Hansen, H.Neugebauer, S.Grimme, J.Chem.Phys., (2018), in progress.
   

XCFun DFT library Copyright 2009-2010 Ulf Ekstrom and contributors.
See http://admol.org/xcfun for more information.
This is free software; see the source code for copying conditions.
There is ABSOLUTELY NO WARRANTY; not even for MERCHANTABILITY or FITNESS FOR A PARTICULAR PURPOSE.
For details see the documentation.
Scientific users of this library should cite U. Ekstrom, L. Visscher, R. Bast, A. J. Thorvaldsen and K. Ruud;
J.Chem.Theor.Comp. 2010, DOI: 10.1021/ct100117s
XCFun Version 0.99 

================================================================================

----- Orbital basis set information -----
Your calculation utilizes the basis: def2-SVP
   F. Weigend and R. Ahlrichs, Phys. Chem. Chem. Phys. 7, 3297 (2005).

----- AuxJ basis set information -----
Your calculation utilizes the auxiliary basis: def2/J
   F. Weigend, Phys. Chem. Chem. Phys. 8, 1057 (2006).

================================================================================
                                        WARNINGS
                       Please study these warnings very carefully!
================================================================================


WARNING: Geometry Optimization
  ===> : Switching off AutoStart
         For restart on a previous wavefunction, please use MOREAD

INFO   : the flag for use of the SHARK integral package has been found!

================================================================================
                                       INPUT FILE
================================================================================
NAME = 6_prot_aq_1.inp
|  1> # ORCA 5.0.4 - /users/bwb16179/postgrad/2024_03/DFT_Crest_Conformers/Opt/prot/6_prot_aq_1.inp # write input file
|  2> # Basic Mode
|  3> #
|  4> ! Opt Freq wB97X Def2-SVP D4 SlowConv TightSCF Defgrid2 Def2/J RIJCOSX CPCM(Water)
|  5> 
|  6> 
|  7> 
|  8> %maxcore 4500
|  9> 
| 10> %geom
| 11> Maxiter 150
| 12> END
| 13> 
| 14> * xyzfile 1 1 6_prot_aq_1.xyz
| 15> 
| 16>                          ****END OF INPUT****
================================================================================

                       *****************************
                       * Geometry Optimization Run *
                       *****************************

Geometry optimization settings:
Update method            Update   .... BFGS
Choice of coordinates    CoordSys .... Z-matrix Internals
Initial Hessian          InHess   .... Almoef's Model

Convergence Tolerances:
Energy Change            TolE     ....  5.0000e-06 Eh
Max. Gradient            TolMAXG  ....  3.0000e-04 Eh/bohr
RMS Gradient             TolRMSG  ....  1.0000e-04 Eh/bohr
Max. Displacement        TolMAXD  ....  4.0000e-03 bohr
RMS Displacement         TolRMSD  ....  2.0000e-03 bohr
Strict Convergence                ....  False
------------------------------------------------------------------------------
                        ORCA OPTIMIZATION COORDINATE SETUP
------------------------------------------------------------------------------

The optimization will be done in new redundant internal coordinates
Making redundant internal coordinates   ...  (new redundants) done
Evaluating the initial hessian          ...  (Almloef) done
Evaluating the coordinates              ...  done
Calculating the B-matrix                .... done
Calculating the G-matrix                .... done
Diagonalizing the G-matrix              .... done
Small eigenvalue found = 1.096e-02
Small eigenvalue found = 2.008e-02
Small eigenvalue found = 2.569e-02
The first mode is                       ....   81
The number of degrees of freedom        ....   96

    -----------------------------------------------------------------
                    Redundant Internal Coordinates


    -----------------------------------------------------------------
         Definition                    Initial Value    Approx d2E/dq
    -----------------------------------------------------------------
      1. B(C   1,N   0)                  1.3293         0.699449   
      2. B(N   2,C   1)                  1.3293         0.699456   
      3. B(H   3,C   1)                  1.0698         0.387797   
      4. B(C   4,N   2)                  1.3729         0.595929   
      5. B(C   5,C   4)                  1.3731         0.664781   
      6. B(C   5,N   0)                  1.3729         0.595927   
      7. B(C   6,N   0)                  1.4595         0.433479   
      8. B(C   7,N   2)                  1.4595         0.433502   
      9. B(C   8,C   6)                  1.5247         0.380915   
     10. B(H   9,C   6)                  1.0929         0.356268   
     11. B(C  10,C   6)                  1.5271         0.377556   
     12. B(C  11,C   7)                  1.5271         0.377547   
     13. B(C  12,C   7)                  1.5247         0.380891   
     14. B(H  13,C   7)                  1.0929         0.356282   
     15. B(C  14,C   4)                  1.4826         0.444555   
     16. B(C  15,C   5)                  1.4826         0.444553   
     17. B(H  16,C   8)                  1.0875         0.363481   
     18. B(H  17,C   8)                  1.0860         0.365466   
     19. B(H  18,C   8)                  1.0865         0.364724   
     20. B(H  19,C  10)                  1.0873         0.363643   
     21. B(H  20,C  10)                  1.0856         0.365935   
     22. B(H  21,C  10)                  1.0873         0.363649   
     23. B(H  22,C  11)                  1.0873         0.363627   
     24. B(H  23,C  11)                  1.0873         0.363637   
     25. B(H  24,C  11)                  1.0856         0.365927   
     26. B(H  25,C  12)                  1.0860         0.365469   
     27. B(H  26,C  12)                  1.0865         0.364714   
     28. B(H  27,C  12)                  1.0875         0.363476   
     29. B(H  28,C  15)                  1.0851         0.366623   
     30. B(H  29,C  15)                  1.0887         0.361767   
     31. B(H  30,C  15)                  1.0897         0.360556   
     32. B(H  31,C  14)                  1.0897         0.360563   
     33. B(H  32,C  14)                  1.0851         0.366618   
     34. B(H  33,C  14)                  1.0888         0.361745   
     35. A(C   5,N   0,C   6)          126.2139         0.399209   
     36. A(C   1,N   0,C   6)          125.4786         0.410662   
     37. A(C   1,N   0,C   5)          108.2557         0.434688   
     38. A(N   0,C   1,H   3)          125.1879         0.362528   
     39. A(N   2,C   1,H   3)          125.1878         0.362528   
     40. A(N   0,C   1,N   2)          109.6243         0.447452   
     41. A(C   4,N   2,C   7)          126.2184         0.399213   
     42. A(C   1,N   2,C   4)          108.2562         0.434689   
     43. A(C   1,N   2,C   7)          125.4720         0.410666   
     44. A(C   5,C   4,C  14)          129.9996         0.414132   
     45. A(N   2,C   4,C   5)          106.9304         0.433569   
     46. A(N   2,C   4,C  14)          123.0697         0.403574   
     47. A(N   0,C   5,C   4)          106.9309         0.433569   
     48. A(N   0,C   5,C  15)          123.0687         0.403574   
     49. A(C   4,C   5,C  15)          130.0000         0.414131   
     50. A(C   8,C   6,H   9)          108.9519         0.324786   
     51. A(N   0,C   6,H   9)          106.5208         0.329789   
     52. A(N   0,C   6,C  10)          109.2546         0.371085   
     53. A(N   0,C   6,C   8)          110.7303         0.371651   
     54. A(H   9,C   6,C  10)          109.4040         0.324314   
     55. A(C   8,C   6,C  10)          111.8298         0.365224   
     56. A(C  12,C   7,H  13)          108.9540         0.324785   
     57. A(C  11,C   7,H  13)          109.4016         0.324314   
     58. A(N   2,C   7,H  13)          106.5239         0.329794   
     59. A(C  11,C   7,C  12)          111.8346         0.365219   
     60. A(N   2,C   7,C  12)          110.7292         0.371651   
     61. A(N   2,C   7,C  11)          109.2480         0.371087   
     62. A(H  16,C   8,H  17)          108.1377         0.291945   
     63. A(C   6,C   8,H  16)          110.9419         0.325858   
     64. A(C   6,C   8,H  17)          109.1226         0.326150   
     65. A(C   6,C   8,H  18)          111.6418         0.326041   
     66. A(H  17,C   8,H  18)          107.7428         0.292102   
     67. A(H  16,C   8,H  18)          109.1380         0.291852   
     68. A(H  19,C  10,H  21)          108.6667         0.291737   
     69. A(C   6,C  10,H  21)          111.0809         0.325408   
     70. A(H  19,C  10,H  20)          108.3819         0.292024   
     71. A(C   6,C  10,H  20)          109.5453         0.325744   
     72. A(H  20,C  10,H  21)          108.3257         0.292025   
     73. A(C   6,C  10,H  19)          110.7645         0.325407   
     74. A(H  23,C  11,H  24)          108.3802         0.292023   
     75. A(H  22,C  11,H  24)          108.3258         0.292022   
     76. A(C   7,C  11,H  24)          109.5481         0.325741   
     77. A(H  22,C  11,H  23)          108.6666         0.291733   
     78. A(C   7,C  11,H  23)          110.7664         0.325405   
     79. A(C   7,C  11,H  22)          111.0779         0.325404   
     80. A(H  26,C  12,H  27)          109.1354         0.291850   
     81. A(H  25,C  12,H  27)          108.1377         0.291945   
     82. A(C   7,C  12,H  27)          110.9425         0.325854   
     83. A(H  25,C  12,H  26)          107.7449         0.292101   
     84. A(C   7,C  12,H  26)          111.6424         0.326036   
     85. A(C   7,C  12,H  25)          109.1219         0.326147   
     86. A(H  31,C  14,H  33)          108.3565         0.291106   
     87. A(C   4,C  14,H  33)          111.0170         0.334021   
     88. A(H  31,C  14,H  32)          108.1237         0.291720   
     89. A(C   4,C  14,H  32)          110.0949         0.334765   
     90. A(C   4,C  14,H  31)          110.9221         0.333840   
     91. A(H  32,C  14,H  33)          108.2303         0.291870   
     92. A(H  29,C  15,H  30)          108.3554         0.291108   
     93. A(H  28,C  15,H  30)          108.1221         0.291719   
     94. A(C   5,C  15,H  30)          110.9217         0.333839   
     95. A(H  28,C  15,H  29)          108.2319         0.291873   
     96. A(C   5,C  15,H  29)          111.0180         0.334024   
     97. A(C   5,C  15,H  28)          110.0954         0.334765   
     98. D(H   3,C   1,N   0,C   6)      2.3244         0.040478   
     99. D(H   3,C   1,N   0,C   5)    179.8374         0.040478   
    100. D(N   2,C   1,N   0,C   6)   -177.6758         0.040478   
    101. D(N   2,C   1,N   0,C   5)     -0.1628         0.040478   
    102. D(C   7,N   2,C   1,N   0)   -177.6311         0.040479   
    103. D(C   7,N   2,C   1,H   3)      2.3687         0.040479   
    104. D(C   4,N   2,C   1,H   3)    179.8440         0.040479   
    105. D(C   4,N   2,C   1,N   0)     -0.1558         0.040479   
    106. D(C  14,C   4,N   2,C   1)   -179.7969         0.028588   
    107. D(C   5,C   4,N   2,C   1)      0.4100         0.028588   
    108. D(C  14,C   4,N   2,C   7)     -2.3455         0.028588   
    109. D(C   5,C   4,N   2,C   7)    177.8614         0.028588   
    110. D(C  15,C   5,N   0,C   1)   -179.7975         0.028588   
    111. D(C   4,C   5,N   0,C   6)    177.9040         0.028588   
    112. D(C   4,C   5,N   0,C   1)      0.4142         0.028588   
    113. D(C  15,C   5,C   4,C  14)     -0.0424         0.030871   
    114. D(C  15,C   5,C   4,N   2)    179.7313         0.030871   
    115. D(N   0,C   5,C   4,C  14)    179.7259         0.030871   
    116. D(N   0,C   5,C   4,N   2)     -0.5003         0.030871   
    117. D(C  15,C   5,N   0,C   6)     -2.3077         0.028588   
    118. D(C  10,C   6,N   0,C   5)    -98.6389         0.016021   
    119. D(C  10,C   6,N   0,C   1)     78.4334         0.016021   
    120. D(H   9,C   6,N   0,C   5)     19.4391         0.016021   
    121. D(H   9,C   6,N   0,C   1)   -163.4886         0.016021   
    122. D(C   8,C   6,N   0,C   5)    137.7638         0.016021   
    123. D(C   8,C   6,N   0,C   1)    -45.1638         0.016021   
    124. D(C  12,C   7,N   2,C   4)    137.6544         0.016022   
    125. D(C  11,C   7,N   2,C   4)    -98.7476         0.016022   
    126. D(C  11,C   7,N   2,C   1)     78.2802         0.016022   
    127. D(H  13,C   7,N   2,C   1)   -163.6464         0.016022   
    128. D(C  12,C   7,N   2,C   1)    -45.3179         0.016022   
    129. D(H  13,C   7,N   2,C   4)     19.3259         0.016022   
    130. D(H  18,C   8,C   6,C  10)    -50.4325         0.011561   
    131. D(H  18,C   8,C   6,H   9)   -171.4939         0.011561   
    132. D(H  18,C   8,C   6,N   0)     71.6701         0.011561   
    133. D(H  17,C   8,C   6,C  10)     68.5521         0.011561   
    134. D(H  17,C   8,C   6,N   0)   -169.3453         0.011561   
    135. D(H  16,C   8,C   6,C  10)   -172.4041         0.011561   
    136. D(H  16,C   8,C   6,H   9)     66.5345         0.011561   
    137. D(H  16,C   8,C   6,N   0)    -50.3015         0.011561   
    138. D(H  17,C   8,C   6,H   9)    -52.5092         0.011561   
    139. D(H  21,C  10,C   6,H   9)    -59.3851         0.011369   
    140. D(H  21,C  10,C   6,C   8)    179.8159         0.011369   
    141. D(H  21,C  10,C   6,N   0)     56.8713         0.011369   
    142. D(H  20,C  10,C   6,H   9)     60.2468         0.011369   
    143. D(H  20,C  10,C   6,C   8)    -60.5521         0.011369   
    144. D(H  20,C  10,C   6,N   0)    176.5032         0.011369   
    145. D(H  19,C  10,C   6,H   9)    179.7506         0.011369   
    146. D(H  19,C  10,C   6,C   8)     58.9516         0.011369   
    147. D(H  19,C  10,C   6,N   0)    -63.9931         0.011369   
    148. D(H  24,C  11,C   7,C  12)    -60.6482         0.011368   
    149. D(H  24,C  11,C   7,N   2)    176.4100         0.011368   
    150. D(H  23,C  11,C   7,H  13)    179.6595         0.011368   
    151. D(H  23,C  11,C   7,C  12)     58.8564         0.011368   
    152. D(H  23,C  11,C   7,N   2)    -64.0854         0.011368   
    153. D(H  22,C  11,C   7,H  13)    -59.4771         0.011368   
    154. D(H  22,C  11,C   7,C  12)    179.7199         0.011368   
    155. D(H  24,C  11,C   7,H  13)     60.1549         0.011368   
    156. D(H  22,C  11,C   7,N   2)     56.7780         0.011368   
    157. D(H  26,C  12,C   7,N   2)     71.6802         0.011560   
    158. D(H  25,C  12,C   7,H  13)    -52.4922         0.011560   
    159. D(H  25,C  12,C   7,C  11)     68.5706         0.011560   
    160. D(H  25,C  12,C   7,N   2)   -169.3326         0.011560   
    161. D(H  27,C  12,C   7,H  13)     66.5515         0.011560   
    162. D(H  27,C  12,C   7,C  11)   -172.3857         0.011560   
    163. D(H  27,C  12,C   7,N   2)    -50.2889         0.011560   
    164. D(H  26,C  12,C   7,H  13)   -171.4793         0.011560   
    165. D(H  26,C  12,C   7,C  11)    -50.4165         0.011560   
    166. D(H  33,C  14,C   4,C   5)   -122.8001         0.014578   
    167. D(H  33,C  14,C   4,N   2)     57.4582         0.014578   
    168. D(H  32,C  14,C   4,C   5)     -2.9709         0.014578   
    169. D(H  32,C  14,C   4,N   2)    177.2874         0.014578   
    170. D(H  31,C  14,C   4,C   5)    116.6646         0.014578   
    171. D(H  31,C  14,C   4,N   2)    -63.0771         0.014578   
    172. D(H  30,C  15,C   5,C   4)    116.5430         0.014578   
    173. D(H  30,C  15,C   5,N   0)    -63.1926         0.014578   
    174. D(H  29,C  15,C   5,C   4)   -122.9226         0.014578   
    175. D(H  29,C  15,C   5,N   0)     57.3418         0.014578   
    176. D(H  28,C  15,C   5,C   4)     -3.0905         0.014578   
    177. D(H  28,C  15,C   5,N   0)    177.1739         0.014578   
    -----------------------------------------------------------------

Number of atoms                         .... 34
Number of degrees of freedom            .... 177

         *************************************************************
         *                GEOMETRY OPTIMIZATION CYCLE   1            *
         *************************************************************
---------------------------------
CARTESIAN COORDINATES (ANGSTROEM)
---------------------------------
  N     -1.082404   -0.038776   -0.091613
  C      0.000211   -0.804592    0.000283
  N      1.082596   -0.038396    0.091692
  H      0.000372   -1.874421    0.000620
  C      0.684304    1.274896    0.054012
  C     -0.684507    1.274656   -0.054608
  C     -2.458137   -0.521401   -0.159574
  C      2.458460   -0.520689    0.159025
  C     -2.575054   -1.681973   -1.141470
  H     -3.062733    0.313346   -0.523056
  C     -2.924091   -0.913313    1.240915
  C      2.922432   -0.916025   -1.241167
  C      2.576800   -1.678775    1.143710
  H      3.063499    0.315019    0.519514
  C      1.634198    2.410844    0.128636
  C     -1.634754    2.410264   -0.129922
  H     -2.118184   -1.431145   -2.095889
  H     -3.625347   -1.896391   -1.315396
  H     -2.112939   -2.584766   -0.751656
  H     -2.339026   -1.746495    1.622759
  H     -3.966485   -1.214586    1.205830
  H     -2.832582   -0.078410    1.931459
  H      2.828288   -0.083281   -1.933984
  H      2.337991   -1.751259   -1.619480
  H      3.965372   -1.215551   -1.207185
  H      3.627346   -1.892493    1.316945
  H      2.114412   -2.582656    0.756729
  H      2.120979   -1.425667    2.098033
  H     -1.101105    3.350038   -0.032387
  H     -2.374255    2.354155    0.667167
  H     -2.159385    2.415947   -1.084951
  H      2.160379    2.416034    1.082808
  H      1.099994    3.350466    0.032639
  H      2.372419    2.355635   -0.669723

----------------------------
CARTESIAN COORDINATES (A.U.)
----------------------------
  NO LB      ZA    FRAG     MASS         X           Y           Z
   0 N     7.0000    0    14.007   -2.045448   -0.073275   -0.173124
   1 C     6.0000    0    12.011    0.000399   -1.520459    0.000535
   2 N     7.0000    0    14.007    2.045809   -0.072557    0.173273
   3 H     1.0000    0     1.008    0.000702   -3.542143    0.001171
   4 C     6.0000    0    12.011    1.293147    2.409204    0.102068
   5 C     6.0000    0    12.011   -1.293532    2.408750   -0.103193
   6 C     6.0000    0    12.011   -4.645206   -0.985305   -0.301550
   7 C     6.0000    0    12.011    4.645815   -0.983960    0.300513
   8 C     6.0000    0    12.011   -4.866148   -3.178469   -2.157066
   9 H     1.0000    0     1.008   -5.787726    0.592138   -0.988433
  10 C     6.0000    0    12.011   -5.525732   -1.725912    2.344990
  11 C     6.0000    0    12.011    5.522597   -1.731037   -2.345466
  12 C     6.0000    0    12.011    4.869445   -3.172425    2.161299
  13 H     1.0000    0     1.008    5.789175    0.595299    0.981740
  14 C     6.0000    0    12.011    3.088186    4.555834    0.243088
  15 C     6.0000    0    12.011   -3.089237    4.554739   -0.245517
  16 H     1.0000    0     1.008   -4.002787   -2.704472   -3.960656
  17 H     1.0000    0     1.008   -6.850913   -3.583659   -2.485739
  18 H     1.0000    0     1.008   -3.992875   -4.884500   -1.420425
  19 H     1.0000    0     1.008   -4.420119   -3.300397    3.066569
  20 H     1.0000    0     1.008   -7.495570   -2.295236    2.278689
  21 H     1.0000    0     1.008   -5.352804   -0.148173    3.649928
  22 H     1.0000    0     1.008    5.344689   -0.157378   -3.654700
  23 H     1.0000    0     1.008    4.418162   -3.309399   -3.060374
  24 H     1.0000    0     1.008    7.493467   -2.297058   -2.281248
  25 H     1.0000    0     1.008    6.854691   -3.576293    2.488666
  26 H     1.0000    0     1.008    3.995659   -4.880512    1.430010
  27 H     1.0000    0     1.008    4.008069   -2.694120    3.964708
  28 H     1.0000    0     1.008   -2.080787    6.330655   -0.061203
  29 H     1.0000    0     1.008   -4.486692    4.448708    1.260763
  30 H     1.0000    0     1.008   -4.080646    4.565478   -2.050259
  31 H     1.0000    0     1.008    4.082525    4.565642    2.046211
  32 H     1.0000    0     1.008    2.078688    6.331464    0.061680
  33 H     1.0000    0     1.008    4.483222    4.451504   -1.265593

--------------------------------
INTERNAL COORDINATES (ANGSTROEM)
--------------------------------
 N      0   0   0     0.000000000000     0.00000000     0.00000000
 C      1   0   0     1.329276463575     0.00000000     0.00000000
 N      2   1   0     1.329273747475   109.62433948     0.00000000
 H      2   1   3     1.069829485100   125.18785778   180.00018777
 C      3   2   1     1.372876790317   108.25622991   359.84423611
 C      1   2   3     1.372877689070   108.25574173   359.83723301
 C      1   2   3     1.459515713724   125.47863932   182.32423468
 C      3   2   1     1.459500828811   125.47203388   182.36892721
 C      7   1   2     1.524703112692   110.73030295   314.83615289
 H      7   1   2     1.092912216838   106.52080080   196.51137869
 C      7   1   2     1.527114067968   109.25455727    78.43343434
 C      8   3   2     1.527120960958   109.24802530    78.28021131
 C      8   3   2     1.524720487991   110.72918080   314.68213203
 H      8   3   2     1.092901461239   106.52390606   196.35361980
 C      5   3   2     1.482647698488   123.06968091   180.20312654
 C      6   1   2     1.482648750468   123.06870335   180.20246113
 H      9   7   1     1.087456032546   110.94185130   309.69850369
 H      9   7   1     1.085973890715   109.12263943   190.65472076
 H      9   7   1     1.086527155615   111.64180159    71.67009808
 H     11   7   1     1.087335134921   110.76450599   296.00694269
 H     11   7   1     1.085624564743   109.54527834   176.50321861
 H     11   7   1     1.087330322597   111.08089855    56.87130050
 H     12   8   3     1.087346435260   111.07794352    56.77801685
 H     12   8   3     1.087339627438   110.76635487   295.91457598
 H     12   8   3     1.085630263858   109.54811440   176.41000057
 H     13   8   3     1.085971522442   109.12193062   190.66737992
 H     13   8   3     1.086534266633   111.64240161    71.68024768
 H     13   8   3     1.087459916575   110.94245699   309.71108399
 H     16   6   1     1.085112854027   110.09538282   177.17392033
 H     16   6   1     1.088743140539   111.01796212    57.34182779
 H     16   6   1     1.089655535377   110.92171363   296.80742247
 H     15   5   3     1.089650379202   110.92208533   296.92289808
 H     15   5   3     1.085116975974   110.09493755   177.28739937
 H     15   5   3     1.088759281754   111.01696586    57.45819597

---------------------------
INTERNAL COORDINATES (A.U.)
---------------------------
 N      0   0   0     0.000000000000     0.00000000     0.00000000
 C      1   0   0     2.511968472425     0.00000000     0.00000000
 N      2   1   0     2.511963339739   109.62433948     0.00000000
 H      2   1   3     2.021684736832   125.18785778   180.00018777
 C      3   2   1     2.594361149316   108.25622991   359.84423611
 C      1   2   3     2.594362847714   108.25574173   359.83723301
 C      1   2   3     2.758084987094   125.47863932   182.32423468
 C      3   2   1     2.758056858685   125.47203388   182.36892721
 C      7   1   2     2.881271318526   110.73030295   314.83615289
 H      7   1   2     2.065304778240   106.52080080   196.51137869
 C      7   1   2     2.885827363718   109.25455727    78.43343434
 C      8   3   2     2.885840389582   109.24802530    78.28021131
 C      8   3   2     2.881304153083   110.72918080   314.68213203
 H      8   3   2     2.065284453104   106.52390606   196.35361980
 C      5   3   2     2.801798103231   123.06968091   180.20312654
 C      6   1   2     2.801800091186   123.06870335   180.20246113
 H      9   7   1     2.054994084192   110.94185130   309.69850369
 H      9   7   1     2.052193242041   109.12263943   190.65472076
 H      9   7   1     2.053238761181   111.64180159    71.67009808
 H     11   7   1     2.054765620791   110.76450599   296.00694269
 H     11   7   1     2.051533111621   109.54527834   176.50321861
 H     11   7   1     2.054756526817   111.08089855    56.87130050
 H     12   8   3     2.054786975337   111.07794352    56.77801685
 H     12   8   3     2.054774110417   110.76635487   295.91457598
 H     12   8   3     2.051543881389   109.54811440   176.41000057
 H     13   8   3     2.052188766653   109.12193062   190.66737992
 H     13   8   3     2.053252199057   111.64240161    71.68024768
 H     13   8   3     2.055001423943   110.94245699   309.71108399
 H     16   6   1     2.050566118509   110.09538282   177.17392033
 H     16   6   1     2.057426365805   111.01796212    57.34182779
 H     16   6   1     2.059150542174   110.92171363   296.80742247
 H     15   5   3     2.059140798414   110.92208533   296.92289808
 H     15   5   3     2.050573907860   110.09493755   177.28739937
 H     15   5   3     2.057456868280   111.01696586    57.45819597

---------------------
BASIS SET INFORMATION
---------------------
There are 3 groups of distinct atoms

 Group   1 Type N   : 7s4p1d contracted to 3s2p1d pattern {511/31/1}
 Group   2 Type C   : 7s4p1d contracted to 3s2p1d pattern {511/31/1}
 Group   3 Type H   : 4s1p contracted to 2s1p pattern {31/1}

Atom   0N    basis set group =>   1
Atom   1C    basis set group =>   2
Atom   2N    basis set group =>   1
Atom   3H    basis set group =>   3
Atom   4C    basis set group =>   2
Atom   5C    basis set group =>   2
Atom   6C    basis set group =>   2
Atom   7C    basis set group =>   2
Atom   8C    basis set group =>   2
Atom   9H    basis set group =>   3
Atom  10C    basis set group =>   2
Atom  11C    basis set group =>   2
Atom  12C    basis set group =>   2
Atom  13H    basis set group =>   3
Atom  14C    basis set group =>   2
Atom  15C    basis set group =>   2
Atom  16H    basis set group =>   3
Atom  17H    basis set group =>   3
Atom  18H    basis set group =>   3
Atom  19H    basis set group =>   3
Atom  20H    basis set group =>   3
Atom  21H    basis set group =>   3
Atom  22H    basis set group =>   3
Atom  23H    basis set group =>   3
Atom  24H    basis set group =>   3
Atom  25H    basis set group =>   3
Atom  26H    basis set group =>   3
Atom  27H    basis set group =>   3
Atom  28H    basis set group =>   3
Atom  29H    basis set group =>   3
Atom  30H    basis set group =>   3
Atom  31H    basis set group =>   3
Atom  32H    basis set group =>   3
Atom  33H    basis set group =>   3
---------------------------------
AUXILIARY/J BASIS SET INFORMATION
---------------------------------
There are 3 groups of distinct atoms

 Group   1 Type N   : 12s5p4d2f1g contracted to 6s4p3d1f1g pattern {711111/2111/211/2/1}
 Group   2 Type C   : 12s5p4d2f1g contracted to 6s4p3d1f1g pattern {711111/2111/211/2/1}
 Group   3 Type H   : 5s2p1d contracted to 3s1p1d pattern {311/2/1}

Atom   0N    basis set group =>   1
Atom   1C    basis set group =>   2
Atom   2N    basis set group =>   1
Atom   3H    basis set group =>   3
Atom   4C    basis set group =>   2
Atom   5C    basis set group =>   2
Atom   6C    basis set group =>   2
Atom   7C    basis set group =>   2
Atom   8C    basis set group =>   2
Atom   9H    basis set group =>   3
Atom  10C    basis set group =>   2
Atom  11C    basis set group =>   2
Atom  12C    basis set group =>   2
Atom  13H    basis set group =>   3
Atom  14C    basis set group =>   2
Atom  15C    basis set group =>   2
Atom  16H    basis set group =>   3
Atom  17H    basis set group =>   3
Atom  18H    basis set group =>   3
Atom  19H    basis set group =>   3
Atom  20H    basis set group =>   3
Atom  21H    basis set group =>   3
Atom  22H    basis set group =>   3
Atom  23H    basis set group =>   3
Atom  24H    basis set group =>   3
Atom  25H    basis set group =>   3
Atom  26H    basis set group =>   3
Atom  27H    basis set group =>   3
Atom  28H    basis set group =>   3
Atom  29H    basis set group =>   3
Atom  30H    basis set group =>   3
Atom  31H    basis set group =>   3
Atom  32H    basis set group =>   3
Atom  33H    basis set group =>   3
------------------------------------------------------------------------------
                           ORCA GTO INTEGRAL CALCULATION
                           -- RI-GTO INTEGRALS CHOSEN --
------------------------------------------------------------------------------
------------------------------------------------------------------------------
                   ___                                                        
                  /   \      - P O W E R E D   B Y -                         
                 /     \                                                     
                 |  |  |   _    _      __       _____    __    __             
                 |  |  |  | |  | |    /  \     |  _  \  |  |  /  |          
                  \  \/   | |  | |   /    \    | | | |  |  | /  /          
                 / \  \   | |__| |  /  /\  \   | |_| |  |  |/  /          
                |  |  |   |  __  | /  /__\  \  |    /   |      \           
                |  |  |   | |  | | |   __   |  |    \   |  |\   \          
                \     /   | |  | | |  |  |  |  | |\  \  |  | \   \       
                 \___/    |_|  |_| |__|  |__|  |_| \__\ |__|  \__/        
                                                                              
                      - O R C A' S   B I G   F R I E N D -                    
                                      &                                       
                       - I N T E G R A L  F E E D E R -                       
                                                                              
 v1 FN, 2020, v2 2021                                                         
------------------------------------------------------------------------------


Reading SHARK input file 6_prot_aq_1.SHARKINP.tmp ... ok
----------------------
SHARK INTEGRAL PACKAGE
----------------------

Number of atoms                             ...     34
Number of basis functions                   ...    287
Number of shells                            ...    141
Maximum angular momentum                    ...      2
Integral batch strategy                     ... SHARK/LIBINT Hybrid
RI-J (if used) integral strategy            ... SPLIT-RIJ (Revised 2003 algorithm where possible)
Printlevel                                  ...      1
Contraction scheme used                     ... SEGMENTED contraction
Coulomb Range Separation                    ... NOT USED
Exchange Range Separation                   ... Long Range
   Mu parameter                             ...  0.300000
   Scaling (regular/separated)              ...  0.157706  0.842294
Finite Nucleus Model                        ... NOT USED
Auxiliary Coulomb fitting basis             ... AVAILABLE
   # of basis functions in Aux-J            ...    868
   # of shells in Aux-J                     ...    300
   Maximum angular momentum in Aux-J        ...      4
Auxiliary J/K fitting basis                 ... NOT available
Auxiliary Correlation fitting basis         ... NOT available
Auxiliary 'external' fitting basis          ... NOT available
Integral threshold                          ...     2.500000e-11
Primitive cut-off                           ...     2.500000e-12
Primitive pair pre-selection threshold      ...     2.500000e-12

Calculating pre-screening integrals         ... done (  0.1 sec) Dimension = 141
Organizing shell pair data                  ... done (  0.1 sec)
Shell pair information
Total number of shell pairs                 ...     10011
Shell pairs after pre-screening             ...      8656
Total number of primitive shell pairs       ...     34423
Primitive shell pairs kept                  ...     20639
          la=0 lb=0:   2978 shell pairs
          la=1 lb=0:   3281 shell pairs
          la=1 lb=1:    925 shell pairs
          la=2 lb=0:    901 shell pairs
          la=2 lb=1:    495 shell pairs
          la=2 lb=2:     76 shell pairs

Calculating one electron integrals          ... done (  0.1 sec)
Calculating RI/J V-Matrix + Cholesky decomp.... done (  0.0 sec)
Calculating Nuclear repulsion               ... done (  0.0 sec) ENN=    876.435085860158 Eh

SHARK setup successfully completed in   0.4 seconds

Maximum memory used throughout the entire GTOINT-calculation: 48.9 MB
-------------------------------------------------------------------------------
                                 ORCA SCF
-------------------------------------------------------------------------------

------------
SCF SETTINGS
------------
Hamiltonian:
 Density Functional     Method          .... DFT(GTOs)
 Exchange Functional    Exchange        .... WB97X
 Correlation Functional Correlation     .... WB97X
 Gradients option       PostSCFGGA      .... off
 Hybrid DFT is turned on
   Fraction HF Exchange ScalHFX         ....  0.157706
   Scaling of DF-GGA-X  ScalDFX         ....  0.000000
   Scaling of DF-GGA-C  ScalDFC         ....  1.000000
   Scaling of DF-LDA-C  ScalLDAC        ....  1.000000
   Perturbative correction              ....  0.000000
   Density functional embedding theory  .... OFF
 Long-range corrected/Screened/Range-Separated Hybrid DFT is turned on
   Amount of maximum screened exact exchange              ....  0.842294
   Range separation parameter mu (erf(mu*r12)/r12)        ....  0.300000
 RI-approximation to the Coulomb term is turned on
   Number of AuxJ basis functions       .... 868
   RIJ-COSX (HFX calculated with COS-X)).... on


General Settings:
 Integral files         IntName         .... 6_prot_aq_1
 Hartree-Fock type      HFTyp           .... RHF
 Total Charge           Charge          ....    1
 Multiplicity           Mult            ....    1
 Number of Electrons    NEL             ....  100
 Basis Dimension        Dim             ....  287
 Nuclear Repulsion      ENuc            ....    876.4350858602 Eh

Convergence Acceleration:
 DIIS                   CNVDIIS         .... on
   Start iteration      DIISMaxIt       ....     0
   Startup error        DIISStart       ....  0.200000
   # of expansion vecs  DIISMaxEq       ....     5
   Bias factor          DIISBfac        ....   1.050
   Max. coefficient     DIISMaxC        ....  10.000
 Trust-Rad. Augm. Hess. CNVTRAH         .... auto
   Auto Start mean grad. ratio tolernc. ....  1.125000
   Auto Start start iteration           ....    20
   Auto Start num. interpolation iter.  ....    10
   Max. Number of Micro iterations      ....    16
   Max. Number of Macro iterations      .... Maxiter - #DIIS iter
   Number of Davidson start vectors     ....     2
   Converg. threshold I  (grad. norm)   ....   1.000e-05
   Converg. threshold II (energy diff.) ....   1.000e-08
   Grad. Scal. Fac. for Micro threshold ....   0.100
   Minimum threshold for Micro iter.    ....   0.010
   NR start threshold (gradient norm)   ....   0.001
   Initial trust radius                 ....   0.400
   Minimum AH scaling param. (alpha)    ....   1.000
   Maximum AH scaling param. (alpha)    .... 1000.000
   Orbital update algorithm             .... Taylor
   White noise on init. David. guess    .... on
   Maximum white noise                  ....   0.010
   Quad. conv. algorithm                .... NR
 SOSCF                  CNVSOSCF        .... on
   Start iteration      SOSCFMaxIt      ....   150
   Startup grad/error   SOSCFStart      ....  0.001000
 Level Shifting         CNVShift        .... on
   Level shift para.    LevelShift      ....    0.2500
   Turn off err/grad.   ShiftErr        ....    0.0000
 Zerner damping         CNVZerner       .... off
 Static damping         CNVDamp         .... on
   Fraction old density DampFac         ....    0.8500
   Max. Damping (<1)    DampMax         ....    0.9800
   Min. Damping (>=0)   DampMin         ....    0.0000
   Turn off err/grad.   DampErr         ....    0.0300
 Fernandez-Rico         CNVRico         .... off

SCF Procedure:
 Maximum # iterations   MaxIter         ....   125
 SCF integral mode      SCFMode         .... Direct
   Integral package                     .... SHARK and LIBINT hybrid scheme
 Reset frequency        DirectResetFreq ....    20
 Integral Threshold     Thresh          ....  2.500e-11 Eh
 Primitive CutOff       TCut            ....  2.500e-12 Eh

Convergence Tolerance:
 Convergence Check Mode ConvCheckMode   .... Total+1el-Energy
 Convergence forced     ConvForced      .... 0
 Energy Change          TolE            ....  1.000e-08 Eh
 1-El. energy change                    ....  1.000e-05 Eh
 Orbital Gradient       TolG            ....  1.000e-05
 Orbital Rotation angle TolX            ....  1.000e-05
 DIIS Error             TolErr          ....  5.000e-07


Diagonalization of the overlap matrix:
Smallest eigenvalue                        ... 8.709e-04
Time for diagonalization                   ...    0.014 sec
Threshold for overlap eigenvalues          ... 1.000e-08
Number of eigenvalues below threshold      ... 0
Time for construction of square roots      ...    0.006 sec
Total time needed                          ...    0.020 sec

Time for model grid setup =    0.709 sec

------------------------------
INITIAL GUESS: MODEL POTENTIAL
------------------------------
Loading Hartree-Fock densities                     ... done
Calculating cut-offs                               ... done
Initializing the effective Hamiltonian             ... done
Setting up the integral package (SHARK)            ... done
Starting the Coulomb interaction                   ... done (   0.8 sec)
Reading the grid                                   ... done
Mapping shells                                     ... done
Starting the XC term evaluation                    ... done (   0.8 sec)
  promolecular density results
     # of electrons  =    100.995561755
     EX              =    -75.693644766
     EC              =     -3.353218971
     EX+EC           =    -79.046863738
Transforming the Hamiltonian                       ... done (   0.0 sec)
Diagonalizing the Hamiltonian                      ... done (   0.0 sec)
Back transforming the eigenvectors                 ... done (   0.0 sec)
Now organizing SCF variables                       ... done
                      ------------------
                      INITIAL GUESS DONE (   2.3 sec)
                      ------------------
-------------------
DFT GRID GENERATION
-------------------

General Integration Accuracy     IntAcc      ... 4.388
Radial Grid Type                 RadialGrid  ... OptM3 with GC (2021)
Angular Grid (max. ang.)         AngularGrid ... 4 (Lebedev-302)
Angular grid pruning method      GridPruning ... 4 (adaptive)
Weight generation scheme         WeightScheme... Becke
Basis function cutoff            BFCut       ... 1.0000e-11
Integration weight cutoff        WCut        ... 1.0000e-14
Angular grids for H and He will be reduced by one unit
Partially contracted basis set               ... off
Rotationally invariant grid construction     ... off

Total number of grid points                  ...   144284
Total number of batches                      ...     2273
Average number of points per batch           ...       63
Average number of grid points per atom       ...     4244
Time for grid setup =    2.655 sec

--------------------
COSX GRID GENERATION
--------------------

GRIDX 1
-------
General Integration Accuracy     IntAcc      ... 3.816
Radial Grid Type                 RadialGrid  ... OptM3 with GC (2021)
Angular Grid (max. ang.)         AngularGrid ... 1 (Lebedev-50)
Angular grid pruning method      GridPruning ... 4 (adaptive)
Weight generation scheme         WeightScheme... Becke
Basis function cutoff            BFCut       ... 1.0000e-11
Integration weight cutoff        WCut        ... 1.0000e-14
Angular grids for H and He will be reduced by one unit
Partially contracted basis set               ... on
Rotationally invariant grid construction     ... off

Total number of grid points                  ...    18454
Total number of batches                      ...      306
Average number of points per batch           ...       60
Average number of grid points per atom       ...      543
UseSFitting                                  ... on

GRIDX 2
-------
General Integration Accuracy     IntAcc      ... 4.020
Radial Grid Type                 RadialGrid  ... OptM3 with GC (2021)
Angular Grid (max. ang.)         AngularGrid ... 2 (Lebedev-110)
Angular grid pruning method      GridPruning ... 4 (adaptive)
Weight generation scheme         WeightScheme... Becke
Basis function cutoff            BFCut       ... 1.0000e-11
Integration weight cutoff        WCut        ... 1.0000e-14
Angular grids for H and He will be reduced by one unit
Partially contracted basis set               ... on
Rotationally invariant grid construction     ... off

Total number of grid points                  ...    38187
Total number of batches                      ...      616
Average number of points per batch           ...       61
Average number of grid points per atom       ...     1123
UseSFitting                                  ... on

GRIDX 3
-------
General Integration Accuracy     IntAcc      ... 4.338
Radial Grid Type                 RadialGrid  ... OptM3 with GC (2021)
Angular Grid (max. ang.)         AngularGrid ... 3 (Lebedev-194)
Angular grid pruning method      GridPruning ... 4 (adaptive)
Weight generation scheme         WeightScheme... Becke
Basis function cutoff            BFCut       ... 1.0000e-11
Integration weight cutoff        WCut        ... 1.0000e-14
Angular grids for H and He will be reduced by one unit
Partially contracted basis set               ... on
Rotationally invariant grid construction     ... off

Total number of grid points                  ...    83072
Total number of batches                      ...     1319
Average number of points per batch           ...       62
Average number of grid points per atom       ...     2443
UseSFitting                                  ... on

Time for X-Grid setup             =    3.363 sec


--------------------
CPCM SOLVATION MODEL
--------------------
CPCM parameters:
  Epsilon                                         ...      80.4000
  Refrac                                          ...       1.3300
  Rsolv                                           ...       1.3000
  Surface type                                    ... GAUSSIAN VDW
  Epsilon function type                           ...         CPCM
Radii:
 Radius for N  used is    3.5149 Bohr (=   1.8600 Ang.)
 Radius for C  used is    3.8550 Bohr (=   2.0400 Ang.)
 Radius for H  used is    2.4944 Bohr (=   1.3200 Ang.)
Calculating surface                               ...        done! (  0.0s)
GEPOL surface points                              ...         1791
GEPOL Volume                                      ...    1696.4468
GEPOL Surface-area                                ...     926.2057
Calculating surface distance matrix               ...        done! (  0.0s)
Performing Cholesky decomposition & store         ...        done! (  0.1s)
Overall time for CPCM initialization              ...                 0.1s
--------------
SCF ITERATIONS
--------------
ITER       Energy         Delta-E        Max-DP      RMS-DP      [F,P]     Damp
               ***  Starting incremental Fock matrix formation  ***
  0   -540.4161758501   0.000000000000 0.03357918  0.00063811  0.1507216 0.8500
  1   -540.4744016031  -0.058225753063 0.03021129  0.00059335  0.1213756 0.8500
                               ***Turning on DIIS***
  2   -540.5186046809  -0.044203077707 0.02364512  0.00048351  0.0931492 0.8500
  3   -540.5513897753  -0.032785094496 0.01477324  0.00034679  0.0705759 0.8500
  4   -540.5766136194  -0.025223844002 0.00994190  0.00026763  0.0561602 0.8500
  5   -540.5964274232  -0.019813803849 0.00756455  0.00022043  0.0464085 0.8500
  6   -540.6124929135  -0.016065490293 0.00612985  0.00018627  0.0390310 0.8500
  7   -540.6257594254  -0.013266511941 0.00522300  0.00016026  0.0330598 0.8500
  8   -540.6368354434  -0.011076017991 0.02966940  0.00091869  0.0279571 0.0000
  9   -540.6961443363  -0.059308892891 0.00141823  0.00003063  0.0012235 0.0000
                      *** Initiating the SOSCF procedure ***
                           *** Shutting down DIIS ***
                      *** Re-Reading the Fockian *** 
                      *** Removing any level shift *** 
ITER      Energy       Delta-E        Grad      Rot      Max-DP    RMS-DP
 10   -540.69616661  -0.0000222721  0.000148  0.000148  0.000531  0.000013
               *** Restarting incremental Fock matrix formation ***
 11   -540.69623754  -0.0000709312  0.000085  0.000133  0.000334  0.000011
 12   -540.69623801  -0.0000004725  0.000055  0.000170  0.000176  0.000005
 13   -540.69623808  -0.0000000702  0.000012  0.000018  0.000047  0.000002
 14   -540.69623810  -0.0000000151  0.000006  0.000015  0.000010  0.000000
                 **** Energy Check signals convergence ****
              ***Rediagonalizing the Fockian in SOSCF/NRSCF***

               *****************************************************
               *                     SUCCESS                       *
               *           SCF CONVERGED AFTER  15 CYCLES          *
               *****************************************************

Old exchange energy                            =    -25.379135314 Eh
New exchange energy                            =    -25.379026154 Eh
Exchange energy change after final integration =      0.000109160 Eh
Total energy after final integration           =   -540.696128939 Eh
Final COS-X integration done in                =    95.652 sec

----------------
TOTAL SCF ENERGY
----------------

Total Energy       :         -540.69612894 Eh          -14713.08967 eV

Components:
Nuclear Repulsion  :          876.43508586 Eh           23849.01115 eV
Electronic Energy  :        -1417.13121480 Eh          -38562.10081 eV
One Electron Energy:        -2451.02010631 Eh          -66695.64783 eV
Two Electron Energy:         1033.88889151 Eh           28133.54702 eV
Max COSX asymmetry :            0.00000260 Eh               0.00007 eV
CPCM Dielectric    :           -0.07368036 Eh              -2.00494 eV

Virial components:
Potential Energy   :        -1075.05872155 Eh          -29253.83505 eV
Kinetic Energy     :          534.36259262 Eh           14540.74538 eV
Virial Ratio       :            2.01185251


DFT components:
N(Alpha)           :       50.000059147656 electrons
N(Beta)            :       50.000059147656 electrons
N(Total)           :      100.000118295312 electrons
E(XC)              :      -55.662366164335 Eh       
DFET-embed. en.    :        0.000000000000 Eh       
CPCM Solvation Model Properties:
Surface-charge          :           -1.02379265
Charge-correction       :            0.00310072 Eh               0.08437 eV
Free-energy (cav+disp)  :  This term is not implemented in the current solvation scheme

---------------
SCF CONVERGENCE
---------------

  Last Energy change         ...   -2.0019e-09  Tolerance :   1.0000e-08
  Last MAX-Density change    ...    4.4409e-15  Tolerance :   1.0000e-07
  Last RMS-Density change    ...    3.4416e-17  Tolerance :   5.0000e-09
  Last Orbital Gradient      ...    1.8956e-06  Tolerance :   1.0000e-05
  Last Orbital Rotation      ...    7.1005e-06  Tolerance :   1.0000e-05

             **** THE GBW FILE WAS UPDATED (6_prot_aq_1.gbw) ****
             **** DENSITY 6_prot_aq_1.scfp WAS UPDATED ****
             **** ENERGY FILE WAS UPDATED (6_prot_aq_1.en.tmp) ****
             **** THE GBW FILE WAS UPDATED (6_prot_aq_1.gbw) ****
             **** DENSITY 6_prot_aq_1.scfp WAS UPDATED ****
----------------
ORBITAL ENERGIES
----------------

  NO   OCC          E(Eh)            E(eV) 
   0   2.0000     -14.501974      -394.6188 
   1   2.0000     -14.501952      -394.6182 
   2   2.0000     -10.373056      -282.2652 
   3   2.0000     -10.333240      -281.1818 
   4   2.0000     -10.333214      -281.1811 
   5   2.0000     -10.329247      -281.0731 
   6   2.0000     -10.328773      -281.0602 
   7   2.0000     -10.282268      -279.7947 
   8   2.0000     -10.282209      -279.7931 
   9   2.0000     -10.270780      -279.4821 
  10   2.0000     -10.270768      -279.4818 
  11   2.0000     -10.269322      -279.4425 
  12   2.0000     -10.269316      -279.4423 
  13   2.0000      -1.213307       -33.0158 
  14   2.0000      -1.098733       -29.8980 
  15   2.0000      -0.971007       -26.4224 
  16   2.0000      -0.940481       -25.5918 
  17   2.0000      -0.917975       -24.9794 
  18   2.0000      -0.868785       -23.6408 
  19   2.0000      -0.830759       -22.6061 
  20   2.0000      -0.823989       -22.4219 
  21   2.0000      -0.821010       -22.3408 
  22   2.0000      -0.810443       -22.0533 
  23   2.0000      -0.737058       -20.0564 
  24   2.0000      -0.733421       -19.9574 
  25   2.0000      -0.695768       -18.9328 
  26   2.0000      -0.651421       -17.7261 
  27   2.0000      -0.635068       -17.2811 
  28   2.0000      -0.616515       -16.7762 
  29   2.0000      -0.600949       -16.3527 
  30   2.0000      -0.575368       -15.6566 
  31   2.0000      -0.572335       -15.5740 
  32   2.0000      -0.558217       -15.1899 
  33   2.0000      -0.542097       -14.7512 
  34   2.0000      -0.541950       -14.7472 
  35   2.0000      -0.532278       -14.4840 
  36   2.0000      -0.525900       -14.3105 
  37   2.0000      -0.520271       -14.1573 
  38   2.0000      -0.515723       -14.0335 
  39   2.0000      -0.507437       -13.8081 
  40   2.0000      -0.503287       -13.6951 
  41   2.0000      -0.495757       -13.4902 
  42   2.0000      -0.492719       -13.4076 
  43   2.0000      -0.483242       -13.1497 
  44   2.0000      -0.472782       -12.8651 
  45   2.0000      -0.459835       -12.5128 
  46   2.0000      -0.459567       -12.5055 
  47   2.0000      -0.457973       -12.4621 
  48   2.0000      -0.404817       -11.0156 
  49   2.0000      -0.344837        -9.3835 
  50   0.0000       0.061241         1.6665 
  51   0.0000       0.110951         3.0191 
  52   0.0000       0.131250         3.5715 
  53   0.0000       0.146961         3.9990 
  54   0.0000       0.148736         4.0473 
  55   0.0000       0.180898         4.9225 
  56   0.0000       0.182786         4.9739 
  57   0.0000       0.186107         5.0642 
  58   0.0000       0.187387         5.0991 
  59   0.0000       0.200882         5.4663 
  60   0.0000       0.204998         5.5783 
  61   0.0000       0.212995         5.7959 
  62   0.0000       0.221309         6.0221 
  63   0.0000       0.233146         6.3442 
  64   0.0000       0.234132         6.3711 
  65   0.0000       0.237449         6.4613 
  66   0.0000       0.239700         6.5226 
  67   0.0000       0.246195         6.6993 
  68   0.0000       0.260841         7.0978 
  69   0.0000       0.262141         7.1332 
  70   0.0000       0.264021         7.1844 
  71   0.0000       0.269867         7.3435 
  72   0.0000       0.271696         7.3932 
  73   0.0000       0.274439         7.4679 
  74   0.0000       0.285459         7.7677 
  75   0.0000       0.303589         8.2611 
  76   0.0000       0.303646         8.2626 
  77   0.0000       0.305584         8.3154 
  78   0.0000       0.325228         8.8499 
  79   0.0000       0.333652         9.0791 
  80   0.0000       0.344328         9.3696 
  81   0.0000       0.345231         9.3942 
  82   0.0000       0.365654         9.9500 
  83   0.0000       0.372856        10.1459 
  84   0.0000       0.437427        11.9030 
  85   0.0000       0.461891        12.5687 
  86   0.0000       0.463425        12.6104 
  87   0.0000       0.487581        13.2678 
  88   0.0000       0.494019        13.4429 
  89   0.0000       0.499503        13.5922 
  90   0.0000       0.502488        13.6734 
  91   0.0000       0.503347        13.6968 
  92   0.0000       0.516080        14.0432 
  93   0.0000       0.551696        15.0124 
  94   0.0000       0.552040        15.0218 
  95   0.0000       0.563744        15.3402 
  96   0.0000       0.570654        15.5283 
  97   0.0000       0.596275        16.2255 
  98   0.0000       0.597437        16.2571 
  99   0.0000       0.626951        17.0602 
 100   0.0000       0.635967        17.3055 
 101   0.0000       0.662302        18.0221 
 102   0.0000       0.662395        18.0247 
 103   0.0000       0.677783        18.4434 
 104   0.0000       0.679916        18.5014 
 105   0.0000       0.681184        18.5360 
 106   0.0000       0.698550        19.0085 
 107   0.0000       0.705229        19.1903 
 108   0.0000       0.705286        19.1918 
 109   0.0000       0.730225        19.8704 
 110   0.0000       0.737981        20.0815 
 111   0.0000       0.738259        20.0891 
 112   0.0000       0.749943        20.4070 
 113   0.0000       0.752168        20.4675 
 114   0.0000       0.757956        20.6250 
 115   0.0000       0.760156        20.6849 
 116   0.0000       0.763809        20.7843 
 117   0.0000       0.774181        21.0665 
 118   0.0000       0.775673        21.1071 
 119   0.0000       0.783169        21.3111 
 120   0.0000       0.786284        21.3959 
 121   0.0000       0.787372        21.4255 
 122   0.0000       0.791357        21.5339 
 123   0.0000       0.796368        21.6703 
 124   0.0000       0.800109        21.7721 
 125   0.0000       0.801696        21.8152 
 126   0.0000       0.805871        21.9289 
 127   0.0000       0.808853        22.0100 
 128   0.0000       0.813127        22.1263 
 129   0.0000       0.823849        22.4181 
 130   0.0000       0.828556        22.5461 
 131   0.0000       0.836031        22.7496 
 132   0.0000       0.836947        22.7745 
 133   0.0000       0.838619        22.8200 
 134   0.0000       0.841686        22.9034 
 135   0.0000       0.855861        23.2892 
 136   0.0000       0.856386        23.3034 
 137   0.0000       0.864100        23.5134 
 138   0.0000       0.880884        23.9701 
 139   0.0000       0.887822        24.1589 
 140   0.0000       0.944030        25.6884 
 141   0.0000       0.971374        26.4324 
 142   0.0000       1.004315        27.3288 
 143   0.0000       1.016114        27.6499 
 144   0.0000       1.019396        27.7392 
 145   0.0000       1.058788        28.8111 
 146   0.0000       1.091503        29.7013 
 147   0.0000       1.131504        30.7898 
 148   0.0000       1.144284        31.1375 
 149   0.0000       1.165460        31.7138 
 150   0.0000       1.178569        32.0705 
 151   0.0000       1.180202        32.1149 
 152   0.0000       1.205030        32.7905 
 153   0.0000       1.230698        33.4890 
 154   0.0000       1.245557        33.8933 
 155   0.0000       1.254379        34.1334 
 156   0.0000       1.273370        34.6502 
 157   0.0000       1.278378        34.7864 
 158   0.0000       1.303767        35.4773 
 159   0.0000       1.328069        36.1386 
 160   0.0000       1.383294        37.6413 
 161   0.0000       1.386720        37.7346 
 162   0.0000       1.414990        38.5038 
 163   0.0000       1.417605        38.5750 
 164   0.0000       1.444668        39.3114 
 165   0.0000       1.472411        40.0663 
 166   0.0000       1.481680        40.3186 
 167   0.0000       1.537111        41.8269 
 168   0.0000       1.538646        41.8687 
 169   0.0000       1.603567        43.6353 
 170   0.0000       1.616242        43.9802 
 171   0.0000       1.617769        44.0217 
 172   0.0000       1.642331        44.6901 
 173   0.0000       1.648238        44.8508 
 174   0.0000       1.649972        44.8980 
 175   0.0000       1.654562        45.0229 
 176   0.0000       1.655542        45.0496 
 177   0.0000       1.658450        45.1287 
 178   0.0000       1.662109        45.2283 
 179   0.0000       1.665325        45.3158 
 180   0.0000       1.686406        45.8894 
 181   0.0000       1.765283        48.0358 
 182   0.0000       1.783428        48.5296 
 183   0.0000       1.799405        48.9643 
 184   0.0000       1.812299        49.3152 
 185   0.0000       1.812561        49.3223 
 186   0.0000       1.831663        49.8421 
 187   0.0000       1.847587        50.2754 
 188   0.0000       1.855703        50.4962 
 189   0.0000       1.862943        50.6933 
 190   0.0000       1.874504        51.0078 
 191   0.0000       1.880607        51.1739 
 192   0.0000       1.882406        51.2229 
 193   0.0000       1.889036        51.4033 
 194   0.0000       1.894272        51.5458 
 195   0.0000       1.903161        51.7876 
 196   0.0000       1.907625        51.9091 
 197   0.0000       1.920440        52.2578 
 198   0.0000       1.920914        52.2707 
 199   0.0000       1.929577        52.5065 
 200   0.0000       1.932107        52.5753 
 201   0.0000       1.934236        52.6332 
 202   0.0000       1.941745        52.8376 
 203   0.0000       1.950628        53.0793 
 204   0.0000       1.969517        53.5933 
 205   0.0000       1.979869        53.8750 
 206   0.0000       1.982724        53.9527 
 207   0.0000       1.985257        54.0216 
 208   0.0000       1.989743        54.1437 
 209   0.0000       2.016473        54.8710 
 210   0.0000       2.018817        54.9348 
 211   0.0000       2.035370        55.3852 
 212   0.0000       2.042160        55.5700 
 213   0.0000       2.062593        56.1260 
 214   0.0000       2.071655        56.3726 
 215   0.0000       2.082066        56.6559 
 216   0.0000       2.085674        56.7541 
 217   0.0000       2.097277        57.0698 
 218   0.0000       2.100798        57.1656 
 219   0.0000       2.124620        57.8138 
 220   0.0000       2.145154        58.3726 
 221   0.0000       2.158968        58.7485 
 222   0.0000       2.175139        59.1885 
 223   0.0000       2.214515        60.2600 
 224   0.0000       2.252665        61.2981 
 225   0.0000       2.263010        61.5796 
 226   0.0000       2.272592        61.8404 
 227   0.0000       2.292152        62.3726 
 228   0.0000       2.293071        62.3976 
 229   0.0000       2.313975        62.9665 
 230   0.0000       2.323522        63.2262 
 231   0.0000       2.338451        63.6325 
 232   0.0000       2.375177        64.6319 
 233   0.0000       2.384316        64.8805 
 234   0.0000       2.406891        65.4948 
 235   0.0000       2.435903        66.2843 
 236   0.0000       2.489305        67.7374 
 237   0.0000       2.492996        67.8379 
 238   0.0000       2.517006        68.4912 
 239   0.0000       2.519571        68.5610 
 240   0.0000       2.527909        68.7879 
 241   0.0000       2.541218        69.1500 
 242   0.0000       2.550847        69.4121 
 243   0.0000       2.557469        69.5923 
 244   0.0000       2.580264        70.2125 
 245   0.0000       2.590115        70.4806 
 246   0.0000       2.606602        70.9292 
 247   0.0000       2.610782        71.0430 
 248   0.0000       2.613702        71.1224 
 249   0.0000       2.664189        72.4963 
 250   0.0000       2.673929        72.7613 
 251   0.0000       2.682667        72.9991 
 252   0.0000       2.691167        73.2304 
 253   0.0000       2.699985        73.4703 
 254   0.0000       2.722175        74.0741 
 255   0.0000       2.757681        75.0403 
 256   0.0000       2.802724        76.2660 
 257   0.0000       2.822829        76.8131 
 258   0.0000       2.823614        76.8345 
 259   0.0000       2.847332        77.4798 
 260   0.0000       2.857012        77.7432 
 261   0.0000       2.874542        78.2203 
 262   0.0000       2.912396        79.2503 
 263   0.0000       2.922179        79.5165 
 264   0.0000       2.943364        80.0930 
 265   0.0000       2.952493        80.3414 
 266   0.0000       2.989227        81.3410 
 267   0.0000       2.990266        81.3693 
 268   0.0000       3.027800        82.3906 
 269   0.0000       3.032683        82.5235 
 270   0.0000       3.032743        82.5251 
 271   0.0000       3.040362        82.7325 
 272   0.0000       3.042571        82.7926 
 273   0.0000       3.076906        83.7269 
 274   0.0000       3.085580        83.9629 
 275   0.0000       3.086798        83.9960 
 276   0.0000       3.102133        84.4133 
 277   0.0000       3.108536        84.5876 
 278   0.0000       3.151117        85.7463 
 279   0.0000       3.151315        85.7516 
 280   0.0000       3.165731        86.1439 
 281   0.0000       3.168012        86.2060 
 282   0.0000       3.203680        87.1766 
 283   0.0000       3.328979        90.5861 
 284   0.0000       3.445684        93.7618 
 285   0.0000       3.519988        95.7838 
 286   0.0000       3.608030        98.1795 

                    ********************************
                    * MULLIKEN POPULATION ANALYSIS *
                    ********************************

-----------------------
MULLIKEN ATOMIC CHARGES
-----------------------
   0 N :   -0.173092
   1 C :    0.214141
   2 N :   -0.173062
   3 H :    0.109209
   4 C :   -0.106302
   5 C :   -0.106313
   6 C :   -0.064789
   7 C :   -0.064816
   8 C :   -0.011018
   9 H :    0.071380
  10 C :    0.023658
  11 C :    0.023558
  12 C :   -0.010875
  13 H :    0.071358
  14 C :    0.098072
  15 C :    0.098104
  16 H :    0.054941
  17 H :    0.059669
  18 H :    0.049208
  19 H :    0.042886
  20 H :    0.054880
  21 H :    0.047660
  22 H :    0.047676
  23 H :    0.042898
  24 H :    0.054898
  25 H :    0.059639
  26 H :    0.049185
  27 H :    0.054922
  28 H :    0.048873
  29 H :    0.066980
  30 H :    0.075292
  31 H :    0.075278
  32 H :    0.048850
  33 H :    0.067047
Sum of atomic charges:    1.0000000

--------------------------------
MULLIKEN REDUCED ORBITAL CHARGES
--------------------------------
  0 N s       :     3.382615  s :     3.382615
      pz      :     1.462169  p :     3.757395
      px      :     1.150001
      py      :     1.145225
      dz2     :     0.002382  d :     0.033082
      dxz     :     0.005370
      dyz     :     0.006865
      dx2y2   :     0.008107
      dxy     :     0.010359
  1 C s       :     3.092991  s :     3.092991
      pz      :     0.946985  p :     2.625474
      px      :     0.777180
      py      :     0.901308
      dz2     :     0.005386  d :     0.067393
      dxz     :     0.016675
      dyz     :     0.006491
      dx2y2   :     0.016859
      dxy     :     0.021982
  2 N s       :     3.382591  s :     3.382591
      pz      :     1.462202  p :     3.757388
      px      :     1.150008
      py      :     1.145178
      dz2     :     0.002382  d :     0.033083
      dxz     :     0.005367
      dyz     :     0.006866
      dx2y2   :     0.008104
      dxy     :     0.010363
  3 H s       :     0.865334  s :     0.865334
      pz      :     0.004684  p :     0.025457
      px      :     0.001501
      py      :     0.019272
  4 C s       :     3.098360  s :     3.098360
      pz      :     1.050610  p :     2.949368
      px      :     1.001390
      py      :     0.897368
      dz2     :     0.004651  d :     0.058573
      dxz     :     0.009768
      dyz     :     0.010135
      dx2y2   :     0.020240
      dxy     :     0.013780
  5 C s       :     3.098396  s :     3.098396
      pz      :     1.050641  p :     2.949345
      px      :     1.001445
      py      :     0.897259
      dz2     :     0.004651  d :     0.058572
      dxz     :     0.009767
      dyz     :     0.010134
      dx2y2   :     0.020246
      dxy     :     0.013774
  6 C s       :     3.110736  s :     3.110736
      pz      :     1.058549  p :     2.897784
      px      :     0.788860
      py      :     1.050375
      dz2     :     0.012852  d :     0.056269
      dxz     :     0.009741
      dyz     :     0.010436
      dx2y2   :     0.011708
      dxy     :     0.011531
  7 C s       :     3.110825  s :     3.110825
      pz      :     1.058383  p :     2.897721
      px      :     0.788863
      py      :     1.050475
      dz2     :     0.012872  d :     0.056269
      dxz     :     0.009731
      dyz     :     0.010429
      dx2y2   :     0.011706
      dxy     :     0.011531
  8 C s       :     2.997612  s :     2.997612
      pz      :     0.972151  p :     2.987076
      px      :     1.042722
      py      :     0.972202
      dz2     :     0.005871  d :     0.026330
      dxz     :     0.003396
      dyz     :     0.006610
      dx2y2   :     0.006602
      dxy     :     0.003852
  9 H s       :     0.907035  s :     0.907035
      pz      :     0.004857  p :     0.021585
      px      :     0.006600
      py      :     0.010128
 10 C s       :     2.983069  s :     2.983069
      pz      :     0.933791  p :     2.966786
      px      :     1.012326
      py      :     1.020669
      dz2     :     0.006005  d :     0.026487
      dxz     :     0.002999
      dyz     :     0.008129
      dx2y2   :     0.004972
      dxy     :     0.004382
 11 C s       :     2.983147  s :     2.983147
      pz      :     0.933759  p :     2.966808
      px      :     1.012505
      py      :     1.020545
      dz2     :     0.006020  d :     0.026487
      dxz     :     0.002978
      dyz     :     0.008126
      dx2y2   :     0.004978
      dxy     :     0.004384
 12 C s       :     2.997568  s :     2.997568
      pz      :     0.971872  p :     2.986978
      px      :     1.042646
      py      :     0.972460
      dz2     :     0.005887  d :     0.026329
      dxz     :     0.003382
      dyz     :     0.006606
      dx2y2   :     0.006599
      dxy     :     0.003856
 13 H s       :     0.907055  s :     0.907055
      pz      :     0.004834  p :     0.021587
      px      :     0.006607
      py      :     0.010146
 14 C s       :     2.881238  s :     2.881238
      pz      :     1.041219  p :     2.993787
      px      :     0.988047
      py      :     0.964522
      dz2     :     0.005659  d :     0.026902
      dxz     :     0.008050
      dyz     :     0.002049
      dx2y2   :     0.003055
      dxy     :     0.008090
 15 C s       :     2.881194  s :     2.881194
      pz      :     1.041248  p :     2.993799
      px      :     0.987995
      py      :     0.964556
      dz2     :     0.005663  d :     0.026902
      dxz     :     0.008042
      dyz     :     0.002052
      dx2y2   :     0.003058
      dxy     :     0.008088
 16 H s       :     0.920742  s :     0.920742
      pz      :     0.012830  p :     0.024317
      px      :     0.006780
      py      :     0.004707
 17 H s       :     0.915640  s :     0.915640
      pz      :     0.004901  p :     0.024692
      px      :     0.014965
      py      :     0.004826
 18 H s       :     0.926152  s :     0.926152
      pz      :     0.005589  p :     0.024639
      px      :     0.006932
      py      :     0.012118
 19 H s       :     0.932671  s :     0.932671
      pz      :     0.005299  p :     0.024443
      px      :     0.007830
      py      :     0.011315
 20 H s       :     0.920412  s :     0.920412
      pz      :     0.004038  p :     0.024708
      px      :     0.014863
      py      :     0.005807
 21 H s       :     0.927999  s :     0.927999
      pz      :     0.008369  p :     0.024341
      px      :     0.004876
      py      :     0.011096
 22 H s       :     0.927984  s :     0.927984
      pz      :     0.008398  p :     0.024339
      px      :     0.004880
      py      :     0.011061
 23 H s       :     0.932658  s :     0.932658
      pz      :     0.005274  p :     0.024443
      px      :     0.007824
      py      :     0.011346
 24 H s       :     0.920394  s :     0.920394
      pz      :     0.004037  p :     0.024707
      px      :     0.014874
      py      :     0.005796
 25 H s       :     0.915668  s :     0.915668
      pz      :     0.004896  p :     0.024692
      px      :     0.014970
      py      :     0.004827
 26 H s       :     0.926176  s :     0.926176
      pz      :     0.005567  p :     0.024639
      px      :     0.006934
      py      :     0.012138
 27 H s       :     0.920762  s :     0.920762
      pz      :     0.012825  p :     0.024317
      px      :     0.006771
      py      :     0.004720
 28 H s       :     0.925750  s :     0.925750
      pz      :     0.005111  p :     0.025377
      px      :     0.007203
      py      :     0.013063
 29 H s       :     0.907957  s :     0.907957
      pz      :     0.010932  p :     0.025063
      px      :     0.009824
      py      :     0.004307
 30 H s       :     0.899721  s :     0.899721
      pz      :     0.013401  p :     0.024987
      px      :     0.007249
      py      :     0.004338
 31 H s       :     0.899735  s :     0.899735
      pz      :     0.013386  p :     0.024987
      px      :     0.007264
      py      :     0.004336
 32 H s       :     0.925773  s :     0.925773
      pz      :     0.005108  p :     0.025377
      px      :     0.007209
      py      :     0.013060
 33 H s       :     0.907892  s :     0.907892
      pz      :     0.010950  p :     0.025061
      px      :     0.009806
      py      :     0.004306


                     *******************************
                     * LOEWDIN POPULATION ANALYSIS *
                     *******************************

----------------------
LOEWDIN ATOMIC CHARGES
----------------------
   0 N :    0.106873
   1 C :    0.118188
   2 N :    0.106870
   3 H :    0.054342
   4 C :   -0.008433
   5 C :   -0.008442
   6 C :    0.039784
   7 C :    0.039778
   8 C :   -0.049404
   9 H :    0.045695
  10 C :   -0.047103
  11 C :   -0.047118
  12 C :   -0.049404
  13 H :    0.045691
  14 C :   -0.047155
  15 C :   -0.047150
  16 H :    0.036191
  17 H :    0.044388
  18 H :    0.033597
  19 H :    0.032744
  20 H :    0.040932
  21 H :    0.033761
  22 H :    0.033777
  23 H :    0.032738
  24 H :    0.040936
  25 H :    0.044373
  26 H :    0.033595
  27 H :    0.036191
  28 H :    0.050650
  29 H :    0.049623
  30 H :    0.051604
  31 H :    0.051594
  32 H :    0.050648
  33 H :    0.049645

-------------------------------
LOEWDIN REDUCED ORBITAL CHARGES
-------------------------------
  0 N s       :     3.042544  s :     3.042544
      pz      :     1.386299  p :     3.773401
      px      :     1.190474
      py      :     1.196629
      dz2     :     0.004576  d :     0.077182
      dxz     :     0.009344
      dyz     :     0.013257
      dx2y2   :     0.022404
      dxy     :     0.027601
  1 C s       :     2.825810  s :     2.825810
      pz      :     0.967858  p :     2.897186
      px      :     0.902304
      py      :     1.027024
      dz2     :     0.011615  d :     0.158816
      dxz     :     0.034643
      dyz     :     0.010651
      dx2y2   :     0.043290
      dxy     :     0.058617
  2 N s       :     3.042539  s :     3.042539
      pz      :     1.386319  p :     3.773407
      px      :     1.190467
      py      :     1.196621
      dz2     :     0.004576  d :     0.077184
[...]
     76      -0.005168  -0.127978  -0.108779   0.000267   0.000039  -0.000624
     77       0.003139   0.075397   0.064073  -0.000134  -0.000041   0.000286
     78      -0.002340   0.020949   0.018448  -0.000881   0.000708   0.009359
     79      -0.003567   0.051112   0.044641  -0.001757   0.001351   0.013135
     80      -0.001954   0.032054   0.027938  -0.000802   0.000613   0.008742
     81       0.011045   0.177131   0.149708   0.000127  -0.000210  -0.001781
     82      -0.003307  -0.053937  -0.045605  -0.000031   0.000072  -0.000002
     83      -0.024511  -0.394016  -0.333083  -0.000261   0.000456   0.002428
     84      -0.000151  -0.000548   0.000048  -0.309740  -0.313540   0.000572
     85      -0.000346  -0.001018   0.000254  -0.544913  -0.550954   0.000667
     86       0.000126  -0.000053  -0.000017  -0.044301  -0.044857   0.000086
     87       0.000845  -0.000162  -0.000534  -0.149709  -0.142900  -0.001227
     88       0.000327   0.000068  -0.000011  -0.004127  -0.003852   0.000243
     89      -0.000771   0.000165   0.000519   0.169733   0.162162   0.001031
     90      -0.000333  -0.000493   0.000014  -0.103031  -0.099311  -0.000642
     91       0.000025   0.000044   0.000012   0.001074   0.001014   0.000320
     92      -0.000665  -0.000925   0.000128  -0.195852  -0.188743  -0.000721
     93      -0.000019  -0.000482   0.000075  -0.103369   0.099441   0.000642
     94      -0.000032  -0.000043   0.000019  -0.001307   0.001236   0.000320
     95       0.000036  -0.000921   0.000038  -0.196222   0.188728   0.000720
     96      -0.000222  -0.000539   0.000054  -0.310166   0.313410  -0.000572
     97       0.000353   0.001028   0.000064   0.545329  -0.550387   0.000666
     98      -0.000037  -0.000050   0.000027  -0.044768   0.045250  -0.000087
     99      -0.000595  -0.000081   0.000549  -0.149480   0.142457   0.001225
    100       0.000042  -0.000067   0.000001   0.004274  -0.003986   0.000242
    101       0.000616   0.000087  -0.000535   0.169662  -0.161839  -0.001031


-----------
IR SPECTRUM
-----------

 Mode   freq       eps      Int      T**2         TX        TY        TZ
       cm**-1   L/(mol*cm) km/mol    a.u.
----------------------------------------------------------------------------
  6:     58.48   0.000022    0.11  0.000116  (-0.000012  0.010792  0.000040)
  7:     60.75   0.000102    0.51  0.000523  (-0.000688  0.000002  0.022869)
  8:     89.60   0.000096    0.49  0.000336  (-0.003787 -0.000008  0.017936)
  9:    104.27   0.000000    0.00  0.000001  (-0.000017  0.000947  0.000207)
 10:    110.77   0.000073    0.37  0.000206  (-0.000738 -0.000044  0.014340)
 11:    143.52   0.000001    0.01  0.000003  ( 0.000007 -0.001727  0.000033)
 12:    154.08   0.000012    0.06  0.000025  ( 0.000014  0.004980  0.000036)
 13:    212.90   0.000003    0.01  0.000004  ( 0.000007  0.001947 -0.000036)
 14:    220.05   0.000005    0.03  0.000008  ( 0.002730 -0.000000  0.000269)
 15:    258.18   0.000019    0.10  0.000023  ( 0.003950  0.000199  0.002765)
 16:    258.57   0.000003    0.01  0.000003  ( 0.000474 -0.001665  0.000356)
 17:    282.53   0.000023    0.12  0.000025  (-0.000024  0.005024  0.000275)
 18:    283.78   0.001655    8.37  0.001820  ( 0.003305 -0.000017 -0.042536)
 19:    287.74   0.000003    0.02  0.000003  (-0.000013 -0.001816  0.000293)
 20:    288.30   0.001430    7.23  0.001548  ( 0.003827 -0.000027 -0.039162)
 21:    316.20   0.000077    0.39  0.000076  ( 0.008693  0.000015  0.000606)
 22:    326.41   0.000078    0.39  0.000074  (-0.000025  0.008612  0.000020)
 23:    380.01   0.000173    0.88  0.000142  (-0.008289 -0.000011  0.008585)
 24:    432.56   0.000110    0.56  0.000080  (-0.007914 -0.000009 -0.004125)
 25:    463.50   0.000089    0.45  0.000060  ( 0.000000  0.007720 -0.000007)
 26:    485.06   0.000001    0.00  0.000000  ( 0.000010  0.000585 -0.000009)
 27:    549.69   0.002066   10.44  0.001173  ( 0.034164  0.000008  0.002441)
 28:    610.29   0.000946    4.78  0.000484  ( 0.000038  0.021995 -0.000003)
 29:    618.52   0.000859    4.34  0.000434  (-0.019173  0.000045 -0.008121)
 30:    676.10   0.005798   29.30  0.002676  (-0.004489 -0.000034 -0.051537)
 31:    712.15   0.000019    0.09  0.000008  ( 0.000022  0.002859 -0.000012)
 32:    754.05   0.000505    2.55  0.000209  ( 0.000001 -0.014455  0.000011)
 33:    801.11   0.000202    1.02  0.000079  (-0.005197 -0.000004  0.007181)
 34:    872.23   0.002482   12.54  0.000888  (-0.005836  0.000024  0.029219)
 35:    915.92   0.000039    0.20  0.000013  (-0.000020  0.003660  0.000004)
 36:    927.81   0.000441    2.23  0.000148  (-0.011805  0.000002 -0.003021)
 37:    946.13   0.000384    1.94  0.000127  (-0.000024  0.011249 -0.000406)
 38:    946.43   0.001003    5.07  0.000331  (-0.001342 -0.000273 -0.018132)
 39:    966.14   0.000084    0.42  0.000027  ( 0.000014 -0.005195  0.000081)
 40:    967.21   0.000253    1.28  0.000082  (-0.002572 -0.000032 -0.008669)
 41:    974.07   0.000002    0.01  0.000001  ( 0.000007  0.000874 -0.000004)
 42:   1039.23   0.001495    7.55  0.000449  ( 0.000487  0.000006 -0.021179)
 43:   1061.14   0.000095    0.48  0.000028  (-0.005068  0.000002 -0.001526)
 44:   1065.79   0.000053    0.27  0.000015  (-0.000027  0.003929  0.000045)
 45:   1098.21   0.000661    3.34  0.000188  (-0.000003 -0.013704  0.000010)
 46:   1130.03   0.003217   16.26  0.000888  ( 0.029402  0.000013  0.004897)
 47:   1158.22   0.000800    4.04  0.000215  ( 0.000025 -0.014678  0.000020)
 48:   1176.37   0.000053    0.27  0.000014  (-0.000480 -0.003620 -0.000926)
 49:   1176.63   0.005318   26.88  0.001410  (-0.017671  0.000084 -0.033139)
 50:   1198.78   0.000302    1.53  0.000079  ( 0.007248 -0.000000  0.005107)
 51:   1221.91   0.001357    6.86  0.000347  (-0.000472  0.018613 -0.000018)
 52:   1222.19   0.050957  257.51  0.013011  ( 0.114044  0.000092  0.002205)
 53:   1251.40   0.000117    0.59  0.000029  ( 0.001753 -0.000010  0.005102)
 54:   1351.00   0.000459    2.32  0.000106  ( 0.000053 -0.010301 -0.000005)
 55:   1353.95   0.000031    0.16  0.000007  (-0.001675  0.000019  0.002080)
 56:   1354.58   0.000034    0.17  0.000008  (-0.000034 -0.002798  0.000016)
 57:   1378.42   0.002240   11.32  0.000507  ( 0.021771  0.000046 -0.005758)
 58:   1391.26   0.000617    3.12  0.000138  (-0.000082 -0.011767  0.000004)
 59:   1401.18   0.003751   18.96  0.000835  ( 0.023006  0.000063 -0.017497)
 60:   1403.67   0.000046    0.23  0.000010  ( 0.000129 -0.003174 -0.000438)
 61:   1404.62   0.005390   27.24  0.001198  (-0.005896 -0.000023  0.034100)
 62:   1407.89   0.002202   11.13  0.000488  (-0.000087  0.022094  0.000057)
 63:   1418.69   0.007094   35.85  0.001560  (-0.038796 -0.000061 -0.007441)
 64:   1426.24   0.013454   67.99  0.002944  ( 0.000052 -0.054257  0.000074)
 65:   1435.33   0.006080   30.73  0.001322  (-0.008686 -0.000058 -0.035305)
 66:   1440.83   0.000045    0.23  0.000010  ( 0.000120 -0.003127  0.000004)
 67:   1442.40   0.004427   22.37  0.000958  ( 0.025716 -0.000026 -0.017221)
 68:   1448.30   0.000076    0.39  0.000016  ( 0.001655 -0.000001  0.003706)
 69:   1448.38   0.000000    0.00  0.000000  ( 0.000168  0.000037  0.000241)
 70:   1451.71   0.000407    2.06  0.000088  (-0.000029 -0.009355  0.000005)
 71:   1457.53   0.003341   16.88  0.000715  (-0.026615  0.000734  0.002527)
 72:   1457.81   0.003245   16.40  0.000695  ( 0.000746  0.026344 -0.000091)
 73:   1463.83   0.003882   19.62  0.000828  ( 0.000751  0.028654  0.002466)
 74:   1464.15   0.003555   17.97  0.000758  ( 0.007987 -0.002723  0.026202)
 75:   1476.32   0.000386    1.95  0.000082  ( 0.003906  0.000011  0.008141)
 76:   1480.02   0.000518    2.62  0.000109  (-0.000004  0.010453  0.000049)
 77:   1516.68   0.000623    3.15  0.000128  ( 0.011313 -0.000013  0.000557)
 78:   1528.97   0.000392    1.98  0.000080  ( 0.000021  0.008945 -0.000012)
 79:   1652.44   0.035670  180.26  0.006736  (-0.082069 -0.000010 -0.000958)
 80:   1733.09   0.006433   32.51  0.001158  ( 0.000000 -0.034035  0.000023)
 81:   3070.19   0.005344   27.01  0.000543  ( 0.008444  0.000155 -0.021722)
 82:   3070.25   0.000209    1.06  0.000021  (-0.001639  0.000862  0.004220)
 83:   3074.24   0.000949    4.79  0.000096  ( 0.000189 -0.008077  0.005571)
 84:   3074.27   0.002704   13.67  0.000274  (-0.000098 -0.016339 -0.002739)
 85:   3077.27   0.003050   15.41  0.000309  ( 0.017584  0.000105  0.000264)
 86:   3078.66   0.001371    6.93  0.000139  ( 0.000162 -0.011787  0.000017)
 87:   3144.16   0.000555    2.80  0.000055  (-0.005275  0.001220 -0.005073)
 88:   3144.24   0.000181    0.91  0.000018  ( 0.002377  0.002662  0.002287)
 89:   3170.20   0.001283    6.48  0.000126  ( 0.002360  0.000077 -0.010988)
 90:   3170.38   0.000023    0.12  0.000002  ( 0.000199 -0.001192 -0.000896)
 91:   3174.72   0.000874    4.42  0.000086  (-0.000809 -0.008943  0.002305)
 92:   3174.76   0.001119    5.65  0.000110  ( 0.003441 -0.002118 -0.009677)
 93:   3178.00   0.004776   24.14  0.000469  (-0.015191 -0.004158 -0.014863)
 94:   3178.06   0.006292   31.80  0.000618  (-0.002566  0.024594 -0.002519)
 95:   3186.25   0.002381   12.03  0.000233  (-0.010104  0.005613 -0.009979)
 96:   3186.28   0.001785    9.02  0.000175  (-0.007872 -0.007186 -0.007827)
 97:   3189.19   0.005188   26.22  0.000508  (-0.021921  0.000347  0.005199)
 98:   3189.23   0.000238    1.20  0.000023  ( 0.001795  0.004465 -0.000407)
 99:   3201.73   0.000564    2.85  0.000055  ( 0.007412 -0.000005  0.000144)
100:   3206.19   0.000787    3.98  0.000077  ( 0.000007  0.008754 -0.000006)
101:   3309.60   0.010355   52.33  0.000976  (-0.000004  0.031247 -0.000018)

* The epsilon (eps) is given for a Dirac delta lineshape.
** The dipole moment derivative (T) already includes vibrational overlap.

The first frequency considered to be a vibration is 6
The total number of vibrations considered is 96


--------------------------
THERMOCHEMISTRY AT 298.15K
--------------------------

Temperature         ... 298.15 K
Pressure            ... 1.00 atm
Total Mass          ... 181.30 AMU

Throughout the following assumptions are being made:
  (1) The electronic state is orbitally nondegenerate
  (2) There are no thermally accessible electronically excited states
  (3) Hindered rotations indicated by low frequency modes are not
      treated as such but are treated as vibrations and this may
      cause some error
  (4) All equations used are the standard statistical mechanics
      equations for an ideal gas
  (5) All vibrations are strictly harmonic

freq.      58.48  E(vib)   ...       0.51 
freq.      60.75  E(vib)   ...       0.51 
freq.      89.60  E(vib)   ...       0.47 
freq.     104.27  E(vib)   ...       0.46 
freq.     110.77  E(vib)   ...       0.45 
freq.     143.52  E(vib)   ...       0.41 
freq.     154.08  E(vib)   ...       0.40 
freq.     212.90  E(vib)   ...       0.34 
freq.     220.05  E(vib)   ...       0.33 
freq.     258.18  E(vib)   ...       0.30 
freq.     258.57  E(vib)   ...       0.30 
freq.     282.53  E(vib)   ...       0.28 
freq.     283.78  E(vib)   ...       0.28 
freq.     287.74  E(vib)   ...       0.27 
freq.     288.30  E(vib)   ...       0.27 
freq.     316.20  E(vib)   ...       0.25 
freq.     326.41  E(vib)   ...       0.24 
freq.     380.01  E(vib)   ...       0.21 
freq.     432.56  E(vib)   ...       0.18 
freq.     463.50  E(vib)   ...       0.16 
freq.     485.06  E(vib)   ...       0.15 
freq.     549.69  E(vib)   ...       0.12 
freq.     610.29  E(vib)   ...       0.10 
freq.     618.52  E(vib)   ...       0.09 
freq.     676.10  E(vib)   ...       0.08 
freq.     712.15  E(vib)   ...       0.07 
freq.     754.05  E(vib)   ...       0.06 
freq.     801.11  E(vib)   ...       0.05 
freq.     872.23  E(vib)   ...       0.04 
freq.     915.92  E(vib)   ...       0.03 
freq.     927.81  E(vib)   ...       0.03 
freq.     946.13  E(vib)   ...       0.03 
freq.     946.43  E(vib)   ...       0.03 
freq.     966.14  E(vib)   ...       0.03 
freq.     967.21  E(vib)   ...       0.03 
freq.     974.07  E(vib)   ...       0.03 
freq.    1039.23  E(vib)   ...       0.02 
freq.    1061.14  E(vib)   ...       0.02 
freq.    1065.79  E(vib)   ...       0.02 
freq.    1098.21  E(vib)   ...       0.02 
freq.    1130.03  E(vib)   ...       0.01 
freq.    1158.22  E(vib)   ...       0.01 
freq.    1176.37  E(vib)   ...       0.01 
freq.    1176.63  E(vib)   ...       0.01 
freq.    1198.78  E(vib)   ...       0.01 
freq.    1221.91  E(vib)   ...       0.01 
freq.    1222.19  E(vib)   ...       0.01 
freq.    1251.40  E(vib)   ...       0.01 
freq.    1351.00  E(vib)   ...       0.01 
freq.    1353.95  E(vib)   ...       0.01 
freq.    1354.58  E(vib)   ...       0.01 
freq.    1378.42  E(vib)   ...       0.01 
freq.    1391.26  E(vib)   ...       0.00 
freq.    1401.18  E(vib)   ...       0.00 
freq.    1403.67  E(vib)   ...       0.00 
freq.    1404.62  E(vib)   ...       0.00 
freq.    1407.89  E(vib)   ...       0.00 
freq.    1418.69  E(vib)   ...       0.00 
freq.    1426.24  E(vib)   ...       0.00 
freq.    1435.33  E(vib)   ...       0.00 
freq.    1440.83  E(vib)   ...       0.00 
freq.    1442.40  E(vib)   ...       0.00 
freq.    1448.30  E(vib)   ...       0.00 
freq.    1448.38  E(vib)   ...       0.00 
freq.    1451.71  E(vib)   ...       0.00 
freq.    1457.53  E(vib)   ...       0.00 
freq.    1457.81  E(vib)   ...       0.00 
freq.    1463.83  E(vib)   ...       0.00 
freq.    1464.15  E(vib)   ...       0.00 
freq.    1476.32  E(vib)   ...       0.00 
freq.    1480.02  E(vib)   ...       0.00 
freq.    1516.68  E(vib)   ...       0.00 
freq.    1528.97  E(vib)   ...       0.00 
freq.    1652.44  E(vib)   ...       0.00 
freq.    1733.09  E(vib)   ...       0.00 
freq.    3070.19  E(vib)   ...       0.00 
freq.    3070.25  E(vib)   ...       0.00 
freq.    3074.24  E(vib)   ...       0.00 
freq.    3074.27  E(vib)   ...       0.00 
freq.    3077.27  E(vib)   ...       0.00 
freq.    3078.66  E(vib)   ...       0.00 
freq.    3144.16  E(vib)   ...       0.00 
freq.    3144.24  E(vib)   ...       0.00 
freq.    3170.20  E(vib)   ...       0.00 
freq.    3170.38  E(vib)   ...       0.00 
freq.    3174.72  E(vib)   ...       0.00 
freq.    3174.76  E(vib)   ...       0.00 
freq.    3178.00  E(vib)   ...       0.00 
freq.    3178.06  E(vib)   ...       0.00 
freq.    3186.25  E(vib)   ...       0.00 
freq.    3186.28  E(vib)   ...       0.00 
freq.    3189.19  E(vib)   ...       0.00 
freq.    3189.23  E(vib)   ...       0.00 
freq.    3201.73  E(vib)   ...       0.00 
freq.    3206.19  E(vib)   ...       0.00 
freq.    3309.60  E(vib)   ...       0.00 

------------
INNER ENERGY
------------

The inner energy is: U= E(el) + E(ZPE) + E(vib) + E(rot) + E(trans)
    E(el)   - is the total energy from the electronic structure calculation
              = E(kin-el) + E(nuc-el) + E(el-el) + E(nuc-nuc)
    E(ZPE)  - the the zero temperature vibrational energy from the frequency calculation
    E(vib)  - the the finite temperature correction to E(ZPE) due to population
              of excited vibrational states
    E(rot)  - is the rotational thermal energy
    E(trans)- is the translational thermal energy

Summary of contributions to the inner energy U:
Electronic energy                ...   -540.70595770 Eh
Zero point energy                ...      0.31140776 Eh     195.41 kcal/mol
Thermal vibrational correction   ...      0.01247020 Eh       7.83 kcal/mol
Thermal rotational correction    ...      0.00141627 Eh       0.89 kcal/mol
Thermal translational correction ...      0.00141627 Eh       0.89 kcal/mol
-----------------------------------------------------------------------
Total thermal energy                   -540.37924719 Eh


Summary of corrections to the electronic energy:
(perhaps to be used in another calculation)
Total thermal correction                  0.01530274 Eh       9.60 kcal/mol
Non-thermal (ZPE) correction              0.31140776 Eh     195.41 kcal/mol
-----------------------------------------------------------------------
Total correction                          0.32671051 Eh     205.01 kcal/mol


--------
ENTHALPY
--------

The enthalpy is H = U + kB*T
                kB is Boltzmann's constant
Total free energy                 ...   -540.37924719 Eh 
Thermal Enthalpy correction       ...      0.00094421 Eh       0.59 kcal/mol
-----------------------------------------------------------------------
Total Enthalpy                    ...   -540.37830298 Eh


Note: Only C1 symmetry has been detected, increase convergence thresholds 
      if your molecule has a higher symmetry. Symmetry factor of 1.0 is   
      used for the rotational entropy correction. 
 

Note: Rotational entropy computed according to Herzberg 
Infrared and Raman Spectra, Chapter V,1, Van Nostrand Reinhold, 1945 
Point Group:  C1, Symmetry Number:   1  
Rotational constants in cm-1:     0.036584     0.019121     0.014594 

Vibrational entropy computed according to the QRRHO of S. Grimme
Chem.Eur.J. 2012 18 9955


-------
ENTROPY
-------

The entropy contributions are T*S = T*(S(el)+S(vib)+S(rot)+S(trans))
     S(el)   - electronic entropy
     S(vib)  - vibrational entropy
     S(rot)  - rotational entropy
     S(trans)- translational entropy
The entropies will be listed as multiplied by the temperature to get
units of energy

Electronic entropy                ...      0.00000000 Eh      0.00 kcal/mol
Vibrational entropy               ...      0.02162199 Eh     13.57 kcal/mol
Rotational entropy                ...      0.01493618 Eh      9.37 kcal/mol
Translational entropy             ...      0.01971392 Eh     12.37 kcal/mol
-----------------------------------------------------------------------
Final entropy term                ...      0.05627209 Eh     35.31 kcal/mol

In case the symmetry of your molecule has not been determined correctly
or in case you have a reason to use a different symmetry number we print 
out the resulting rotational entropy values for sn=1,12 :
 --------------------------------------------------------
|  sn= 1 | S(rot)=       0.01493618 Eh      9.37 kcal/mol|
|  sn= 2 | S(rot)=       0.01428172 Eh      8.96 kcal/mol|
|  sn= 3 | S(rot)=       0.01389889 Eh      8.72 kcal/mol|
|  sn= 4 | S(rot)=       0.01362727 Eh      8.55 kcal/mol|
|  sn= 5 | S(rot)=       0.01341658 Eh      8.42 kcal/mol|
|  sn= 6 | S(rot)=       0.01324443 Eh      8.31 kcal/mol|
|  sn= 7 | S(rot)=       0.01309889 Eh      8.22 kcal/mol|
|  sn= 8 | S(rot)=       0.01297281 Eh      8.14 kcal/mol|
|  sn= 9 | S(rot)=       0.01286160 Eh      8.07 kcal/mol|
|  sn=10 | S(rot)=       0.01276212 Eh      8.01 kcal/mol|
|  sn=11 | S(rot)=       0.01267213 Eh      7.95 kcal/mol|
|  sn=12 | S(rot)=       0.01258998 Eh      7.90 kcal/mol|
 --------------------------------------------------------


-------------------
GIBBS FREE ENERGY
-------------------

The Gibbs free energy is G = H - T*S

Total enthalpy                    ...   -540.37830298 Eh 
Total entropy correction          ...     -0.05627209 Eh    -35.31 kcal/mol
-----------------------------------------------------------------------
Final Gibbs free energy         ...   -540.43457507 Eh

For completeness - the Gibbs free energy minus the electronic energy
G-E(el)                           ...      0.27138262 Eh    170.29 kcal/mol


Timings for individual modules:

Sum of individual times         ...     7605.403 sec (= 126.757 min)
GTO integral calculation        ...        3.787 sec (=   0.063 min)   0.0 %
SCF iterations                  ...     3814.260 sec (=  63.571 min)  50.2 %
SCF Gradient evaluation         ...     1060.336 sec (=  17.672 min)  13.9 %
Geometry relaxation             ...        0.773 sec (=   0.013 min)   0.0 %
Analytical frequency calculation...     2726.247 sec (=  45.437 min)  35.8 %
                             ****ORCA TERMINATED NORMALLY****
TOTAL RUN TIME: 0 days 2 hours 6 minutes 46 seconds 965 msec
