
                                 *****************
                                 * O   R   C   A *
                                 *****************

                                            #,                                       
                                            ###                                      
                                            ####                                     
                                            #####                                    
                                            ######                                   
                                           ########,                                 
                                     ,,################,,,,,                         
                               ,,#################################,,                 
                          ,,##########################################,,             
                       ,#########################################, ''#####,          
                    ,#############################################,,   '####,        
                  ,##################################################,,,,####,       
                ,###########''''           ''''###############################       
              ,#####''   ,,,,##########,,,,          '''####'''          '####       
            ,##' ,,,,###########################,,,                        '##       
           ' ,,###''''                  '''############,,,                           
         ,,##''                                '''############,,,,        ,,,,,,###''
      ,#''                                            '''#######################'''  
     '                                                          ''''####''''         
             ,#######,   #######,   ,#######,      ##                                
            ,#'     '#,  ##    ##  ,#'     '#,    #''#        ######   ,####,        
            ##       ##  ##   ,#'  ##            #'  '#       #        #'  '#        
            ##       ##  #######   ##           ,######,      #####,   #    #        
            '#,     ,#'  ##    ##  '#,     ,#' ,#      #,         ##   #,  ,#        
             '#######'   ##     ##  '#######'  #'      '#     #####' # '####'        



                  #######################################################
                  #                        -***-                        #
                  #          Department of theory and spectroscopy      #
                  #    Directorship and core code : Frank Neese         #
                  #        Max Planck Institute fuer Kohlenforschung    #
                  #                Kaiser Wilhelm Platz 1               #
                  #                 D-45470 Muelheim/Ruhr               #
                  #                      Germany                        #
                  #                                                     #
                  #                  All rights reserved                #
                  #                        -***-                        #
                  #######################################################


                         Program Version 5.0.4 -  RELEASE  -


 With contributions from (in alphabetic order):
   Daniel Aravena         : Magnetic Suceptibility
   Michael Atanasov       : Ab Initio Ligand Field Theory (pilot matlab implementation)
   Alexander A. Auer      : GIAO ZORA, VPT2 properties, NMR spectrum
   Ute Becker             : Parallelization
   Giovanni Bistoni       : ED, misc. LED, open-shell LED, HFLD
   Martin Brehm           : Molecular dynamics
   Dmytro Bykov           : SCF Hessian
   Vijay G. Chilkuri      : MRCI spin determinant printing, contributions to CSF-ICE
   Dipayan Datta          : RHF DLPNO-CCSD density
   Achintya Kumar Dutta   : EOM-CC, STEOM-CC
   Dmitry Ganyushin       : Spin-Orbit,Spin-Spin,Magnetic field MRCI
   Miquel Garcia          : C-PCM and meta-GGA Hessian, CC/C-PCM, Gaussian charge scheme
   Yang Guo               : DLPNO-NEVPT2, F12-NEVPT2, CIM, IAO-localization
   Andreas Hansen         : Spin unrestricted coupled pair/coupled cluster methods
   Benjamin Helmich-Paris : MC-RPA, TRAH-SCF, COSX integrals
   Lee Huntington         : MR-EOM, pCC
   Robert Izsak           : Overlap fitted RIJCOSX, COSX-SCS-MP3, EOM
   Marcus Kettner         : VPT2
   Christian Kollmar      : KDIIS, OOCD, Brueckner-CCSD(T), CCSD density, CASPT2, CASPT2-K
   Simone Kossmann        : Meta GGA functionals, TD-DFT gradient, OOMP2, MP2 Hessian
   Martin Krupicka        : Initial AUTO-CI
   Lucas Lang             : DCDCAS
   Marvin Lechner         : AUTO-CI (C++ implementation), FIC-MRCC
   Dagmar Lenk            : GEPOL surface, SMD
   Dimitrios Liakos       : Extrapolation schemes; Compound Job, initial MDCI parallelization
   Dimitrios Manganas     : Further ROCIS development; embedding schemes
   Dimitrios Pantazis     : SARC Basis sets
   Anastasios Papadopoulos: AUTO-CI, single reference methods and gradients
   Taras Petrenko         : DFT Hessian,TD-DFT gradient, ASA, ECA, R-Raman, ABS, FL, XAS/XES, NRVS
   Peter Pinski           : DLPNO-MP2, DLPNO-MP2 Gradient
   Christoph Reimann      : Effective Core Potentials
   Marius Retegan         : Local ZFS, SOC
   Christoph Riplinger    : Optimizer, TS searches, QM/MM, DLPNO-CCSD(T), (RO)-DLPNO pert. Triples
   Tobias Risthaus        : Range-separated hybrids, TD-DFT gradient, RPA, STAB
   Michael Roemelt        : Original ROCIS implementation
   Masaaki Saitow         : Open-shell DLPNO-CCSD energy and density
   Barbara Sandhoefer     : DKH picture change effects
   Avijit Sen             : IP-ROCIS
   Kantharuban Sivalingam : CASSCF convergence, NEVPT2, FIC-MRCI
   Bernardo de Souza      : ESD, SOC TD-DFT
   Georgi Stoychev        : AutoAux, RI-MP2 NMR, DLPNO-MP2 response
   Willem Van den Heuvel  : Paramagnetic NMR
   Boris Wezisla          : Elementary symmetry handling
   Frank Wennmohs         : Technical directorship


 We gratefully acknowledge several colleagues who have allowed us to
 interface, adapt or use parts of their codes:
   Stefan Grimme, W. Hujo, H. Kruse, P. Pracht,  : VdW corrections, initial TS optimization,
                  C. Bannwarth, S. Ehlert          DFT functionals, gCP, sTDA/sTD-DF
   Ed Valeev, F. Pavosevic, A. Kumar             : LibInt (2-el integral package), F12 methods
   Garnet Chan, S. Sharma, J. Yang, R. Olivares  : DMRG
   Ulf Ekstrom                                   : XCFun DFT Library
   Mihaly Kallay                                 : mrcc  (arbitrary order and MRCC methods)
   Jiri Pittner, Ondrej Demel                    : Mk-CCSD
   Frank Weinhold                                : gennbo (NPA and NBO analysis)
   Christopher J. Cramer and Donald G. Truhlar   : smd solvation model
   Lars Goerigk                                  : TD-DFT with DH, B97 family of functionals
   V. Asgeirsson, H. Jonsson                     : NEB implementation
   FAccTs GmbH                                   : IRC, NEB, NEB-TS, DLPNO-Multilevel, CI-OPT
                                                   MM, QMMM, 2- and 3-layer-ONIOM, Crystal-QMMM,
                                                   LR-CPCM, SF, NACMEs, symmetry and pop. for TD-DFT,
                                                   nearIR, NL-DFT gradient (VV10), updates on ESD,
                                                   ML-optimized integration grids
   S Lehtola, MJT Oliveira, MAL Marques          : LibXC Library
   Liviu Ungur et al                             : ANISO software


 Your calculation uses the libint2 library for the computation of 2-el integrals
 For citations please refer to: http://libint.valeyev.net

 Your ORCA version has been built with support for libXC version: 5.1.0
 For citations please refer to: https://tddft.org/programs/libxc/

 This ORCA versions uses:
   CBLAS   interface :  Fast vector & matrix operations
   LAPACKE interface :  Fast linear algebra routines
   SCALAPACK package :  Parallel linear algebra routines
   Shared memory     :  Shared parallel matrices
   BLAS/LAPACK       :  OpenBLAS 0.3.15  USE64BITINT DYNAMIC_ARCH NO_AFFINITY SkylakeX SINGLE_THREADED
        Core in use  :  SkylakeX
   Copyright (c) 2011-2014, The OpenBLAS Project




***************************************
The coordinates will be read from file: 6_prot_aq_2.xyz
***************************************


Your calculation utilizes the atom-pairwise dispersion correction
based on tight binding partial charges (D4)
Cite in your paper:
E.Caldeweyher, C.Bannwarth, S.Grimme, J.Chem.Phys., (2017), 147, 034112.
E.Caldeweyher, S.Ehlert, A.Hansen, H.Neugebauer, S.Grimme, J.Chem.Phys., (2018), in progress.
   

XCFun DFT library Copyright 2009-2010 Ulf Ekstrom and contributors.
See http://admol.org/xcfun for more information.
This is free software; see the source code for copying conditions.
There is ABSOLUTELY NO WARRANTY; not even for MERCHANTABILITY or FITNESS FOR A PARTICULAR PURPOSE.
For details see the documentation.
Scientific users of this library should cite U. Ekstrom, L. Visscher, R. Bast, A. J. Thorvaldsen and K. Ruud;
J.Chem.Theor.Comp. 2010, DOI: 10.1021/ct100117s
XCFun Version 0.99 

================================================================================

----- Orbital basis set information -----
Your calculation utilizes the basis: def2-SVP
   F. Weigend and R. Ahlrichs, Phys. Chem. Chem. Phys. 7, 3297 (2005).

----- AuxJ basis set information -----
Your calculation utilizes the auxiliary basis: def2/J
   F. Weigend, Phys. Chem. Chem. Phys. 8, 1057 (2006).

================================================================================
                                        WARNINGS
                       Please study these warnings very carefully!
================================================================================


WARNING: Geometry Optimization
  ===> : Switching off AutoStart
         For restart on a previous wavefunction, please use MOREAD

INFO   : the flag for use of the SHARK integral package has been found!

================================================================================
                                       INPUT FILE
================================================================================
NAME = 6_prot_aq_2.inp
|  1> # ORCA 5.0.4 - /users/bwb16179/postgrad/2024_03/DFT_Crest_Conformers/Opt/prot/6_prot_aq_2.inp # write input file
|  2> # Basic Mode
|  3> #
|  4> ! Opt Freq wB97X Def2-SVP D4 SlowConv TightSCF Defgrid2 Def2/J RIJCOSX CPCM(Water)
|  5> 
|  6> 
|  7> 
|  8> %maxcore 4500
|  9> 
| 10> %geom
| 11> Maxiter 150
| 12> END
| 13> 
| 14> * xyzfile 1 1 6_prot_aq_2.xyz
| 15> 
| 16>                          ****END OF INPUT****
================================================================================

                       *****************************
                       * Geometry Optimization Run *
                       *****************************

Geometry optimization settings:
Update method            Update   .... BFGS
Choice of coordinates    CoordSys .... Z-matrix Internals
Initial Hessian          InHess   .... Almoef's Model

Convergence Tolerances:
Energy Change            TolE     ....  5.0000e-06 Eh
Max. Gradient            TolMAXG  ....  3.0000e-04 Eh/bohr
RMS Gradient             TolRMSG  ....  1.0000e-04 Eh/bohr
Max. Displacement        TolMAXD  ....  4.0000e-03 bohr
RMS Displacement         TolRMSD  ....  2.0000e-03 bohr
Strict Convergence                ....  False
------------------------------------------------------------------------------
                        ORCA OPTIMIZATION COORDINATE SETUP
------------------------------------------------------------------------------

The optimization will be done in new redundant internal coordinates
Making redundant internal coordinates   ...  (new redundants) done
Evaluating the initial hessian          ...  (Almloef) done
Evaluating the coordinates              ...  done
Calculating the B-matrix                .... done
Calculating the G-matrix                .... done
Diagonalizing the G-matrix              .... done
Small eigenvalue found = 1.108e-02
Small eigenvalue found = 2.179e-02
Small eigenvalue found = 2.281e-02
The first mode is                       ....   81
The number of degrees of freedom        ....   96

    -----------------------------------------------------------------
                    Redundant Internal Coordinates


    -----------------------------------------------------------------
         Definition                    Initial Value    Approx d2E/dq
    -----------------------------------------------------------------
      1. B(C   1,N   0)                  1.3290         0.700055   
      2. B(N   2,C   1)                  1.3295         0.698983   
      3. B(H   3,C   1)                  1.0699         0.387675   
      4. B(C   4,N   2)                  1.3726         0.596506   
      5. B(C   5,C   4)                  1.3733         0.664350   
      6. B(C   5,N   0)                  1.3729         0.595896   
      7. B(C   6,N   0)                  1.4595         0.433470   
      8. B(C   7,N   2)                  1.4597         0.433205   
      9. B(C   8,C   6)                  1.5247         0.380956   
     10. B(H   9,C   6)                  1.0930         0.356211   
     11. B(C  10,C   6)                  1.5272         0.377467   
     12. B(C  11,C   7)                  1.5253         0.380113   
     13. B(C  12,C   7)                  1.5266         0.378213   
     14. B(H  13,C   7)                  1.0925         0.356856   
     15. B(C  14,C   4)                  1.4827         0.444437   
     16. B(C  15,C   5)                  1.4826         0.444568   
     17. B(H  16,C   8)                  1.0860         0.365464   
     18. B(H  17,C   8)                  1.0865         0.364733   
     19. B(H  18,C   8)                  1.0874         0.363502   
     20. B(H  19,C  10)                  1.0873         0.363630   
     21. B(H  20,C  10)                  1.0856         0.365928   
     22. B(H  21,C  10)                  1.0873         0.363645   
     23. B(H  22,C  11)                  1.0874         0.363505   
     24. B(H  23,C  11)                  1.0865         0.364768   
     25. B(H  24,C  11)                  1.0859         0.365561   
     26. B(H  25,C  12)                  1.0857         0.365865   
     27. B(H  26,C  12)                  1.0871         0.363944   
     28. B(H  27,C  12)                  1.0874         0.363501   
     29. B(H  28,C  15)                  1.0897         0.360546   
     30. B(H  29,C  15)                  1.0851         0.366641   
     31. B(H  30,C  15)                  1.0887         0.361769   
     32. B(H  31,C  14)                  1.0890         0.361405   
     33. B(H  32,C  14)                  1.0851         0.366579   
     34. B(H  33,C  14)                  1.0895         0.360762   
     35. A(C   5,N   0,C   6)          126.1850         0.399204   
     36. A(C   1,N   0,C   6)          125.5239         0.410723   
     37. A(C   1,N   0,C   5)          108.2437         0.434752   
     38. A(N   0,C   1,H   3)          125.2153         0.362562   
     39. A(N   2,C   1,H   3)          125.1521         0.362467   
     40. A(N   0,C   1,N   2)          109.6314         0.447467   
     41. A(C   4,N   2,C   7)          126.6086         0.399233   
     42. A(C   1,N   2,C   4)          108.2616         0.434712   
     43. A(C   1,N   2,C   7)          125.1114         0.410567   
     44. A(C   5,C   4,C  14)          129.9526         0.414064   
     45. A(N   2,C   4,C   5)          106.9173         0.433594   
     46. A(N   2,C   4,C  14)          123.1299         0.403624   
     47. A(N   0,C   5,C   4)          106.9430         0.433514   
     48. A(N   0,C   5,C  15)          123.0493         0.403573   
     49. A(C   4,C   5,C  15)          130.0068         0.414086   
     50. A(C   8,C   6,H   9)          108.9540         0.324783   
     51. A(N   0,C   6,H   9)          106.5183         0.329779   
     52. A(N   0,C   6,C  10)          109.2380         0.371069   
     53. A(N   0,C   6,C   8)          110.7513         0.371657   
     54. A(H   9,C   6,C  10)          109.4028         0.324293   
     55. A(C   8,C   6,C  10)          111.8269         0.365216   
     56. A(C  12,C   7,H  13)          109.2831         0.324494   
     57. A(C  11,C   7,H  13)          108.9656         0.324761   
     58. A(N   2,C   7,H  13)          106.6027         0.329844   
     59. A(C  11,C   7,C  12)          111.9926         0.365201   
     60. A(N   2,C   7,C  12)          109.4487         0.371156   
     61. A(N   2,C   7,C  11)          110.3943         0.371476   
     62. A(H  16,C   8,H  17)          107.7357         0.292103   
     63. A(C   6,C   8,H  16)          109.1143         0.326155   
     64. A(C   6,C   8,H  17)          111.6517         0.326048   
     65. A(C   6,C   8,H  18)          110.9547         0.325867   
     66. A(H  17,C   8,H  18)          109.1258         0.291856   
     67. A(H  16,C   8,H  18)          108.1420         0.291947   
     68. A(H  19,C  10,H  21)          108.6580         0.291735   
     69. A(C   6,C  10,H  21)          111.0978         0.325395   
     70. A(H  19,C  10,H  20)          108.3771         0.292022   
     71. A(C   6,C  10,H  20)          109.5466         0.325730   
     72. A(H  20,C  10,H  21)          108.3284         0.292024   
     73. A(C   6,C  10,H  19)          110.7568         0.325393   
     74. A(H  23,C  11,H  24)          107.8931         0.292120   
     75. A(H  22,C  11,H  24)          108.1810         0.291960   
     76. A(C   7,C  11,H  24)          109.2192         0.326051   
     77. A(H  22,C  11,H  23)          108.9731         0.291860   
     78. A(C   7,C  11,H  23)          111.5897         0.325934   
     79. A(C   7,C  11,H  22)          110.8783         0.325748   
     80. A(H  26,C  12,H  27)          108.7238         0.291756   
     81. A(H  25,C  12,H  27)          108.3012         0.291998   
     82. A(C   7,C  12,H  27)          110.9544         0.325480   
     83. A(H  25,C  12,H  26)          108.2948         0.292054   
     84. A(C   7,C  12,H  26)          110.9766         0.325545   
     85. A(C   7,C  12,H  25)          109.5101         0.325827   
     86. A(H  31,C  14,H  33)          108.4242         0.291089   
     87. A(C   4,C  14,H  33)          110.9385         0.333856   
     88. A(H  31,C  14,H  32)          108.2398         0.291822   
     89. A(C   4,C  14,H  32)          110.0734         0.334744   
     90. A(C   4,C  14,H  31)          110.9976         0.333955   
     91. A(H  32,C  14,H  33)          108.0713         0.291740   
     92. A(H  29,C  15,H  30)          108.2788         0.291876   
     93. A(H  28,C  15,H  30)          108.3535         0.291107   
     94. A(C   5,C  15,H  30)          111.0472         0.334027   
     95. A(H  28,C  15,H  29)          108.0642         0.291720   
     96. A(C   5,C  15,H  29)          110.1063         0.334770   
     97. A(C   5,C  15,H  28)          110.8937         0.333839   
     98. D(H   3,C   1,N   0,C   6)      2.1982         0.040556   
     99. D(H   3,C   1,N   0,C   5)    179.8177         0.040556   
    100. D(N   2,C   1,N   0,C   6)   -178.1810         0.040556   
    101. D(N   2,C   1,N   0,C   5)     -0.5615         0.040556   
    102. D(C   7,N   2,C   1,N   0)    179.0395         0.040419   
    103. D(C   7,N   2,C   1,H   3)     -1.3395         0.040419   
    104. D(C   4,N   2,C   1,H   3)   -179.8611         0.040419   
    105. D(C   4,N   2,C   1,N   0)      0.5178         0.040419   
    106. D(C  14,C   4,N   2,C   1)    179.8353         0.028647   
    107. D(C   5,C   4,N   2,C   1)     -0.2683         0.028647   
    108. D(C  14,C   4,N   2,C   7)      1.3418         0.028647   
    109. D(C   5,C   4,N   2,C   7)   -178.7618         0.028647   
    110. D(C  15,C   5,N   0,C   1)   -179.9266         0.028585   
    111. D(C   4,C   5,N   0,C   6)    177.9814         0.028585   
    112. D(C   4,C   5,N   0,C   1)      0.3818         0.028585   
    113. D(C  15,C   5,C   4,C  14)      0.1554         0.030828   
    114. D(C  15,C   5,C   4,N   2)   -179.7314         0.030828   
    115. D(N   0,C   5,C   4,C  14)    179.8180         0.030828   
    116. D(N   0,C   5,C   4,N   2)     -0.0689         0.030828   
    117. D(C  15,C   5,N   0,C   6)     -2.3270         0.028585   
    118. D(C  10,C   6,N   0,C   5)    -98.1042         0.016020   
    119. D(C  10,C   6,N   0,C   1)     79.0944         0.016020   
    120. D(H   9,C   6,N   0,C   5)     19.9623         0.016020   
    121. D(H   9,C   6,N   0,C   1)   -162.8391         0.016020   
    122. D(C   8,C   6,N   0,C   5)    138.2995         0.016020   
    123. D(C   8,C   6,N   0,C   1)    -44.5020         0.016020   
    124. D(C  12,C   7,N   2,C   4)    106.7450         0.016000   
    125. D(C  11,C   7,N   2,C   4)   -129.5452         0.016000   
    126. D(C  11,C   7,N   2,C   1)     52.2038         0.016000   
    127. D(H  13,C   7,N   2,C   1)    170.4116         0.016000   
    128. D(C  12,C   7,N   2,C   1)    -71.5060         0.016000   
    129. D(H  13,C   7,N   2,C   4)    -11.3374         0.016000   
    130. D(H  18,C   8,C   6,C  10)   -172.3045         0.011564   
    131. D(H  18,C   8,C   6,H   9)     66.6360         0.011564   
    132. D(H  18,C   8,C   6,N   0)    -50.2103         0.011564   
    133. D(H  17,C   8,C   6,C  10)    -50.3326         0.011564   
    134. D(H  17,C   8,C   6,N   0)     71.7616         0.011564   
    135. D(H  16,C   8,C   6,C  10)     68.6438         0.011564   
    136. D(H  16,C   8,C   6,H   9)    -52.4156         0.011564   
    137. D(H  16,C   8,C   6,N   0)   -169.2620         0.011564   
    138. D(H  17,C   8,C   6,H   9)   -171.3921         0.011564   
    139. D(H  21,C  10,C   6,H   9)    -59.4687         0.011364   
    140. D(H  21,C  10,C   6,C   8)    179.7324         0.011364   
    141. D(H  21,C  10,C   6,N   0)     56.7747         0.011364   
    142. D(H  20,C  10,C   6,H   9)     60.1780         0.011364   
    143. D(H  20,C  10,C   6,C   8)    -60.6210         0.011364   
    144. D(H  20,C  10,C   6,N   0)    176.4213         0.011364   
    145. D(H  19,C  10,C   6,H   9)    179.6718         0.011364   
    146. D(H  19,C  10,C   6,C   8)     58.8729         0.011364   
    147. D(H  19,C  10,C   6,N   0)    -64.0848         0.011364   
    148. D(H  24,C  11,C   7,C  12)    -66.7530         0.011515   
    149. D(H  24,C  11,C   7,N   2)    171.0209         0.011515   
    150. D(H  23,C  11,C   7,H  13)    173.4719         0.011515   
    151. D(H  23,C  11,C   7,C  12)     52.4483         0.011515   
    152. D(H  23,C  11,C   7,N   2)    -69.7777         0.011515   
    153. D(H  22,C  11,C   7,H  13)    -64.8487         0.011515   
    154. D(H  22,C  11,C   7,C  12)    174.1277         0.011515   
    155. D(H  24,C  11,C   7,H  13)     54.2705         0.011515   
    156. D(H  22,C  11,C   7,N   2)     51.9017         0.011515   
    157. D(H  26,C  12,C   7,N   2)     64.8249         0.011406   
    158. D(H  25,C  12,C   7,H  13)    -59.2734         0.011406   
    159. D(H  25,C  12,C   7,C  11)     61.5664         0.011406   
    160. D(H  25,C  12,C   7,N   2)   -175.6696         0.011406   
    161. D(H  27,C  12,C   7,H  13)     60.2263         0.011406   
    162. D(H  27,C  12,C   7,C  11)   -178.9339         0.011406   
    163. D(H  27,C  12,C   7,N   2)    -56.1698         0.011406   
    164. D(H  26,C  12,C   7,H  13)   -178.7790         0.011406   
    165. D(H  26,C  12,C   7,C  11)    -57.9392         0.011406   
    166. D(H  33,C  14,C   4,C   5)   -117.6479         0.014571   
    167. D(H  33,C  14,C   4,N   2)     62.2228         0.014571   
    168. D(H  32,C  14,C   4,C   5)      1.9187         0.014571   
    169. D(H  32,C  14,C   4,N   2)   -178.2105         0.014571   
    170. D(H  31,C  14,C   4,C   5)    121.7332         0.014571   
    171. D(H  31,C  14,C   4,N   2)    -58.3961         0.014571   
    172. D(H  30,C  15,C   5,C   4)   -123.1473         0.014579   
    173. D(H  30,C  15,C   5,N   0)     57.2379         0.014579   
    174. D(H  29,C  15,C   5,C   4)     -3.2306         0.014579   
    175. D(H  29,C  15,C   5,N   0)    177.1546         0.014579   
    176. D(H  28,C  15,C   5,C   4)    116.3200         0.014579   
    177. D(H  28,C  15,C   5,N   0)    -63.2948         0.014579   
    -----------------------------------------------------------------

Number of atoms                         .... 34
Number of degrees of freedom            .... 177

         *************************************************************
         *                GEOMETRY OPTIMIZATION CYCLE   1            *
         *************************************************************
---------------------------------
CARTESIAN COORDINATES (ANGSTROEM)
---------------------------------
  N     -1.079059   -0.028733   -0.128055
  C      0.011074   -0.788721   -0.147449
  N      1.091725   -0.022600   -0.034705
  H      0.018771   -1.854109   -0.245462
  C      0.683661    1.283511    0.073118
  C     -0.688399    1.279594    0.015116
  C     -2.453519   -0.515630   -0.191229
  C      2.466874   -0.510779    0.001804
  C     -2.596656   -1.592039   -1.261504
  H     -3.074518    0.341308   -0.464304
  C     -2.870451   -1.025804    1.186510
  C      2.736436   -1.429545   -1.185494
  C      2.723095   -1.209226    1.334905
  H      3.112038    0.367463   -0.075208
  C      1.627243    2.417892    0.219025
  C     -1.648266    2.407865    0.077396
  H     -3.651052   -1.798749   -1.419179
  H     -2.118402   -2.520710   -0.962557
  H     -2.171709   -1.260362   -2.205927
  H     -2.269256   -1.883684    1.477929
  H     -3.912099   -1.330622    1.161034
  H     -2.759346   -0.250746    1.940987
  H      2.450949   -0.950359   -2.118982
  H      2.200508   -2.370119   -1.092912
  H      3.798051   -1.653466   -1.230408
  H      3.765961   -1.505114    1.394671
  H      2.109228   -2.101247    1.431206
  H      2.508041   -0.545742    2.169212
  H     -2.205201    2.496194   -0.855014
  H     -1.117957    3.340101    0.242168
  H     -2.359783    2.271502    0.890112
  H      2.251326    2.295132    1.102996
  H      1.078229    3.348717    0.317469
  H      2.276378    2.498910   -0.652220

----------------------------
CARTESIAN COORDINATES (A.U.)
----------------------------
  NO LB      ZA    FRAG     MASS         X           Y           Z
   0 N     7.0000    0    14.007   -2.039126   -0.054297   -0.241988
   1 C     6.0000    0    12.011    0.020928   -1.490467   -0.278638
   2 N     7.0000    0    14.007    2.063061   -0.042707   -0.065583
   3 H     1.0000    0     1.008    0.035472   -3.503759   -0.463856
   4 C     6.0000    0    12.011    1.291931    2.425484    0.138174
   5 C     6.0000    0    12.011   -1.300886    2.418082    0.028565
   6 C     6.0000    0    12.011   -4.636480   -0.974400   -0.361370
   7 C     6.0000    0    12.011    4.661717   -0.965232    0.003410
   8 C     6.0000    0    12.011   -4.906968   -3.008517   -2.383896
   9 H     1.0000    0     1.008   -5.809996    0.644979   -0.877407
  10 C     6.0000    0    12.011   -5.424367   -1.938489    2.242180
  11 C     6.0000    0    12.011    5.171114   -2.701448   -2.240258
  12 C     6.0000    0    12.011    5.145903   -2.285106    2.522604
  13 H     1.0000    0     1.008    5.880900    0.694405   -0.142123
  14 C     6.0000    0    12.011    3.075043    4.569154    0.413898
  15 C     6.0000    0    12.011   -3.114772    4.550206    0.146257
  16 H     1.0000    0     1.008   -6.899489   -3.399143   -2.681860
  17 H     1.0000    0     1.008   -4.003199   -4.763452   -1.818970
  18 H     1.0000    0     1.008   -4.103935   -2.381738   -4.168599
  19 H     1.0000    0     1.008   -4.288273   -3.559647    2.792882
  20 H     1.0000    0     1.008   -7.392795   -2.514510    2.194036
  21 H     1.0000    0     1.008   -5.214409   -0.473842    3.667933
  22 H     1.0000    0     1.008    4.631622   -1.795919   -4.004296
  23 H     1.0000    0     1.008    4.158357   -4.478875   -2.065305
  24 H     1.0000    0     1.008    7.177275   -3.124597   -2.325134
  25 H     1.0000    0     1.008    7.116636   -2.844253    2.635547
  26 H     1.0000    0     1.008    3.985863   -3.970782    2.704587
  27 H     1.0000    0     1.008    4.739510   -1.031302    4.099216
  28 H     1.0000    0     1.008   -4.167227    4.717122   -1.615742
  29 H     1.0000    0     1.008   -2.112633    6.311876    0.457631
  30 H     1.0000    0     1.008   -4.459343    4.292518    1.682067
  31 H     1.0000    0     1.008    4.254390    4.337170    2.084360
  32 H     1.0000    0     1.008    2.037558    6.328158    0.599930
  33 H     1.0000    0     1.008    4.301731    4.722255   -1.232518

--------------------------------
INTERNAL COORDINATES (ANGSTROEM)
--------------------------------
 N      0   0   0     0.000000000000     0.00000000     0.00000000
 C      1   0   0     1.329040563439     0.00000000     0.00000000
 N      2   1   0     1.329457956203   109.63140963     0.00000000
 H      2   1   3     1.069915102497   125.21528139   180.37923370
 C      3   2   1     1.372613331280   108.26156761     0.51780214
 C      1   2   3     1.372891688775   108.24374965   359.43847243
 C      1   2   3     1.459521172619   125.52386131   181.81898749
 C      3   2   1     1.459687596163   125.11141654   179.03947677
 C      7   1   2     1.524674241290   110.75131115   315.49804329
 H      7   1   2     1.092955613763   106.51831007   197.16087339
 C      7   1   2     1.527178567561   109.23795523    79.09437060
 C      8   3   2     1.525277341576   110.39425999    52.20377882
 C      8   3   2     1.526641348046   109.44866928   288.49395311
 H      8   3   2     1.092463345609   106.60266861   170.41159025
 C      5   3   2     1.482719486305   123.12993834   179.83529500
 C      6   1   2     1.482639212928   123.04928954   180.07341850
 H      9   7   1     1.085975411527   109.11426076   190.73803348
 H      9   7   1     1.086520259468   111.65165087    71.76157371
 H      9   7   1     1.087440112103   110.95472883   309.78967736
 H     11   7   1     1.087344659993   110.75682693   295.91518506
 H     11   7   1     1.085629832793   109.54659670   176.42132921
 H     11   7   1     1.087333067952   111.09779831    56.77468239
 H     12   8   3     1.087438513612   110.87825581    51.90169721
 H     12   8   3     1.086494143624   111.58968161   290.22230767
 H     12   8   3     1.085902498903   109.21924212   171.02093536
 H     13   8   3     1.085676320036   109.51013672   184.33043054
 H     13   8   3     1.087109917931   110.97658018    64.82485192
 H     13   8   3     1.087440898353   110.95441045   303.83018699
 H     16   6   1     1.089663385697   110.89370014   296.70515067
 H     16   6   1     1.085099552754   110.10632978   177.15455868
 H     16   6   1     1.088741309773   111.04721660    57.23788918
 H     15   5   3     1.089015000940   110.99755813   301.60394825
 H     15   5   3     1.085145568940   110.07335390   181.78947236
 H     15   5   3     1.089499833301   110.93848949    62.22281725

---------------------------
INTERNAL COORDINATES (A.U.)
---------------------------
 N      0   0   0     0.000000000000     0.00000000     0.00000000
 C      1   0   0     2.511522685772     0.00000000     0.00000000
 N      2   1   0     2.512311443787   109.63140963     0.00000000
 H      2   1   3     2.021846530265   125.21528139   180.37923370
 C      3   2   1     2.593863283888   108.26156761     0.51780214
 C      1   2   3     2.594389303322   108.24374965   359.43847243
 C      1   2   3     2.758095302910   125.52386131   181.81898749
 C      3   2   1     2.758409797830   125.11141654   179.03947677
 C      7   1   2     2.881216759481   110.75131115   315.49804329
 H      7   1   2     2.065386786543   106.51831007   197.16087339
 C      7   1   2     2.885949250284   109.23795523    79.09437060
 C      8   3   2     2.882356453854   110.39425999    52.20377882
 C      8   3   2     2.884934052527   109.44866928   288.49395311
 H      8   3   2     2.064456534548   106.60266861   170.41159025
 C      5   3   2     2.801933762545   123.12993834   179.83529500
 C      6   1   2     2.801782067846   123.04928954   180.07341850
 H      9   7   1     2.052196115959   109.11426076   190.73803348
 H      9   7   1     2.053225729352   111.65165087    71.76157371
 H      9   7   1     2.054963998915   110.95472883   309.78967736
 H     11   7   1     2.054783620569   110.75682693   295.91518506
 H     11   7   1     2.051543066794   109.54659670   176.42132921
 H     11   7   1     2.054761714785   111.09779831    56.77468239
 H     12   8   3     2.054960978206   110.87825581    51.90169721
 H     12   8   3     2.053176377559   111.58968161   290.22230767
 H     12   8   3     2.052058331067   109.21924212   171.02093536
 H     13   8   3     2.051630914951   109.51013672   184.33043054
 H     13   8   3     2.054340022360   110.97658018    64.82485192
 H     13   8   3     2.054965484712   110.95441045   303.83018699
 H     16   6   1     2.059165377129   110.89370014   296.70515067
 H     16   6   1     2.050540982745   110.10632978   177.15455868
 H     16   6   1     2.057422906159   111.04721660    57.23788918
 H     15   5   3     2.057940107509   110.99755813   301.60394825
 H     15   5   3     2.050627940734   110.07335390   181.78947236
 H     15   5   3     2.058856307891   110.93848949    62.22281725

---------------------
BASIS SET INFORMATION
---------------------
There are 3 groups of distinct atoms

 Group   1 Type N   : 7s4p1d contracted to 3s2p1d pattern {511/31/1}
 Group   2 Type C   : 7s4p1d contracted to 3s2p1d pattern {511/31/1}
 Group   3 Type H   : 4s1p contracted to 2s1p pattern {31/1}

Atom   0N    basis set group =>   1
Atom   1C    basis set group =>   2
Atom   2N    basis set group =>   1
Atom   3H    basis set group =>   3
Atom   4C    basis set group =>   2
Atom   5C    basis set group =>   2
Atom   6C    basis set group =>   2
Atom   7C    basis set group =>   2
Atom   8C    basis set group =>   2
Atom   9H    basis set group =>   3
Atom  10C    basis set group =>   2
Atom  11C    basis set group =>   2
Atom  12C    basis set group =>   2
Atom  13H    basis set group =>   3
Atom  14C    basis set group =>   2
Atom  15C    basis set group =>   2
Atom  16H    basis set group =>   3
Atom  17H    basis set group =>   3
Atom  18H    basis set group =>   3
Atom  19H    basis set group =>   3
Atom  20H    basis set group =>   3
Atom  21H    basis set group =>   3
Atom  22H    basis set group =>   3
Atom  23H    basis set group =>   3
Atom  24H    basis set group =>   3
Atom  25H    basis set group =>   3
Atom  26H    basis set group =>   3
Atom  27H    basis set group =>   3
Atom  28H    basis set group =>   3
Atom  29H    basis set group =>   3
Atom  30H    basis set group =>   3
Atom  31H    basis set group =>   3
Atom  32H    basis set group =>   3
Atom  33H    basis set group =>   3
---------------------------------
AUXILIARY/J BASIS SET INFORMATION
---------------------------------
There are 3 groups of distinct atoms

 Group   1 Type N   : 12s5p4d2f1g contracted to 6s4p3d1f1g pattern {711111/2111/211/2/1}
 Group   2 Type C   : 12s5p4d2f1g contracted to 6s4p3d1f1g pattern {711111/2111/211/2/1}
 Group   3 Type H   : 5s2p1d contracted to 3s1p1d pattern {311/2/1}

Atom   0N    basis set group =>   1
Atom   1C    basis set group =>   2
Atom   2N    basis set group =>   1
Atom   3H    basis set group =>   3
Atom   4C    basis set group =>   2
Atom   5C    basis set group =>   2
Atom   6C    basis set group =>   2
Atom   7C    basis set group =>   2
Atom   8C    basis set group =>   2
Atom   9H    basis set group =>   3
Atom  10C    basis set group =>   2
Atom  11C    basis set group =>   2
Atom  12C    basis set group =>   2
Atom  13H    basis set group =>   3
Atom  14C    basis set group =>   2
Atom  15C    basis set group =>   2
Atom  16H    basis set group =>   3
Atom  17H    basis set group =>   3
Atom  18H    basis set group =>   3
Atom  19H    basis set group =>   3
Atom  20H    basis set group =>   3
Atom  21H    basis set group =>   3
Atom  22H    basis set group =>   3
Atom  23H    basis set group =>   3
Atom  24H    basis set group =>   3
Atom  25H    basis set group =>   3
Atom  26H    basis set group =>   3
Atom  27H    basis set group =>   3
Atom  28H    basis set group =>   3
Atom  29H    basis set group =>   3
Atom  30H    basis set group =>   3
Atom  31H    basis set group =>   3
Atom  32H    basis set group =>   3
Atom  33H    basis set group =>   3
------------------------------------------------------------------------------
                           ORCA GTO INTEGRAL CALCULATION
                           -- RI-GTO INTEGRALS CHOSEN --
------------------------------------------------------------------------------
------------------------------------------------------------------------------
                   ___                                                        
                  /   \      - P O W E R E D   B Y -                         
                 /     \                                                     
                 |  |  |   _    _      __       _____    __    __             
                 |  |  |  | |  | |    /  \     |  _  \  |  |  /  |          
                  \  \/   | |  | |   /    \    | | | |  |  | /  /          
                 / \  \   | |__| |  /  /\  \   | |_| |  |  |/  /          
                |  |  |   |  __  | /  /__\  \  |    /   |      \           
                |  |  |   | |  | | |   __   |  |    \   |  |\   \          
                \     /   | |  | | |  |  |  |  | |\  \  |  | \   \       
                 \___/    |_|  |_| |__|  |__|  |_| \__\ |__|  \__/        
                                                                              
                      - O R C A' S   B I G   F R I E N D -                    
                                      &                                       
                       - I N T E G R A L  F E E D E R -                       
                                                                              
 v1 FN, 2020, v2 2021                                                         
------------------------------------------------------------------------------


Reading SHARK input file 6_prot_aq_2.SHARKINP.tmp ... ok
----------------------
SHARK INTEGRAL PACKAGE
----------------------

Number of atoms                             ...     34
Number of basis functions                   ...    287
Number of shells                            ...    141
Maximum angular momentum                    ...      2
Integral batch strategy                     ... SHARK/LIBINT Hybrid
RI-J (if used) integral strategy            ... SPLIT-RIJ (Revised 2003 algorithm where possible)
Printlevel                                  ...      1
Contraction scheme used                     ... SEGMENTED contraction
Coulomb Range Separation                    ... NOT USED
Exchange Range Separation                   ... Long Range
   Mu parameter                             ...  0.300000
   Scaling (regular/separated)              ...  0.157706  0.842294
Finite Nucleus Model                        ... NOT USED
Auxiliary Coulomb fitting basis             ... AVAILABLE
   # of basis functions in Aux-J            ...    868
   # of shells in Aux-J                     ...    300
   Maximum angular momentum in Aux-J        ...      4
Auxiliary J/K fitting basis                 ... NOT available
Auxiliary Correlation fitting basis         ... NOT available
Auxiliary 'external' fitting basis          ... NOT available
Integral threshold                          ...     2.500000e-11
Primitive cut-off                           ...     2.500000e-12
Primitive pair pre-selection threshold      ...     2.500000e-12

Calculating pre-screening integrals         ... done (  0.1 sec) Dimension = 141
Organizing shell pair data                  ... done (  0.1 sec)
Shell pair information
Total number of shell pairs                 ...     10011
Shell pairs after pre-screening             ...      8654
Total number of primitive shell pairs       ...     34423
Primitive shell pairs kept                  ...     20633
          la=0 lb=0:   2977 shell pairs
          la=1 lb=0:   3280 shell pairs
          la=1 lb=1:    928 shell pairs
          la=2 lb=0:    898 shell pairs
          la=2 lb=1:    495 shell pairs
          la=2 lb=2:     76 shell pairs

Calculating one electron integrals          ... done (  0.1 sec)
Calculating RI/J V-Matrix + Cholesky decomp.... done (  0.1 sec)
Calculating Nuclear repulsion               ... done (  0.0 sec) ENN=    876.383195838502 Eh

SHARK setup successfully completed in   0.4 seconds

Maximum memory used throughout the entire GTOINT-calculation: 48.8 MB
-------------------------------------------------------------------------------
                                 ORCA SCF
-------------------------------------------------------------------------------

------------
SCF SETTINGS
------------
Hamiltonian:
 Density Functional     Method          .... DFT(GTOs)
 Exchange Functional    Exchange        .... WB97X
 Correlation Functional Correlation     .... WB97X
 Gradients option       PostSCFGGA      .... off
 Hybrid DFT is turned on
   Fraction HF Exchange ScalHFX         ....  0.157706
   Scaling of DF-GGA-X  ScalDFX         ....  0.000000
   Scaling of DF-GGA-C  ScalDFC         ....  1.000000
   Scaling of DF-LDA-C  ScalLDAC        ....  1.000000
   Perturbative correction              ....  0.000000
   Density functional embedding theory  .... OFF
 Long-range corrected/Screened/Range-Separated Hybrid DFT is turned on
   Amount of maximum screened exact exchange              ....  0.842294
   Range separation parameter mu (erf(mu*r12)/r12)        ....  0.300000
 RI-approximation to the Coulomb term is turned on
   Number of AuxJ basis functions       .... 868
   RIJ-COSX (HFX calculated with COS-X)).... on


General Settings:
 Integral files         IntName         .... 6_prot_aq_2
 Hartree-Fock type      HFTyp           .... RHF
 Total Charge           Charge          ....    1
 Multiplicity           Mult            ....    1
 Number of Electrons    NEL             ....  100
 Basis Dimension        Dim             ....  287
 Nuclear Repulsion      ENuc            ....    876.3831958385 Eh

Convergence Acceleration:
 DIIS                   CNVDIIS         .... on
   Start iteration      DIISMaxIt       ....     0
   Startup error        DIISStart       ....  0.200000
   # of expansion vecs  DIISMaxEq       ....     5
   Bias factor          DIISBfac        ....   1.050
   Max. coefficient     DIISMaxC        ....  10.000
 Trust-Rad. Augm. Hess. CNVTRAH         .... auto
   Auto Start mean grad. ratio tolernc. ....  1.125000
   Auto Start start iteration           ....    20
   Auto Start num. interpolation iter.  ....    10
   Max. Number of Micro iterations      ....    16
   Max. Number of Macro iterations      .... Maxiter - #DIIS iter
   Number of Davidson start vectors     ....     2
   Converg. threshold I  (grad. norm)   ....   1.000e-05
   Converg. threshold II (energy diff.) ....   1.000e-08
   Grad. Scal. Fac. for Micro threshold ....   0.100
   Minimum threshold for Micro iter.    ....   0.010
   NR start threshold (gradient norm)   ....   0.001
   Initial trust radius                 ....   0.400
   Minimum AH scaling param. (alpha)    ....   1.000
   Maximum AH scaling param. (alpha)    .... 1000.000
   Orbital update algorithm             .... Taylor
   White noise on init. David. guess    .... on
   Maximum white noise                  ....   0.010
   Quad. conv. algorithm                .... NR
 SOSCF                  CNVSOSCF        .... on
   Start iteration      SOSCFMaxIt      ....   150
   Startup grad/error   SOSCFStart      ....  0.001000
 Level Shifting         CNVShift        .... on
   Level shift para.    LevelShift      ....    0.2500
   Turn off err/grad.   ShiftErr        ....    0.0000
 Zerner damping         CNVZerner       .... off
 Static damping         CNVDamp         .... on
   Fraction old density DampFac         ....    0.8500
   Max. Damping (<1)    DampMax         ....    0.9800
   Min. Damping (>=0)   DampMin         ....    0.0000
   Turn off err/grad.   DampErr         ....    0.0300
 Fernandez-Rico         CNVRico         .... off

SCF Procedure:
 Maximum # iterations   MaxIter         ....   125
 SCF integral mode      SCFMode         .... Direct
   Integral package                     .... SHARK and LIBINT hybrid scheme
 Reset frequency        DirectResetFreq ....    20
 Integral Threshold     Thresh          ....  2.500e-11 Eh
 Primitive CutOff       TCut            ....  2.500e-12 Eh

Convergence Tolerance:
 Convergence Check Mode ConvCheckMode   .... Total+1el-Energy
 Convergence forced     ConvForced      .... 0
 Energy Change          TolE            ....  1.000e-08 Eh
 1-El. energy change                    ....  1.000e-05 Eh
 Orbital Gradient       TolG            ....  1.000e-05
 Orbital Rotation angle TolX            ....  1.000e-05
 DIIS Error             TolErr          ....  5.000e-07


Diagonalization of the overlap matrix:
Smallest eigenvalue                        ... 8.710e-04
Time for diagonalization                   ...    0.014 sec
Threshold for overlap eigenvalues          ... 1.000e-08
Number of eigenvalues below threshold      ... 0
Time for construction of square roots      ...    0.006 sec
Total time needed                          ...    0.020 sec

Time for model grid setup =    0.714 sec

------------------------------
INITIAL GUESS: MODEL POTENTIAL
------------------------------
Loading Hartree-Fock densities                     ... done
Calculating cut-offs                               ... done
Initializing the effective Hamiltonian             ... done
Setting up the integral package (SHARK)            ... done
Starting the Coulomb interaction                   ... done (   0.8 sec)
Reading the grid                                   ... done
Mapping shells                                     ... done
Starting the XC term evaluation                    ... done (   0.8 sec)
  promolecular density results
     # of electrons  =    100.989148361
     EX              =    -75.691977614
     EC              =     -3.352772691
     EX+EC           =    -79.044750305
Transforming the Hamiltonian                       ... done (   0.0 sec)
Diagonalizing the Hamiltonian                      ... done (   0.0 sec)
Back transforming the eigenvectors                 ... done (   0.0 sec)
Now organizing SCF variables                       ... done
                      ------------------
                      INITIAL GUESS DONE (   2.3 sec)
                      ------------------
-------------------
DFT GRID GENERATION
-------------------

General Integration Accuracy     IntAcc      ... 4.388
Radial Grid Type                 RadialGrid  ... OptM3 with GC (2021)
Angular Grid (max. ang.)         AngularGrid ... 4 (Lebedev-302)
Angular grid pruning method      GridPruning ... 4 (adaptive)
Weight generation scheme         WeightScheme... Becke
Basis function cutoff            BFCut       ... 1.0000e-11
Integration weight cutoff        WCut        ... 1.0000e-14
Angular grids for H and He will be reduced by one unit
Partially contracted basis set               ... off
Rotationally invariant grid construction     ... off

Total number of grid points                  ...   144246
Total number of batches                      ...     2270
Average number of points per batch           ...       63
Average number of grid points per atom       ...     4243
Time for grid setup =    2.578 sec

--------------------
COSX GRID GENERATION
--------------------

GRIDX 1
-------
General Integration Accuracy     IntAcc      ... 3.816
Radial Grid Type                 RadialGrid  ... OptM3 with GC (2021)
Angular Grid (max. ang.)         AngularGrid ... 1 (Lebedev-50)
Angular grid pruning method      GridPruning ... 4 (adaptive)
Weight generation scheme         WeightScheme... Becke
Basis function cutoff            BFCut       ... 1.0000e-11
Integration weight cutoff        WCut        ... 1.0000e-14
Angular grids for H and He will be reduced by one unit
Partially contracted basis set               ... on
Rotationally invariant grid construction     ... off

Total number of grid points                  ...    18448
Total number of batches                      ...      309
Average number of points per batch           ...       59
Average number of grid points per atom       ...      543
UseSFitting                                  ... on

GRIDX 2
-------
General Integration Accuracy     IntAcc      ... 4.020
Radial Grid Type                 RadialGrid  ... OptM3 with GC (2021)
Angular Grid (max. ang.)         AngularGrid ... 2 (Lebedev-110)
Angular grid pruning method      GridPruning ... 4 (adaptive)
Weight generation scheme         WeightScheme... Becke
Basis function cutoff            BFCut       ... 1.0000e-11
Integration weight cutoff        WCut        ... 1.0000e-14
Angular grids for H and He will be reduced by one unit
Partially contracted basis set               ... on
Rotationally invariant grid construction     ... off

Total number of grid points                  ...    38229
Total number of batches                      ...      617
Average number of points per batch           ...       61
Average number of grid points per atom       ...     1124
UseSFitting                                  ... on

GRIDX 3
-------
General Integration Accuracy     IntAcc      ... 4.338
Radial Grid Type                 RadialGrid  ... OptM3 with GC (2021)
Angular Grid (max. ang.)         AngularGrid ... 3 (Lebedev-194)
Angular grid pruning method      GridPruning ... 4 (adaptive)
Weight generation scheme         WeightScheme... Becke
Basis function cutoff            BFCut       ... 1.0000e-11
Integration weight cutoff        WCut        ... 1.0000e-14
Angular grids for H and He will be reduced by one unit
Partially contracted basis set               ... on
Rotationally invariant grid construction     ... off

Total number of grid points                  ...    83076
Total number of batches                      ...     1315
Average number of points per batch           ...       63
Average number of grid points per atom       ...     2443
UseSFitting                                  ... on

Time for X-Grid setup             =    3.354 sec


--------------------
CPCM SOLVATION MODEL
--------------------
CPCM parameters:
  Epsilon                                         ...      80.4000
  Refrac                                          ...       1.3300
  Rsolv                                           ...       1.3000
  Surface type                                    ... GAUSSIAN VDW
  Epsilon function type                           ...         CPCM
Radii:
 Radius for N  used is    3.5149 Bohr (=   1.8600 Ang.)
 Radius for C  used is    3.8550 Bohr (=   2.0400 Ang.)
 Radius for H  used is    2.4944 Bohr (=   1.3200 Ang.)
Calculating surface                               ...        done! (  0.0s)
GEPOL surface points                              ...         1795
GEPOL Volume                                      ...    1695.7178
GEPOL Surface-area                                ...     925.5145
Calculating surface distance matrix               ...        done! (  0.0s)
Performing Cholesky decomposition & store         ...        done! (  0.1s)
Overall time for CPCM initialization              ...                 0.2s
--------------
SCF ITERATIONS
--------------
ITER       Energy         Delta-E        Max-DP      RMS-DP      [F,P]     Damp
               ***  Starting incremental Fock matrix formation  ***
  0   -540.4156610531   0.000000000000 0.03357104  0.00063789  0.1516905 0.8500
  1   -540.4739344694  -0.058273416286 0.03020282  0.00059321  0.1221613 0.8500
                               ***Turning on DIIS***
  2   -540.5181781327  -0.044243663294 0.02363676  0.00048342  0.0937457 0.8500
  3   -540.5509956531  -0.032817520468 0.01476100  0.00034673  0.0710256 0.8500
  4   -540.5762449356  -0.025249282462 0.00993370  0.00026759  0.0565399 0.8500
  5   -540.5960789380  -0.019834002349 0.00755818  0.00022041  0.0467482 0.8500
  6   -540.6121608990  -0.016081961003 0.00612455  0.00018626  0.0393127 0.8500
  7   -540.6254410657  -0.013280166789 0.00521834  0.00016025  0.0332850 0.8500
  8   -540.6365285387  -0.011087472909 0.02964228  0.00091864  0.0281387 0.0000
  9   -540.6958988722  -0.059370333588 0.00142003  0.00003058  0.0012234 0.0000
                      *** Initiating the SOSCF procedure ***
                           *** Shutting down DIIS ***
                      *** Re-Reading the Fockian *** 
                      *** Removing any level shift *** 
ITER      Energy       Delta-E        Grad      Rot      Max-DP    RMS-DP
 10   -540.69592105  -0.0000221762  0.000148  0.000148  0.000548  0.000013
               *** Restarting incremental Fock matrix formation ***
 11   -540.69596287  -0.0000418221  0.000084  0.000131  0.000317  0.000010
 12   -540.69596332  -0.0000004507  0.000055  0.000168  0.000186  0.000005
 13   -540.69596339  -0.0000000683  0.000012  0.000018  0.000043  0.000001
 14   -540.69596340  -0.0000000145  0.000006  0.000014  0.000009  0.000000
                 **** Energy Check signals convergence ****
              ***Rediagonalizing the Fockian in SOSCF/NRSCF***

               *****************************************************
               *                     SUCCESS                       *
               *           SCF CONVERGED AFTER  15 CYCLES          *
               *****************************************************

Old exchange energy                            =    -25.379181358 Eh
New exchange energy                            =    -25.379177546 Eh
Exchange energy change after final integration =      0.000003812 Eh
Total energy after final integration           =   -540.695959597 Eh
Final COS-X integration done in                =    95.492 sec

----------------
TOTAL SCF ENERGY
----------------

Total Energy       :         -540.69595960 Eh          -14713.08506 eV

Components:
Nuclear Repulsion  :          876.38319584 Eh           23847.59915 eV
Electronic Energy  :        -1417.07915544 Eh          -38560.68421 eV
One Electron Energy:        -2450.92070858 Eh          -66692.94308 eV
Two Electron Energy:         1033.84155315 Eh           28132.25888 eV
Max COSX asymmetry :            0.00000183 Eh               0.00005 eV
CPCM Dielectric    :           -0.07371623 Eh              -2.00592 eV

Virial components:
Potential Energy   :        -1075.06074983 Eh          -29253.89024 eV
Kinetic Energy     :          534.36479023 Eh           14540.80518 eV
Virial Ratio       :            2.01184803


DFT components:
N(Alpha)           :       50.000032528859 electrons
N(Beta)            :       50.000032528859 electrons
N(Total)           :      100.000065057717 electrons
E(XC)              :      -55.662566853310 Eh       
DFET-embed. en.    :        0.000000000000 Eh       
CPCM Solvation Model Properties:
Surface-charge          :           -1.02375977
Charge-correction       :            0.00308901 Eh               0.08406 eV
Free-energy (cav+disp)  :  This term is not implemented in the current solvation scheme

---------------
SCF CONVERGENCE
---------------

  Last Energy change         ...   -4.8133e-09  Tolerance :   1.0000e-08
  Last MAX-Density change    ...    6.2172e-15  Tolerance :   1.0000e-07
  Last RMS-Density change    ...    4.3516e-17  Tolerance :   5.0000e-09
  Last Orbital Gradient      ...    1.8733e-06  Tolerance :   1.0000e-05
  Last Orbital Rotation      ...    6.9573e-06  Tolerance :   1.0000e-05

             **** THE GBW FILE WAS UPDATED (6_prot_aq_2.gbw) ****
             **** DENSITY 6_prot_aq_2.scfp WAS UPDATED ****
             **** ENERGY FILE WAS UPDATED (6_prot_aq_2.en.tmp) ****
             **** THE GBW FILE WAS UPDATED (6_prot_aq_2.gbw) ****
             **** DENSITY 6_prot_aq_2.scfp WAS UPDATED ****
----------------
ORBITAL ENERGIES
----------------

  NO   OCC          E(Eh)            E(eV) 
   0   2.0000     -14.502211      -394.6252 
   1   2.0000     -14.501874      -394.6161 
   2   2.0000     -10.372988      -282.2633 
   3   2.0000     -10.333345      -281.1846 
   4   2.0000     -10.333149      -281.1793 
   5   2.0000     -10.329439      -281.0783 
   6   2.0000     -10.328869      -281.0628 
   7   2.0000     -10.282362      -279.7973 
   8   2.0000     -10.282244      -279.7941 
   9   2.0000     -10.270844      -279.4839 
  10   2.0000     -10.270293      -279.4689 
  11   2.0000     -10.269362      -279.4436 
  12   2.0000     -10.269356      -279.4434 
  13   2.0000      -1.213412       -33.0186 
  14   2.0000      -1.098785       -29.8995 
  15   2.0000      -0.971173       -26.4270 
  16   2.0000      -0.940329       -25.5877 
  17   2.0000      -0.918046       -24.9813 
  18   2.0000      -0.868710       -23.6388 
  19   2.0000      -0.830391       -22.5961 
  20   2.0000      -0.823137       -22.3987 
  21   2.0000      -0.822032       -22.3686 
  22   2.0000      -0.810744       -22.0615 
  23   2.0000      -0.737313       -20.0633 
  24   2.0000      -0.733494       -19.9594 
  25   2.0000      -0.695865       -18.9354 
  26   2.0000      -0.652246       -17.7485 
  27   2.0000      -0.632852       -17.2208 
  28   2.0000      -0.615410       -16.7462 
  29   2.0000      -0.603427       -16.4201 
  30   2.0000      -0.576766       -15.6946 
  31   2.0000      -0.567842       -15.4518 
  32   2.0000      -0.561814       -15.2877 
  33   2.0000      -0.542156       -14.7528 
  34   2.0000      -0.538998       -14.6669 
  35   2.0000      -0.535315       -14.5667 
  36   2.0000      -0.525171       -14.2906 
  37   2.0000      -0.520636       -14.1672 
  38   2.0000      -0.515182       -14.0188 
  39   2.0000      -0.508238       -13.8299 
  40   2.0000      -0.503676       -13.7057 
  41   2.0000      -0.495566       -13.4850 
  42   2.0000      -0.492881       -13.4120 
  43   2.0000      -0.483208       -13.1488 
  44   2.0000      -0.472184       -12.8488 
  45   2.0000      -0.459769       -12.5110 
  46   2.0000      -0.459491       -12.5034 
  47   2.0000      -0.457784       -12.4569 
  48   2.0000      -0.405114       -11.0237 
  49   2.0000      -0.344792        -9.3823 
  50   0.0000       0.060799         1.6544 
  51   0.0000       0.111172         3.0251 
  52   0.0000       0.131057         3.5662 
  53   0.0000       0.146978         3.9995 
  54   0.0000       0.148339         4.0365 
  55   0.0000       0.179234         4.8772 
  56   0.0000       0.185245         5.0408 
  57   0.0000       0.186415         5.0726 
  58   0.0000       0.189089         5.1454 
  59   0.0000       0.194000         5.2790 
  60   0.0000       0.209652         5.7049 
  61   0.0000       0.213066         5.7978 
  62   0.0000       0.223614         6.0849 
  63   0.0000       0.226871         6.1735 
  64   0.0000       0.231665         6.3039 
  65   0.0000       0.239761         6.5242 
  66   0.0000       0.242626         6.6022 
  67   0.0000       0.244275         6.6471 
  68   0.0000       0.257223         6.9994 
  69   0.0000       0.263588         7.1726 
  70   0.0000       0.266052         7.2396 
  71   0.0000       0.267259         7.2725 
  72   0.0000       0.272865         7.4250 
  73   0.0000       0.277373         7.5477 
  74   0.0000       0.288546         7.8517 
  75   0.0000       0.294956         8.0262 
  76   0.0000       0.305254         8.3064 
  77   0.0000       0.307890         8.3781 
  78   0.0000       0.326482         8.8840 
  79   0.0000       0.334325         9.0974 
  80   0.0000       0.337464         9.1829 
  81   0.0000       0.351222         9.5572 
  82   0.0000       0.364174         9.9097 
  83   0.0000       0.370664        10.0863 
  84   0.0000       0.435588        11.8530 
  85   0.0000       0.458713        12.4822 
  86   0.0000       0.467921        12.7328 
  87   0.0000       0.486112        13.2278 
  88   0.0000       0.492663        13.4060 
  89   0.0000       0.493218        13.4211 
  90   0.0000       0.502872        13.6838 
  91   0.0000       0.510438        13.8897 
  92   0.0000       0.522967        14.2307 
  93   0.0000       0.531831        14.4719 
  94   0.0000       0.553137        15.0516 
  95   0.0000       0.566869        15.4253 
  96   0.0000       0.573829        15.6147 
  97   0.0000       0.593208        16.1420 
  98   0.0000       0.597985        16.2720 
  99   0.0000       0.629176        17.1207 
 100   0.0000       0.642790        17.4912 
 101   0.0000       0.651938        17.7401 
 102   0.0000       0.665726        18.1153 
 103   0.0000       0.678287        18.4571 
 104   0.0000       0.679583        18.4924 
 105   0.0000       0.685427        18.6514 
 106   0.0000       0.696090        18.9416 
 107   0.0000       0.701663        19.0932 
 108   0.0000       0.704911        19.1816 
 109   0.0000       0.730849        19.8874 
 110   0.0000       0.735086        20.0027 
 111   0.0000       0.736619        20.0444 
 112   0.0000       0.749296        20.3894 
 113   0.0000       0.753565        20.5056 
 114   0.0000       0.757610        20.6156 
 115   0.0000       0.759299        20.6616 
 116   0.0000       0.764409        20.8006 
 117   0.0000       0.769664        20.9436 
 118   0.0000       0.773899        21.0589 
 119   0.0000       0.784242        21.3403 
 120   0.0000       0.789984        21.4966 
 121   0.0000       0.790519        21.5111 
 122   0.0000       0.791041        21.5253 
 123   0.0000       0.797056        21.6890 
 124   0.0000       0.798022        21.7153 
 125   0.0000       0.801126        21.7998 
 126   0.0000       0.807900        21.9841 
 127   0.0000       0.810172        22.0459 
 128   0.0000       0.816299        22.2126 
 129   0.0000       0.817644        22.2492 
 130   0.0000       0.820114        22.3164 
 131   0.0000       0.830566        22.6009 
 132   0.0000       0.837491        22.7893 
 133   0.0000       0.841427        22.8964 
 134   0.0000       0.843255        22.9461 
 135   0.0000       0.848843        23.0982 
 136   0.0000       0.857368        23.3302 
 137   0.0000       0.864642        23.5281 
 138   0.0000       0.882046        24.0017 
 139   0.0000       0.895142        24.3581 
 140   0.0000       0.944649        25.7052 
 141   0.0000       0.962562        26.1926 
 142   0.0000       1.009981        27.4830 
 143   0.0000       1.014140        27.5962 
 144   0.0000       1.027968        27.9724 
 145   0.0000       1.053766        28.6744 
 146   0.0000       1.105298        30.0767 
 147   0.0000       1.118825        30.4448 
 148   0.0000       1.137764        30.9601 
 149   0.0000       1.158770        31.5317 
 150   0.0000       1.178628        32.0721 
 151   0.0000       1.181618        32.1535 
 152   0.0000       1.218204        33.1490 
 153   0.0000       1.229573        33.4584 
 154   0.0000       1.240834        33.7648 
 155   0.0000       1.249408        33.9981 
 156   0.0000       1.257310        34.2131 
 157   0.0000       1.286301        35.0020 
 158   0.0000       1.307913        35.5901 
 159   0.0000       1.323349        36.0102 
 160   0.0000       1.384009        37.6608 
 161   0.0000       1.390008        37.8240 
 162   0.0000       1.405508        38.2458 
 163   0.0000       1.422859        38.7180 
 164   0.0000       1.443547        39.2809 
 165   0.0000       1.473562        40.0976 
 166   0.0000       1.484584        40.3976 
 167   0.0000       1.526447        41.5367 
 168   0.0000       1.540020        41.9061 
 169   0.0000       1.608892        43.7802 
 170   0.0000       1.614453        43.9315 
 171   0.0000       1.629205        44.3329 
 172   0.0000       1.631314        44.3903 
 173   0.0000       1.647814        44.8393 
 174   0.0000       1.648884        44.8684 
 175   0.0000       1.652947        44.9790 
 176   0.0000       1.655106        45.0377 
 177   0.0000       1.659797        45.1654 
 178   0.0000       1.660969        45.1973 
 179   0.0000       1.663511        45.2664 
 180   0.0000       1.682303        45.7778 
 181   0.0000       1.765280        48.0357 
 182   0.0000       1.787702        48.6458 
 183   0.0000       1.799553        48.9683 
 184   0.0000       1.805598        49.1328 
 185   0.0000       1.813383        49.3447 
 186   0.0000       1.830537        49.8115 
 187   0.0000       1.842934        50.1488 
 188   0.0000       1.855999        50.5043 
 189   0.0000       1.861187        50.6455 
 190   0.0000       1.874140        50.9979 
 191   0.0000       1.877143        51.0797 
 192   0.0000       1.885137        51.2972 
 193   0.0000       1.889691        51.4211 
 194   0.0000       1.898139        51.6510 
 195   0.0000       1.903754        51.8038 
 196   0.0000       1.906799        51.8866 
 197   0.0000       1.918903        52.2160 
 198   0.0000       1.923478        52.3405 
 199   0.0000       1.926680        52.4276 
 200   0.0000       1.933170        52.6042 
 201   0.0000       1.937396        52.7192 
 202   0.0000       1.943943        52.8974 
 203   0.0000       1.950696        53.0811 
 204   0.0000       1.969910        53.6040 
 205   0.0000       1.971865        53.6572 
 206   0.0000       1.986677        54.0602 
 207   0.0000       1.990047        54.1519 
 208   0.0000       1.991948        54.2037 
 209   0.0000       2.011576        54.7378 
 210   0.0000       2.020182        54.9719 
 211   0.0000       2.037351        55.4391 
 212   0.0000       2.042862        55.5891 
 213   0.0000       2.065472        56.2044 
 214   0.0000       2.076727        56.5106 
 215   0.0000       2.077287        56.5259 
 216   0.0000       2.084419        56.7199 
 217   0.0000       2.095459        57.0203 
 218   0.0000       2.111370        57.4533 
 219   0.0000       2.116769        57.6002 
 220   0.0000       2.146029        58.3964 
 221   0.0000       2.155877        58.6644 
 222   0.0000       2.176349        59.2215 
 223   0.0000       2.216132        60.3040 
 224   0.0000       2.251902        61.2774 
 225   0.0000       2.264160        61.6109 
 226   0.0000       2.271140        61.8009 
 227   0.0000       2.290905        62.3387 
 228   0.0000       2.292242        62.3751 
 229   0.0000       2.315255        63.0013 
 230   0.0000       2.319873        63.1269 
 231   0.0000       2.340321        63.6834 
 232   0.0000       2.372890        64.5696 
 233   0.0000       2.383389        64.8553 
 234   0.0000       2.409540        65.5669 
 235   0.0000       2.440855        66.4190 
 236   0.0000       2.490170        67.7610 
 237   0.0000       2.493177        67.8428 
 238   0.0000       2.515732        68.4565 
 239   0.0000       2.519865        68.5690 
 240   0.0000       2.523603        68.6707 
 241   0.0000       2.539569        69.1052 
 242   0.0000       2.547651        69.3251 
 243   0.0000       2.556868        69.5759 
 244   0.0000       2.583954        70.3130 
 245   0.0000       2.591373        70.5149 
 246   0.0000       2.603189        70.8364 
 247   0.0000       2.609009        70.9948 
 248   0.0000       2.614302        71.1388 
 249   0.0000       2.664060        72.4928 
 250   0.0000       2.675406        72.8015 
 251   0.0000       2.683570        73.0236 
 252   0.0000       2.688641        73.1617 
 253   0.0000       2.702802        73.5470 
 254   0.0000       2.720975        74.0415 
 255   0.0000       2.758056        75.0505 
 256   0.0000       2.809347        76.4462 
 257   0.0000       2.817368        76.6645 
 258   0.0000       2.827086        76.9289 
 259   0.0000       2.845614        77.4331 
 260   0.0000       2.855947        77.7143 
 261   0.0000       2.874030        78.2063 
 262   0.0000       2.913828        79.2893 
 263   0.0000       2.920944        79.4829 
 264   0.0000       2.944252        80.1172 
 265   0.0000       2.951552        80.3158 
 266   0.0000       2.988287        81.3154 
 267   0.0000       2.990787        81.3835 
 268   0.0000       3.030167        82.4550 
 269   0.0000       3.031116        82.4809 
 270   0.0000       3.032603        82.5213 
 271   0.0000       3.037470        82.6538 
 272   0.0000       3.044107        82.8344 
 273   0.0000       3.080078        83.8132 
 274   0.0000       3.082451        83.8777 
 275   0.0000       3.085890        83.9713 
 276   0.0000       3.101472        84.3953 
 277   0.0000       3.110976        84.6540 
 278   0.0000       3.148640        85.6789 
 279   0.0000       3.153881        85.8215 
 280   0.0000       3.162681        86.0609 
 281   0.0000       3.167082        86.1807 
 282   0.0000       3.203720        87.1777 
 283   0.0000       3.328907        90.5842 
 284   0.0000       3.446613        93.7871 
 285   0.0000       3.519168        95.7614 
 286   0.0000       3.608687        98.1974 

                    ********************************
                    * MULLIKEN POPULATION ANALYSIS *
                    ********************************

-----------------------
MULLIKEN ATOMIC CHARGES
-----------------------
   0 N :   -0.173623
   1 C :    0.212075
   2 N :   -0.172492
   3 H :    0.112919
   4 C :   -0.105698
   5 C :   -0.107287
   6 C :   -0.064297
   7 C :   -0.066507
   8 C :   -0.011850
   9 H :    0.071276
  10 C :    0.024149
  11 C :   -0.002821
  12 C :    0.020294
  13 H :    0.070906
  14 C :    0.096143
  15 C :    0.098591
  16 H :    0.059719
  17 H :    0.049276
  18 H :    0.055293
  19 H :    0.042758
  20 H :    0.054899
  21 H :    0.047760
  22 H :    0.053315
  23 H :    0.046944
  24 H :    0.057901
  25 H :    0.054868
  26 H :    0.043269
  27 H :    0.048519
  28 H :    0.075002
  29 H :    0.048601
  30 H :    0.067153
  31 H :    0.070225
  32 H :    0.048274
  33 H :    0.074446
Sum of atomic charges:    1.0000000

--------------------------------
MULLIKEN REDUCED ORBITAL CHARGES
--------------------------------
  0 N s       :     3.383351  s :     3.383351
      pz      :     1.460764  p :     3.757167
      px      :     1.148743
      py      :     1.147660
      dz2     :     0.002465  d :     0.033106
      dxz     :     0.005372
      dyz     :     0.006794
      dx2y2   :     0.008118
      dxy     :     0.010356
  1 C s       :     3.094508  s :     3.094508
      pz      :     0.948870  p :     2.626034
      px      :     0.774618
      py      :     0.902546
      dz2     :     0.005239  d :     0.067383
      dxz     :     0.016855
      dyz     :     0.006461
      dx2y2   :     0.016810
      dxy     :     0.022019
  2 N s       :     3.382088  s :     3.382088
      pz      :     1.460713  p :     3.757327
      px      :     1.150316
      py      :     1.146298
      dz2     :     0.002551  d :     0.033077
      dxz     :     0.005243
      dyz     :     0.006766
      dx2y2   :     0.008027
      dxy     :     0.010489
  3 H s       :     0.861666  s :     0.861666
      pz      :     0.004803  p :     0.025416
      px      :     0.001465
      py      :     0.019148
  4 C s       :     3.096324  s :     3.096324
      pz      :     1.048927  p :     2.950753
      px      :     1.001299
      py      :     0.900527
      dz2     :     0.004631  d :     0.058620
      dxz     :     0.009951
      dyz     :     0.010129
      dx2y2   :     0.020031
      dxy     :     0.013878
  5 C s       :     3.098793  s :     3.098793
      pz      :     1.048392  p :     2.949958
      px      :     1.003074
      py      :     0.898492
      dz2     :     0.004635  d :     0.058536
      dxz     :     0.009841
      dyz     :     0.010185
      dx2y2   :     0.020195
      dxy     :     0.013680
  6 C s       :     3.110155  s :     3.110155
      pz      :     1.056881  p :     2.897862
      px      :     0.790541
      py      :     1.050440
      dz2     :     0.013364  d :     0.056279
      dxz     :     0.009467
      dyz     :     0.010253
      dx2y2   :     0.011364
      dxy     :     0.011832
  7 C s       :     3.115840  s :     3.115840
      pz      :     1.048934  p :     2.894411
      px      :     0.793366
      py      :     1.052111
      dz2     :     0.014190  d :     0.056256
      dxz     :     0.008949
      dyz     :     0.010030
      dx2y2   :     0.010968
      dxy     :     0.012119
  8 C s       :     2.997963  s :     2.997963
      pz      :     0.963940  p :     2.987554
      px      :     1.042411
      py      :     0.981203
      dz2     :     0.006305  d :     0.026334
      dxz     :     0.002999
      dyz     :     0.006596
      dx2y2   :     0.006330
      dxy     :     0.004103
  9 H s       :     0.907134  s :     0.907134
      pz      :     0.004228  p :     0.021591
      px      :     0.006845
      py      :     0.010517
 10 C s       :     2.982762  s :     2.982762
      pz      :     0.935787  p :     2.966590
      px      :     1.015077
      py      :     1.015726
      dz2     :     0.006316  d :     0.026500
      dxz     :     0.002516
      dyz     :     0.008114
      dx2y2   :     0.004734
      dxy     :     0.004821
 11 C s       :     2.994992  s :     2.994992
      pz      :     0.953056  p :     2.981461
      px      :     1.034347
      py      :     0.994058
      dz2     :     0.007176  d :     0.026368
      dxz     :     0.002006
      dyz     :     0.006748
      dx2y2   :     0.005685
      dxy     :     0.004753
 12 C s       :     2.985413  s :     2.985413
      pz      :     0.937596  p :     2.967813
      px      :     1.024626
      py      :     1.005591
      dz2     :     0.007060  d :     0.026480
      dxz     :     0.001835
      dyz     :     0.007596
      dx2y2   :     0.004576
      dxy     :     0.005412
 13 H s       :     0.907433  s :     0.907433
      pz      :     0.003486  p :     0.021661
      px      :     0.007224
      py      :     0.010951
 14 C s       :     2.883211  s :     2.883211
      pz      :     1.039604  p :     2.993738
      px      :     0.989392
      py      :     0.964742
      dz2     :     0.005309  d :     0.026908
      dxz     :     0.008335
      dyz     :     0.002236
      dx2y2   :     0.002836
      dxy     :     0.008193
 15 C s       :     2.880766  s :     2.880766
      pz      :     1.041539  p :     2.993741
      px      :     0.987274
      py      :     0.964928
      dz2     :     0.005339  d :     0.026902
      dxz     :     0.008177
      dyz     :     0.002312
      dx2y2   :     0.002917
      dxy     :     0.008158
 16 H s       :     0.915585  s :     0.915585
      pz      :     0.004752  p :     0.024695
      px      :     0.015051
      py      :     0.004892
 17 H s       :     0.926078  s :     0.926078
      pz      :     0.004946  p :     0.024647
      px      :     0.007056
      py      :     0.012644
 18 H s       :     0.920391  s :     0.920391
      pz      :     0.012581  p :     0.024315
      px      :     0.006516
      py      :     0.005217
 19 H s       :     0.932800  s :     0.932800
      pz      :     0.004739  p :     0.024441
      px      :     0.008038
      py      :     0.011664
 20 H s       :     0.920392  s :     0.920392
      pz      :     0.004068  p :     0.024709
      px      :     0.014858
      py      :     0.005782
 21 H s       :     0.927897  s :     0.927897
      pz      :     0.009249  p :     0.024344
      px      :     0.004936
      py      :     0.010159
 22 H s       :     0.922396  s :     0.922396
      pz      :     0.012255  p :     0.024290
      px      :     0.005579
      py      :     0.006455
 23 H s       :     0.928413  s :     0.928413
      pz      :     0.004163  p :     0.024643
      px      :     0.007522
      py      :     0.012958
 24 H s       :     0.917394  s :     0.917394
      pz      :     0.004364  p :     0.024706
      px      :     0.015219
      py      :     0.005122
 25 H s       :     0.920415  s :     0.920415
      pz      :     0.004194  p :     0.024717
      px      :     0.014884
      py      :     0.005639
 26 H s       :     0.932228  s :     0.932228
      pz      :     0.004049  p :     0.024503
      px      :     0.008273
      py      :     0.012180
 27 H s       :     0.927188  s :     0.927188
      pz      :     0.010450  p :     0.024293
      px      :     0.005285
      py      :     0.008558
 28 H s       :     0.899989  s :     0.899989
      pz      :     0.012957  p :     0.025009
      px      :     0.007576
      py      :     0.004476
 29 H s       :     0.926009  s :     0.926009
      pz      :     0.005294  p :     0.025390
      px      :     0.007161
      py      :     0.012935
 30 H s       :     0.907809  s :     0.907809
      pz      :     0.011213  p :     0.025038
      px      :     0.009420
      py      :     0.004405
 31 H s       :     0.904781  s :     0.904781
      pz      :     0.012293  p :     0.024994
      px      :     0.008329
      py      :     0.004372
 32 H s       :     0.926333  s :     0.926333
      pz      :     0.005118  p :     0.025393
      px      :     0.007366
      py      :     0.012909
 33 H s       :     0.900551  s :     0.900551
      pz      :     0.011925  p :     0.025003
      px      :     0.008632
      py      :     0.004446


                     *******************************
                     * LOEWDIN POPULATION ANALYSIS *
                     *******************************

----------------------
LOEWDIN ATOMIC CHARGES
----------------------
   0 N :    0.107311
   1 C :    0.118525
   2 N :    0.106835
   3 H :    0.054695
   4 C :   -0.008301
   5 C :   -0.009006
   6 C :    0.039809
   7 C :    0.039638
   8 C :   -0.049401
   9 H :    0.045672
  10 C :   -0.047015
  11 C :   -0.048883
  12 C :   -0.047285
  13 H :    0.045647
  14 C :   -0.047428
  15 C :   -0.047128
  16 H :    0.044454
  17 H :    0.033588
  18 H :    0.036316
  19 H :    0.032676
  20 H :    0.040963
  21 H :    0.033820
  22 H :    0.035939
  23 H :    0.033151
  24 H :    0.043235
  25 H :    0.041108
  26 H :    0.032557
  27 H :    0.034492
  28 H :    0.051544
  29 H :    0.050568
  30 H :    0.049640
  31 H :    0.050356
  32 H :    0.050560
  33 H :    0.051346

-------------------------------
LOEWDIN REDUCED ORBITAL CHARGES
-------------------------------
  0 N s       :     3.042641  s :     3.042641
      pz      :     1.384697  p :     3.772820
      px      :     1.189967
      py      :     1.198156
      dz2     :     0.004757  d :     0.077228
      dxz     :     0.009398
      dyz     :     0.013138
      dx2y2   :     0.022427
      dxy     :     0.027508
  1 C s       :     2.825847  s :     2.825847
      pz      :     0.968503  p :     2.896882
      px      :     0.901627
      py      :     1.026752
      dz2     :     0.011301  d :     0.158746
      dxz     :     0.034947
      dyz     :     0.010568
      dx2y2   :     0.043201
      dxy     :     0.058730
  2 N s       :     3.042560  s :     3.042560
      pz      :     1.385065  p :     3.773431
      px      :     1.190506
      py      :     1.197860
      dz2     :     0.004900  d :     0.077174
[...]
     76       0.002729  -0.003240   0.055862   0.000781  -0.000146   0.000130
     77      -0.000214   0.000241  -0.004694  -0.000083  -0.000015   0.000113
     78      -0.001518   0.002243  -0.040525  -0.001744   0.000763  -0.000874
     79      -0.002378   0.003460  -0.062067  -0.002599   0.001126  -0.001468
     80       0.000582  -0.000880   0.015873   0.000818  -0.000382   0.000573
     81      -0.000780   0.000856  -0.013313  -0.000216   0.000160   0.000078
     82       0.004053  -0.004255   0.067643   0.001012  -0.000631  -0.000675
     83       0.004066  -0.004227   0.067249   0.000856  -0.000536  -0.000720
     84       0.002197   0.000532   0.000177  -0.085916  -0.105142   0.000594
     85      -0.000487  -0.000094  -0.000105   0.025301   0.031035  -0.000454
     86       0.003435   0.000752   0.000201  -0.146477  -0.179320   0.000516
     87       0.001227  -0.000020   0.000474  -0.268677  -0.341234  -0.000603
     88       0.002125  -0.000166   0.000758  -0.469409  -0.596421  -0.000684
     89       0.000703   0.000004   0.000181  -0.105881  -0.134548  -0.000147
     90      -0.001743  -0.000635   0.000821  -0.141456  -0.170386   0.001121
     91      -0.000164  -0.000152   0.000167  -0.035023  -0.042305  -0.000038
     92       0.002044   0.000725  -0.000940   0.170525   0.205303  -0.001057
     93      -0.000091  -0.000542  -0.000747  -0.143882   0.109846  -0.001059
     94       0.000003   0.000132   0.000318   0.046020  -0.035130   0.000032
     95      -0.000081  -0.000721  -0.000967  -0.204158   0.155908  -0.001177
     96      -0.000003  -0.000389   0.001072  -0.354159   0.284283   0.000544
     97      -0.000007   0.000595  -0.001947   0.586379  -0.470428  -0.000581
     98       0.000013   0.000134  -0.000394   0.129891  -0.103930  -0.000119
     99      -0.000176  -0.000262   0.001183  -0.135389   0.103696  -0.000754
    100      -0.000060  -0.000137   0.000392  -0.043082   0.033141  -0.000447
    101       0.000213   0.000276  -0.001664   0.191195  -0.146561   0.000581


-----------
IR SPECTRUM
-----------

 Mode   freq       eps      Int      T**2         TX        TY        TZ
       cm**-1   L/(mol*cm) km/mol    a.u.
----------------------------------------------------------------------------
  6:     31.32   0.000004    0.02  0.000035  ( 0.001289 -0.002233  0.005334)
  7:     47.66   0.000156    0.79  0.001024  ( 0.002074 -0.007975 -0.030917)
  8:     87.41   0.000063    0.32  0.000225  (-0.000139  0.007231 -0.013144)
  9:    106.99   0.000012    0.06  0.000035  (-0.000522  0.001128 -0.005820)
 10:    146.94   0.000020    0.10  0.000043  ( 0.000445 -0.002396  0.006096)
 11:    154.79   0.000081    0.41  0.000164  (-0.001616  0.002656  0.012409)
 12:    187.74   0.000004    0.02  0.000006  (-0.001195  0.001567 -0.001474)
 13:    215.14   0.000012    0.06  0.000018  (-0.003644  0.000518  0.002086)
 14:    229.68   0.000002    0.01  0.000003  ( 0.001640  0.000694 -0.000136)
 15:    248.28   0.000020    0.10  0.000025  (-0.001161 -0.000332 -0.004813)
 16:    263.09   0.000085    0.43  0.000101  (-0.003816 -0.003031  0.008782)
 17:    278.84   0.000208    1.05  0.000232  ( 0.001884 -0.005153  0.014224)
 18:    283.55   0.001908    9.64  0.002099  (-0.002983 -0.008036  0.045010)
 19:    290.54   0.000196    0.99  0.000211  ( 0.000573  0.004049 -0.013923)
 20:    292.99   0.000621    3.14  0.000662  ( 0.001929  0.000332 -0.025648)
 21:    319.63   0.000070    0.36  0.000069  ( 0.003123  0.007353 -0.002190)
 22:    322.58   0.000053    0.27  0.000051  ( 0.006381 -0.002336  0.002277)
 23:    396.72   0.000189    0.96  0.000149  (-0.003948  0.003022  0.011150)
 24:    411.58   0.000107    0.54  0.000082  (-0.008526  0.000159 -0.002965)
 25:    466.99   0.000062    0.31  0.000041  (-0.000409 -0.004782 -0.004262)
 26:    488.30   0.000003    0.01  0.000002  ( 0.001089  0.000343 -0.000713)
 27:    552.45   0.002098   10.60  0.001185  (-0.034421 -0.000546 -0.000476)
 28:    608.35   0.001082    5.47  0.000555  ( 0.002830 -0.022364  0.006835)
 29:    619.08   0.000787    3.98  0.000397  ( 0.019327  0.004797  0.000621)
 30:    674.21   0.005504   27.82  0.002548  (-0.001101 -0.004526  0.050258)
 31:    712.11   0.000067    0.34  0.000030  ( 0.005189 -0.000058 -0.001622)
 32:    754.54   0.000526    2.66  0.000218  (-0.000222  0.013320  0.006328)
 33:    802.05   0.000072    0.36  0.000028  (-0.005253  0.000585  0.000172)
 34:    871.96   0.002163   10.93  0.000774  (-0.001334 -0.009938  0.025954)
 35:    915.29   0.000124    0.63  0.000042  (-0.000014 -0.003827  0.005268)
 36:    928.31   0.000526    2.66  0.000177  (-0.013297 -0.000060  0.000337)
 37:    936.87   0.000678    3.43  0.000226  (-0.001646 -0.006253 -0.013570)
 38:    942.19   0.000581    2.94  0.000192  ( 0.001131 -0.003628 -0.013343)
 39:    965.79   0.000229    1.16  0.000074  (-0.001243 -0.003907 -0.007557)
 40:    969.83   0.000256    1.30  0.000082  ( 0.000896 -0.002248 -0.008753)
 41:    977.23   0.000006    0.03  0.000002  ( 0.000449 -0.000783 -0.001087)
 42:   1040.56   0.001482    7.49  0.000445  (-0.000554 -0.007589  0.019664)
 43:   1064.03   0.000151    0.76  0.000044  ( 0.006504  0.001398  0.000056)
 44:   1066.92   0.000005    0.02  0.000001  (-0.000178 -0.000557 -0.001029)
 45:   1098.84   0.000644    3.25  0.000183  ( 0.000674 -0.012815 -0.004253)
 46:   1132.30   0.004556   23.02  0.001256  ( 0.035348  0.000097  0.002463)
 47:   1156.96   0.000841    4.25  0.000227  ( 0.001419  0.014499  0.003822)
 48:   1171.75   0.001647    8.33  0.000439  (-0.011206  0.001025 -0.017667)
 49:   1177.18   0.003073   15.53  0.000815  ( 0.007628  0.002933 -0.027345)
 50:   1197.69   0.000069    0.35  0.000018  (-0.003926 -0.000415 -0.001533)
 51:   1221.42   0.001593    8.05  0.000407  (-0.008375  0.018043  0.003360)
 52:   1230.38   0.049742  251.37  0.012616  ( 0.112254  0.000869  0.003799)
 53:   1254.11   0.001173    5.93  0.000292  (-0.017073  0.000066 -0.000659)
 54:   1346.14   0.000244    1.23  0.000057  (-0.000642  0.007489  0.000202)
 55:   1350.89   0.000138    0.70  0.000032  (-0.001592  0.005234 -0.001385)
 56:   1353.09   0.000132    0.67  0.000030  ( 0.002042 -0.001150 -0.004993)
 57:   1378.11   0.002742   13.86  0.000621  (-0.024666 -0.003511  0.000415)
 58:   1390.53   0.000949    4.80  0.000213  ( 0.006058  0.012480 -0.004543)
 59:   1399.48   0.001633    8.25  0.000364  (-0.018491  0.002471  0.004015)
 60:   1402.55   0.005300   26.79  0.001179  (-0.000793 -0.000928  0.034320)
 61:   1405.01   0.001902    9.61  0.000422  ( 0.000283 -0.011164 -0.017254)
 62:   1408.13   0.002817   14.24  0.000624  (-0.002851 -0.022565  0.010348)
 63:   1417.74   0.006320   31.94  0.001391  ( 0.036253  0.007903  0.003791)
 64:   1426.32   0.012001   60.65  0.002626  (-0.006250  0.050798  0.002482)
 65:   1440.52   0.003837   19.39  0.000831  (-0.025532  0.002343  0.013181)
 66:   1442.08   0.005578   28.19  0.001207  (-0.010105 -0.000386 -0.033239)
 67:   1444.28   0.000983    4.97  0.000212  (-0.003244 -0.005096  0.013265)
 68:   1446.03   0.000639    3.23  0.000138  (-0.002959 -0.005738 -0.009812)
 69:   1448.86   0.000595    3.01  0.000128  (-0.011225 -0.001175 -0.000933)
 70:   1453.28   0.000643    3.25  0.000138  ( 0.002507 -0.008790 -0.007383)
 71:   1457.91   0.004099   20.71  0.000877  ( 0.020430 -0.020941 -0.004627)
 72:   1460.69   0.003516   17.77  0.000751  (-0.014621 -0.022161 -0.006799)
 73:   1462.63   0.004345   21.96  0.000927  (-0.006222 -0.026309  0.014005)
 74:   1464.18   0.002418   12.22  0.000515  (-0.006691  0.015032 -0.015644)
 75:   1475.07   0.000030    0.15  0.000006  ( 0.000793  0.001897  0.001442)
 76:   1478.81   0.000543    2.74  0.000115  (-0.001403 -0.008525  0.006314)
 77:   1516.82   0.000523    2.64  0.000108  (-0.010254  0.001527  0.000251)
 78:   1528.71   0.000391    1.98  0.000080  (-0.000620  0.008793  0.001467)
 79:   1654.32   0.035152  177.64  0.006631  (-0.081378 -0.000543 -0.002855)
 80:   1732.57   0.006432   32.51  0.001159  (-0.000739  0.033064  0.008050)
 81:   3068.34   0.002470   12.48  0.000251  ( 0.003481 -0.003154  0.015138)
 82:   3071.20   0.002905   14.68  0.000295  (-0.005847 -0.000815  0.016134)
 83:   3074.84   0.001889    9.54  0.000192  ( 0.000977 -0.011197 -0.008084)
 84:   3075.02   0.001790    9.04  0.000182  (-0.000112 -0.012466 -0.005119)
 85:   3077.67   0.002632   13.30  0.000267  ( 0.015727  0.004102  0.001649)
 86:   3079.26   0.001666    8.42  0.000169  ( 0.006838 -0.010724 -0.002666)
 87:   3138.35   0.000656    3.31  0.000065  (-0.005469  0.004169 -0.004231)
 88:   3148.24   0.000240    1.22  0.000024  (-0.003586 -0.001477  0.002965)
 89:   3170.38   0.000746    3.77  0.000073  ( 0.000071  0.000671 -0.008545)
 90:   3171.29   0.000575    2.91  0.000057  ( 0.002051 -0.000926 -0.007178)
 91:   3172.48   0.001520    7.68  0.000149  ( 0.003951  0.008910  0.007382)
 92:   3175.49   0.001204    6.08  0.000118  ( 0.004287 -0.007580 -0.006517)
 93:   3178.24   0.004642   23.46  0.000456  (-0.011401 -0.017231  0.005377)
 94:   3178.57   0.005458   27.58  0.000536  (-0.010056  0.018587 -0.009450)
 95:   3186.19   0.002267   11.45  0.000222  ( 0.012097 -0.002238 -0.008405)
 96:   3186.65   0.002190   11.07  0.000214  (-0.008861 -0.006490 -0.009687)
 97:   3189.84   0.002773   14.01  0.000271  (-0.015879 -0.003169  0.003016)
 98:   3190.11   0.002365   11.95  0.000231  ( 0.013232 -0.004781  0.005782)
 99:   3202.39   0.000530    2.68  0.000052  ( 0.007106 -0.001020 -0.000341)
100:   3206.24   0.000803    4.06  0.000078  ( 0.000855  0.008749  0.000934)
101:   3313.08   0.010266   51.88  0.000967  (-0.000217 -0.030553 -0.005786)

* The epsilon (eps) is given for a Dirac delta lineshape.
** The dipole moment derivative (T) already includes vibrational overlap.

The first frequency considered to be a vibration is 6
The total number of vibrations considered is 96


--------------------------
THERMOCHEMISTRY AT 298.15K
--------------------------

Temperature         ... 298.15 K
Pressure            ... 1.00 atm
Total Mass          ... 181.30 AMU

Throughout the following assumptions are being made:
  (1) The electronic state is orbitally nondegenerate
  (2) There are no thermally accessible electronically excited states
  (3) Hindered rotations indicated by low frequency modes are not
      treated as such but are treated as vibrations and this may
      cause some error
  (4) All equations used are the standard statistical mechanics
      equations for an ideal gas
  (5) All vibrations are strictly harmonic

freq.      31.32  E(vib)   ...       0.55 
freq.      47.66  E(vib)   ...       0.53 
freq.      87.41  E(vib)   ...       0.48 
freq.     106.99  E(vib)   ...       0.45 
freq.     146.94  E(vib)   ...       0.41 
freq.     154.79  E(vib)   ...       0.40 
freq.     187.74  E(vib)   ...       0.36 
freq.     215.14  E(vib)   ...       0.34 
freq.     229.68  E(vib)   ...       0.32 
freq.     248.28  E(vib)   ...       0.31 
freq.     263.09  E(vib)   ...       0.29 
freq.     278.84  E(vib)   ...       0.28 
freq.     283.55  E(vib)   ...       0.28 
freq.     290.54  E(vib)   ...       0.27 
freq.     292.99  E(vib)   ...       0.27 
freq.     319.63  E(vib)   ...       0.25 
freq.     322.58  E(vib)   ...       0.25 
freq.     396.72  E(vib)   ...       0.20 
freq.     411.58  E(vib)   ...       0.19 
freq.     466.99  E(vib)   ...       0.16 
freq.     488.30  E(vib)   ...       0.15 
freq.     552.45  E(vib)   ...       0.12 
freq.     608.35  E(vib)   ...       0.10 
freq.     619.08  E(vib)   ...       0.09 
freq.     674.21  E(vib)   ...       0.08 
freq.     712.11  E(vib)   ...       0.07 
freq.     754.54  E(vib)   ...       0.06 
freq.     802.05  E(vib)   ...       0.05 
freq.     871.96  E(vib)   ...       0.04 
freq.     915.29  E(vib)   ...       0.03 
freq.     928.31  E(vib)   ...       0.03 
freq.     936.87  E(vib)   ...       0.03 
freq.     942.19  E(vib)   ...       0.03 
freq.     965.79  E(vib)   ...       0.03 
freq.     969.83  E(vib)   ...       0.03 
freq.     977.23  E(vib)   ...       0.03 
freq.    1040.56  E(vib)   ...       0.02 
freq.    1064.03  E(vib)   ...       0.02 
freq.    1066.92  E(vib)   ...       0.02 
freq.    1098.84  E(vib)   ...       0.02 
freq.    1132.30  E(vib)   ...       0.01 
freq.    1156.96  E(vib)   ...       0.01 
freq.    1171.75  E(vib)   ...       0.01 
freq.    1177.18  E(vib)   ...       0.01 
freq.    1197.69  E(vib)   ...       0.01 
freq.    1221.42  E(vib)   ...       0.01 
freq.    1230.38  E(vib)   ...       0.01 
freq.    1254.11  E(vib)   ...       0.01 
freq.    1346.14  E(vib)   ...       0.01 
freq.    1350.89  E(vib)   ...       0.01 
freq.    1353.09  E(vib)   ...       0.01 
freq.    1378.11  E(vib)   ...       0.01 
freq.    1390.53  E(vib)   ...       0.00 
freq.    1399.48  E(vib)   ...       0.00 
freq.    1402.55  E(vib)   ...       0.00 
freq.    1405.01  E(vib)   ...       0.00 
freq.    1408.13  E(vib)   ...       0.00 
freq.    1417.74  E(vib)   ...       0.00 
freq.    1426.32  E(vib)   ...       0.00 
freq.    1440.52  E(vib)   ...       0.00 
freq.    1442.08  E(vib)   ...       0.00 
freq.    1444.28  E(vib)   ...       0.00 
freq.    1446.03  E(vib)   ...       0.00 
freq.    1448.86  E(vib)   ...       0.00 
freq.    1453.28  E(vib)   ...       0.00 
freq.    1457.91  E(vib)   ...       0.00 
freq.    1460.69  E(vib)   ...       0.00 
freq.    1462.63  E(vib)   ...       0.00 
freq.    1464.18  E(vib)   ...       0.00 
freq.    1475.07  E(vib)   ...       0.00 
freq.    1478.81  E(vib)   ...       0.00 
freq.    1516.82  E(vib)   ...       0.00 
freq.    1528.71  E(vib)   ...       0.00 
freq.    1654.32  E(vib)   ...       0.00 
freq.    1732.57  E(vib)   ...       0.00 
freq.    3068.34  E(vib)   ...       0.00 
freq.    3071.20  E(vib)   ...       0.00 
freq.    3074.84  E(vib)   ...       0.00 
freq.    3075.02  E(vib)   ...       0.00 
freq.    3077.67  E(vib)   ...       0.00 
freq.    3079.26  E(vib)   ...       0.00 
freq.    3138.35  E(vib)   ...       0.00 
freq.    3148.24  E(vib)   ...       0.00 
freq.    3170.38  E(vib)   ...       0.00 
freq.    3171.29  E(vib)   ...       0.00 
freq.    3172.48  E(vib)   ...       0.00 
freq.    3175.49  E(vib)   ...       0.00 
freq.    3178.24  E(vib)   ...       0.00 
freq.    3178.57  E(vib)   ...       0.00 
freq.    3186.19  E(vib)   ...       0.00 
freq.    3186.65  E(vib)   ...       0.00 
freq.    3189.84  E(vib)   ...       0.00 
freq.    3190.11  E(vib)   ...       0.00 
freq.    3202.39  E(vib)   ...       0.00 
freq.    3206.24  E(vib)   ...       0.00 
freq.    3313.08  E(vib)   ...       0.00 

------------
INNER ENERGY
------------

The inner energy is: U= E(el) + E(ZPE) + E(vib) + E(rot) + E(trans)
    E(el)   - is the total energy from the electronic structure calculation
              = E(kin-el) + E(nuc-el) + E(el-el) + E(nuc-nuc)
    E(ZPE)  - the the zero temperature vibrational energy from the frequency calculation
    E(vib)  - the the finite temperature correction to E(ZPE) due to population
              of excited vibrational states
    E(rot)  - is the rotational thermal energy
    E(trans)- is the translational thermal energy

Summary of contributions to the inner energy U:
Electronic energy                ...   -540.70568601 Eh
Zero point energy                ...      0.31154335 Eh     195.50 kcal/mol
Thermal vibrational correction   ...      0.01239602 Eh       7.78 kcal/mol
Thermal rotational correction    ...      0.00141627 Eh       0.89 kcal/mol
Thermal translational correction ...      0.00141627 Eh       0.89 kcal/mol
-----------------------------------------------------------------------
Total thermal energy                   -540.37891409 Eh


Summary of corrections to the electronic energy:
(perhaps to be used in another calculation)
Total thermal correction                  0.01522856 Eh       9.56 kcal/mol
Non-thermal (ZPE) correction              0.31154335 Eh     195.50 kcal/mol
-----------------------------------------------------------------------
Total correction                          0.32677191 Eh     205.05 kcal/mol


--------
ENTHALPY
--------

The enthalpy is H = U + kB*T
                kB is Boltzmann's constant
Total free energy                 ...   -540.37891409 Eh 
Thermal Enthalpy correction       ...      0.00094421 Eh       0.59 kcal/mol
-----------------------------------------------------------------------
Total Enthalpy                    ...   -540.37796988 Eh


Note: Only C1 symmetry has been detected, increase convergence thresholds 
      if your molecule has a higher symmetry. Symmetry factor of 1.0 is   
      used for the rotational entropy correction. 
 

Note: Rotational entropy computed according to Herzberg 
Infrared and Raman Spectra, Chapter V,1, Van Nostrand Reinhold, 1945 
Point Group:  C1, Symmetry Number:   1  
Rotational constants in cm-1:     0.036219     0.019198     0.014672 

Vibrational entropy computed according to the QRRHO of S. Grimme
Chem.Eur.J. 2012 18 9955


-------
ENTROPY
-------

The entropy contributions are T*S = T*(S(el)+S(vib)+S(rot)+S(trans))
     S(el)   - electronic entropy
     S(vib)  - vibrational entropy
     S(rot)  - rotational entropy
     S(trans)- translational entropy
The entropies will be listed as multiplied by the temperature to get
units of energy

Electronic entropy                ...      0.00000000 Eh      0.00 kcal/mol
Vibrational entropy               ...      0.02150265 Eh     13.49 kcal/mol
Rotational entropy                ...      0.01493650 Eh      9.37 kcal/mol
Translational entropy             ...      0.01971392 Eh     12.37 kcal/mol
-----------------------------------------------------------------------
Final entropy term                ...      0.05615307 Eh     35.24 kcal/mol

In case the symmetry of your molecule has not been determined correctly
or in case you have a reason to use a different symmetry number we print 
out the resulting rotational entropy values for sn=1,12 :
 --------------------------------------------------------
|  sn= 1 | S(rot)=       0.01493650 Eh      9.37 kcal/mol|
|  sn= 2 | S(rot)=       0.01428204 Eh      8.96 kcal/mol|
|  sn= 3 | S(rot)=       0.01389921 Eh      8.72 kcal/mol|
|  sn= 4 | S(rot)=       0.01362759 Eh      8.55 kcal/mol|
|  sn= 5 | S(rot)=       0.01341690 Eh      8.42 kcal/mol|
|  sn= 6 | S(rot)=       0.01324476 Eh      8.31 kcal/mol|
|  sn= 7 | S(rot)=       0.01309921 Eh      8.22 kcal/mol|
|  sn= 8 | S(rot)=       0.01297313 Eh      8.14 kcal/mol|
|  sn= 9 | S(rot)=       0.01286192 Eh      8.07 kcal/mol|
|  sn=10 | S(rot)=       0.01276244 Eh      8.01 kcal/mol|
|  sn=11 | S(rot)=       0.01267245 Eh      7.95 kcal/mol|
|  sn=12 | S(rot)=       0.01259030 Eh      7.90 kcal/mol|
 --------------------------------------------------------


-------------------
GIBBS FREE ENERGY
-------------------

The Gibbs free energy is G = H - T*S

Total enthalpy                    ...   -540.37796988 Eh 
Total entropy correction          ...     -0.05615307 Eh    -35.24 kcal/mol
-----------------------------------------------------------------------
Final Gibbs free energy         ...   -540.43412296 Eh

For completeness - the Gibbs free energy minus the electronic energy
G-E(el)                           ...      0.27156305 Eh    170.41 kcal/mol


Timings for individual modules:

Sum of individual times         ...    10035.713 sec (= 167.262 min)
GTO integral calculation        ...        5.649 sec (=   0.094 min)   0.1 %
SCF iterations                  ...     5767.806 sec (=  96.130 min)  57.5 %
SCF Gradient evaluation         ...     1643.559 sec (=  27.393 min)  16.4 %
Geometry relaxation             ...        1.107 sec (=   0.018 min)   0.0 %
Analytical frequency calculation...     2617.591 sec (=  43.627 min)  26.1 %
                             ****ORCA TERMINATED NORMALLY****
TOTAL RUN TIME: 0 days 2 hours 47 minutes 17 seconds 933 msec
