
                                 *****************
                                 * O   R   C   A *
                                 *****************

                                            #,                                       
                                            ###                                      
                                            ####                                     
                                            #####                                    
                                            ######                                   
                                           ########,                                 
                                     ,,################,,,,,                         
                               ,,#################################,,                 
                          ,,##########################################,,             
                       ,#########################################, ''#####,          
                    ,#############################################,,   '####,        
                  ,##################################################,,,,####,       
                ,###########''''           ''''###############################       
              ,#####''   ,,,,##########,,,,          '''####'''          '####       
            ,##' ,,,,###########################,,,                        '##       
           ' ,,###''''                  '''############,,,                           
         ,,##''                                '''############,,,,        ,,,,,,###''
      ,#''                                            '''#######################'''  
     '                                                          ''''####''''         
             ,#######,   #######,   ,#######,      ##                                
            ,#'     '#,  ##    ##  ,#'     '#,    #''#        ######   ,####,        
            ##       ##  ##   ,#'  ##            #'  '#       #        #'  '#        
            ##       ##  #######   ##           ,######,      #####,   #    #        
            '#,     ,#'  ##    ##  '#,     ,#' ,#      #,         ##   #,  ,#        
             '#######'   ##     ##  '#######'  #'      '#     #####' # '####'        



                  #######################################################
                  #                        -***-                        #
                  #          Department of theory and spectroscopy      #
                  #    Directorship and core code : Frank Neese         #
                  #        Max Planck Institute fuer Kohlenforschung    #
                  #                Kaiser Wilhelm Platz 1               #
                  #                 D-45470 Muelheim/Ruhr               #
                  #                      Germany                        #
                  #                                                     #
                  #                  All rights reserved                #
                  #                        -***-                        #
                  #######################################################


                         Program Version 5.0.4 -  RELEASE  -


 With contributions from (in alphabetic order):
   Daniel Aravena         : Magnetic Suceptibility
   Michael Atanasov       : Ab Initio Ligand Field Theory (pilot matlab implementation)
   Alexander A. Auer      : GIAO ZORA, VPT2 properties, NMR spectrum
   Ute Becker             : Parallelization
   Giovanni Bistoni       : ED, misc. LED, open-shell LED, HFLD
   Martin Brehm           : Molecular dynamics
   Dmytro Bykov           : SCF Hessian
   Vijay G. Chilkuri      : MRCI spin determinant printing, contributions to CSF-ICE
   Dipayan Datta          : RHF DLPNO-CCSD density
   Achintya Kumar Dutta   : EOM-CC, STEOM-CC
   Dmitry Ganyushin       : Spin-Orbit,Spin-Spin,Magnetic field MRCI
   Miquel Garcia          : C-PCM and meta-GGA Hessian, CC/C-PCM, Gaussian charge scheme
   Yang Guo               : DLPNO-NEVPT2, F12-NEVPT2, CIM, IAO-localization
   Andreas Hansen         : Spin unrestricted coupled pair/coupled cluster methods
   Benjamin Helmich-Paris : MC-RPA, TRAH-SCF, COSX integrals
   Lee Huntington         : MR-EOM, pCC
   Robert Izsak           : Overlap fitted RIJCOSX, COSX-SCS-MP3, EOM
   Marcus Kettner         : VPT2
   Christian Kollmar      : KDIIS, OOCD, Brueckner-CCSD(T), CCSD density, CASPT2, CASPT2-K
   Simone Kossmann        : Meta GGA functionals, TD-DFT gradient, OOMP2, MP2 Hessian
   Martin Krupicka        : Initial AUTO-CI
   Lucas Lang             : DCDCAS
   Marvin Lechner         : AUTO-CI (C++ implementation), FIC-MRCC
   Dagmar Lenk            : GEPOL surface, SMD
   Dimitrios Liakos       : Extrapolation schemes; Compound Job, initial MDCI parallelization
   Dimitrios Manganas     : Further ROCIS development; embedding schemes
   Dimitrios Pantazis     : SARC Basis sets
   Anastasios Papadopoulos: AUTO-CI, single reference methods and gradients
   Taras Petrenko         : DFT Hessian,TD-DFT gradient, ASA, ECA, R-Raman, ABS, FL, XAS/XES, NRVS
   Peter Pinski           : DLPNO-MP2, DLPNO-MP2 Gradient
   Christoph Reimann      : Effective Core Potentials
   Marius Retegan         : Local ZFS, SOC
   Christoph Riplinger    : Optimizer, TS searches, QM/MM, DLPNO-CCSD(T), (RO)-DLPNO pert. Triples
   Tobias Risthaus        : Range-separated hybrids, TD-DFT gradient, RPA, STAB
   Michael Roemelt        : Original ROCIS implementation
   Masaaki Saitow         : Open-shell DLPNO-CCSD energy and density
   Barbara Sandhoefer     : DKH picture change effects
   Avijit Sen             : IP-ROCIS
   Kantharuban Sivalingam : CASSCF convergence, NEVPT2, FIC-MRCI
   Bernardo de Souza      : ESD, SOC TD-DFT
   Georgi Stoychev        : AutoAux, RI-MP2 NMR, DLPNO-MP2 response
   Willem Van den Heuvel  : Paramagnetic NMR
   Boris Wezisla          : Elementary symmetry handling
   Frank Wennmohs         : Technical directorship


 We gratefully acknowledge several colleagues who have allowed us to
 interface, adapt or use parts of their codes:
   Stefan Grimme, W. Hujo, H. Kruse, P. Pracht,  : VdW corrections, initial TS optimization,
                  C. Bannwarth, S. Ehlert          DFT functionals, gCP, sTDA/sTD-DF
   Ed Valeev, F. Pavosevic, A. Kumar             : LibInt (2-el integral package), F12 methods
   Garnet Chan, S. Sharma, J. Yang, R. Olivares  : DMRG
   Ulf Ekstrom                                   : XCFun DFT Library
   Mihaly Kallay                                 : mrcc  (arbitrary order and MRCC methods)
   Jiri Pittner, Ondrej Demel                    : Mk-CCSD
   Frank Weinhold                                : gennbo (NPA and NBO analysis)
   Christopher J. Cramer and Donald G. Truhlar   : smd solvation model
   Lars Goerigk                                  : TD-DFT with DH, B97 family of functionals
   V. Asgeirsson, H. Jonsson                     : NEB implementation
   FAccTs GmbH                                   : IRC, NEB, NEB-TS, DLPNO-Multilevel, CI-OPT
                                                   MM, QMMM, 2- and 3-layer-ONIOM, Crystal-QMMM,
                                                   LR-CPCM, SF, NACMEs, symmetry and pop. for TD-DFT,
                                                   nearIR, NL-DFT gradient (VV10), updates on ESD,
                                                   ML-optimized integration grids
   S Lehtola, MJT Oliveira, MAL Marques          : LibXC Library
   Liviu Ungur et al                             : ANISO software


 Your calculation uses the libint2 library for the computation of 2-el integrals
 For citations please refer to: http://libint.valeyev.net

 Your ORCA version has been built with support for libXC version: 5.1.0
 For citations please refer to: https://tddft.org/programs/libxc/

 This ORCA versions uses:
   CBLAS   interface :  Fast vector & matrix operations
   LAPACKE interface :  Fast linear algebra routines
   SCALAPACK package :  Parallel linear algebra routines
   Shared memory     :  Shared parallel matrices
   BLAS/LAPACK       :  OpenBLAS 0.3.15  USE64BITINT DYNAMIC_ARCH NO_AFFINITY SkylakeX SINGLE_THREADED
        Core in use  :  SkylakeX
   Copyright (c) 2011-2014, The OpenBLAS Project




***************************************
The coordinates will be read from file: 7_deprot_aq_2.xyz
***************************************


Your calculation utilizes the atom-pairwise dispersion correction
based on tight binding partial charges (D4)
Cite in your paper:
E.Caldeweyher, C.Bannwarth, S.Grimme, J.Chem.Phys., (2017), 147, 034112.
E.Caldeweyher, S.Ehlert, A.Hansen, H.Neugebauer, S.Grimme, J.Chem.Phys., (2018), in progress.
   

XCFun DFT library Copyright 2009-2010 Ulf Ekstrom and contributors.
See http://admol.org/xcfun for more information.
This is free software; see the source code for copying conditions.
There is ABSOLUTELY NO WARRANTY; not even for MERCHANTABILITY or FITNESS FOR A PARTICULAR PURPOSE.
For details see the documentation.
Scientific users of this library should cite U. Ekstrom, L. Visscher, R. Bast, A. J. Thorvaldsen and K. Ruud;
J.Chem.Theor.Comp. 2010, DOI: 10.1021/ct100117s
XCFun Version 0.99 

================================================================================

----- Orbital basis set information -----
Your calculation utilizes the basis: def2-SVP
   F. Weigend and R. Ahlrichs, Phys. Chem. Chem. Phys. 7, 3297 (2005).

----- AuxJ basis set information -----
Your calculation utilizes the auxiliary basis: def2/J
   F. Weigend, Phys. Chem. Chem. Phys. 8, 1057 (2006).

================================================================================
                                        WARNINGS
                       Please study these warnings very carefully!
================================================================================


WARNING: Geometry Optimization
  ===> : Switching off AutoStart
         For restart on a previous wavefunction, please use MOREAD

INFO   : the flag for use of the SHARK integral package has been found!

================================================================================
                                       INPUT FILE
================================================================================
NAME = 7_deprot_aq_2.inp
|  1> # ORCA 5.0.4 - /users/bwb16179/postgrad/2024_03/DFT_Crest_Conformers/Opt/deprot/7_deprot_aq_2.inp # write input file
|  2> # Basic Mode
|  3> #
|  4> ! Opt Freq wB97X Def2-SVP D4 SlowConv TightSCF Defgrid2 Def2/J RIJCOSX CPCM(Water)
|  5> 
|  6> 
|  7> 
|  8> %maxcore 4500
|  9> 
| 10> %geom
| 11> Maxiter 150
| 12> END
| 13> 
| 14> * xyzfile 0 1 7_deprot_aq_2.xyz
| 15> 
| 16>                          ****END OF INPUT****
================================================================================

                       *****************************
                       * Geometry Optimization Run *
                       *****************************

Geometry optimization settings:
Update method            Update   .... BFGS
Choice of coordinates    CoordSys .... Z-matrix Internals
Initial Hessian          InHess   .... Almoef's Model

Convergence Tolerances:
Energy Change            TolE     ....  5.0000e-06 Eh
Max. Gradient            TolMAXG  ....  3.0000e-04 Eh/bohr
RMS Gradient             TolRMSG  ....  1.0000e-04 Eh/bohr
Max. Displacement        TolMAXD  ....  4.0000e-03 bohr
RMS Displacement         TolRMSD  ....  2.0000e-03 bohr
Strict Convergence                ....  False
------------------------------------------------------------------------------
                        ORCA OPTIMIZATION COORDINATE SETUP
------------------------------------------------------------------------------

The optimization will be done in new redundant internal coordinates
Making redundant internal coordinates   ...  (new redundants) done
Evaluating the initial hessian          ...  (Almloef) done
Evaluating the coordinates              ...  done
Calculating the B-matrix                .... done
Calculating the G-matrix                .... done
Diagonalizing the G-matrix              .... done
Small eigenvalue found = 4.128e-03
Small eigenvalue found = 2.065e-02
Small eigenvalue found = 2.692e-02
The first mode is                       ....   71
The number of degrees of freedom        ....   81

    -----------------------------------------------------------------
                    Redundant Internal Coordinates


    -----------------------------------------------------------------
         Definition                    Initial Value    Approx d2E/dq
    -----------------------------------------------------------------
      1. B(C   1,N   0)                  1.3612         0.621961   
      2. B(N   2,C   1)                  1.3646         0.614294   
      3. B(C   3,N   2)                  1.3804         0.579617   
      4. B(C   4,C   3)                  1.3487         0.727187   
      5. B(C   4,N   0)                  1.3794         0.581752   
      6. B(C   5,N   0)                  1.3986         0.542173   
      7. B(C   6,N   2)                  1.3990         0.541313   
      8. B(C   7,C   5)                  1.3928         0.618337   
      9. B(C   8,C   5)                  1.3908         0.622907   
     10. B(C   9,C   6)                  1.3913         0.621774   
     11. B(C  10,C   6)                  1.3942         0.615187   
     12. B(H  11,C   3)                  1.0695         0.388212   
     13. B(H  12,C   4)                  1.0701         0.387348   
     14. B(C  13,C   8)                  1.3833         0.640347   
     15. B(C  14,C  13)                  1.3837         0.639332   
     16. B(C  15,C  14)                  1.3858         0.634460   
     17. B(C  15,C   7)                  1.3806         0.646821   
     18. B(C  16,C   9)                  1.3836         0.639676   
     19. B(C  17,C  16)                  1.3832         0.640623   
     20. B(C  18,C  17)                  1.3859         0.634249   
     21. B(C  18,C  10)                  1.3800         0.648294   
     22. B(H  19,C   7)                  1.0783         0.375950   
     23. B(H  20,C   8)                  1.0797         0.374025   
     24. B(H  21,C  13)                  1.0802         0.373316   
     25. B(H  22,C  14)                  1.0796         0.374058   
     26. B(H  23,C  15)                  1.0798         0.373835   
     27. B(H  24,C   9)                  1.0790         0.374927   
     28. B(H  25,C  18)                  1.0799         0.373743   
     29. B(H  26,C  10)                  1.0781         0.376204   
     30. B(H  27,C  16)                  1.0803         0.373219   
     31. B(H  28,C  17)                  1.0796         0.374155   
     32. A(C   4,N   0,C   5)          125.8269         0.413550   
     33. A(C   1,N   0,C   4)          111.4534         0.423793   
     34. A(C   1,N   0,C   5)          122.7195         0.418496   
     35. A(N   0,C   1,N   2)          103.7851         0.427943   
     36. A(C   1,N   2,C   3)          111.2272         0.422577   
     37. A(C   3,N   2,C   6)          126.3250         0.413163   
     38. A(C   1,N   2,C   6)          122.4477         0.417455   
     39. A(N   2,C   3,C   4)          106.8171         0.438436   
     40. A(N   2,C   3,H  11)          123.9616         0.351201   
     41. A(C   4,C   3,H  11)          129.2160         0.367303   
     42. A(N   0,C   4,C   3)          106.7162         0.438727   
     43. A(N   0,C   4,H  12)          123.4589         0.351287   
     44. A(C   3,C   4,H  12)          129.7888         0.367163   
     45. A(N   0,C   5,C   8)          121.5111         0.421345   
     46. A(C   7,C   5,C   8)          119.5309         0.434222   
     47. A(N   0,C   5,C   7)          118.9569         0.420791   
     48. A(N   2,C   6,C  10)          118.7962         0.420289   
     49. A(N   2,C   6,C   9)          122.0190         0.421088   
     50. A(C   9,C   6,C  10)          119.1846         0.433681   
     51. A(C  15,C   7,H  19)          121.5191         0.358061   
     52. A(C   5,C   7,H  19)          118.3789         0.355332   
     53. A(C   5,C   7,C  15)          120.1010         0.437178   
     54. A(C   5,C   8,C  13)          119.9221         0.436965   
     55. A(C  13,C   8,H  20)          119.5467         0.357138   
     56. A(C   5,C   8,H  20)          120.5234         0.355467   
     57. A(C   6,C   9,C  16)          120.0678         0.436739   
     58. A(C   6,C   9,H  24)          120.9508         0.355502   
     59. A(C  16,C   9,H  24)          118.9805         0.357220   
     60. A(C   6,C  10,C  18)          120.3095         0.436955   
     61. A(C  18,C  10,H  26)          121.4829         0.358241   
     62. A(C   6,C  10,H  26)          118.2070         0.355066   
     63. A(C   8,C  13,C  14)          120.4683         0.439021   
     64. A(C  14,C  13,H  21)          120.0879         0.356926   
     65. A(C   8,C  13,H  21)          119.4432         0.357022   
     66. A(C  13,C  14,C  15)          119.6520         0.438290   
     67. A(C  15,C  14,H  22)          120.2487         0.356583   
     68. A(C  13,C  14,H  22)          120.0989         0.357047   
     69. A(C   7,C  15,C  14)          120.3213         0.439212   
     70. A(C  14,C  15,H  23)          120.0333         0.356547   
     71. A(C   7,C  15,H  23)          119.6445         0.357718   
     72. A(C   9,C  16,C  17)          120.5801         0.439098   
     73. A(C  17,C  16,H  27)          120.0926         0.357033   
     74. A(C   9,C  16,H  27)          119.3272         0.356943   
     75. A(C  16,C  17,C  18)          119.4810         0.438424   
     76. A(C  18,C  17,H  28)          120.3410         0.356578   
     77. A(C  16,C  17,H  28)          120.1779         0.357185   
     78. A(C  10,C  18,C  17)          120.3759         0.439366   
     79. A(C  17,C  18,H  25)          120.0443         0.356512   
     80. A(C  10,C  18,H  25)          119.5798         0.357841   
     81. D(N   2,C   1,N   0,C   5)   -179.8565         0.028394   
     82. D(N   2,C   1,N   0,C   4)      0.0256         0.028394   
     83. D(C   6,N   2,C   1,N   0)    179.6786         0.027649   
     84. D(C   3,N   2,C   1,N   0)     -0.2111         0.027649   
     85. D(H  11,C   3,N   2,C   1)   -178.9112         0.026943   
     86. D(C   4,C   3,N   2,C   1)      0.3209         0.026943   
     87. D(H  11,C   3,N   2,C   6)      1.2043         0.026943   
     88. D(C   4,C   3,N   2,C   6)   -179.5636         0.026943   
     89. D(H  12,C   4,C   3,N   2)   -178.1203         0.037493   
     90. D(N   0,C   4,C   3,H  11)    178.8905         0.037493   
     91. D(H  12,C   4,N   0,C   5)     -1.9500         0.027155   
     92. D(N   0,C   4,C   3,N   2)     -0.2874         0.037493   
     93. D(H  12,C   4,N   0,C   1)    178.1724         0.027155   
     94. D(H  12,C   4,C   3,H  11)      1.0576         0.037493   
     95. D(C   3,C   4,N   0,C   1)      0.1683         0.027155   
     96. D(C   3,C   4,N   0,C   5)   -179.9540         0.027155   
     97. D(C   8,C   5,N   0,C   4)    -22.4693         0.023394   
     98. D(C   8,C   5,N   0,C   1)    157.3953         0.023394   
     99. D(C   7,C   5,N   0,C   4)    157.9165         0.023394   
    100. D(C   7,C   5,N   0,C   1)    -22.2189         0.023394   
    101. D(C  10,C   6,N   2,C   3)   -173.8422         0.023316   
    102. D(C  10,C   6,N   2,C   1)      6.2854         0.023316   
    103. D(C   9,C   6,N   2,C   3)      6.3119         0.023316   
    104. D(C   9,C   6,N   2,C   1)   -173.5605         0.023316   
    105. D(H  19,C   7,C   5,C   8)   -179.3001         0.026448   
    106. D(H  19,C   7,C   5,N   0)      0.3219         0.026448   
    107. D(C  15,C   7,C   5,C   8)      0.3381         0.026448   
    108. D(C  15,C   7,C   5,N   0)    179.9601         0.026448   
    109. D(H  20,C   8,C   5,N   0)     -1.2622         0.026865   
    110. D(C  13,C   8,C   5,C   7)     -0.6377         0.026865   
    111. D(C  13,C   8,C   5,N   0)    179.7502         0.026865   
    112. D(H  20,C   8,C   5,C   7)    178.3498         0.026865   
    113. D(H  24,C   9,C   6,C  10)   -179.3241         0.026761   
    114. D(H  24,C   9,C   6,N   2)      0.5212         0.026761   
    115. D(C  16,C   9,C   6,C  10)      0.3142         0.026761   
    116. D(C  16,C   9,C   6,N   2)   -179.8404         0.026761   
    117. D(H  26,C  10,C   6,C   9)    179.6028         0.026164   
    118. D(H  26,C  10,C   6,N   2)     -0.2476         0.026164   
    119. D(C  18,C  10,C   6,C   9)     -0.1184         0.026164   
    120. D(C  18,C  10,C   6,N   2)   -179.9688         0.026164   
    121. D(H  21,C  13,C   8,H  20)      1.0169         0.028491   
    122. D(H  21,C  13,C   8,C   5)   -179.9856         0.028491   
    123. D(C  14,C  13,C   8,H  20)   -178.6730         0.028491   
    124. D(C  14,C  13,C   8,C   5)      0.3245         0.028491   
    125. D(H  22,C  14,C  13,H  21)      0.3663         0.028395   
    126. D(H  22,C  14,C  13,C   8)   -179.9458         0.028395   
    127. D(C  15,C  14,C  13,H  21)   -179.3959         0.028395   
    128. D(C  15,C  14,C  13,C   8)      0.2920         0.028395   
    129. D(H  23,C  15,C  14,H  22)     -0.0091         0.027936   
    130. D(C   7,C  15,C  14,H  22)    179.6438         0.027936   
    131. D(C   7,C  15,C  14,C  13)     -0.5943         0.027936   
    132. D(H  23,C  15,C   7,H  19)     -0.4405         0.029110   
    133. D(H  23,C  15,C   7,C   5)    179.9330         0.029110   
    134. D(H  23,C  15,C  14,C  13)    179.7528         0.027936   
    135. D(C  14,C  15,C   7,H  19)    179.9053         0.029110   
    136. D(C  14,C  15,C   7,C   5)      0.2787         0.029110   
    137. D(H  27,C  16,C   9,H  24)     -0.4565         0.028428   
    138. D(H  27,C  16,C   9,C   6)    179.8981         0.028428   
    139. D(C  17,C  16,C   9,H  24)    179.4336         0.028428   
    140. D(C  17,C  16,C   9,C   6)     -0.2118         0.028428   
    141. D(H  28,C  17,C  16,C   9)   -179.9773         0.028518   
    142. D(C  18,C  17,C  16,H  27)    179.7994         0.028518   
    143. D(C  18,C  17,C  16,C   9)     -0.0898         0.028518   
    144. D(H  28,C  17,C  16,H  27)     -0.0881         0.028518   
    145. D(H  25,C  18,C  17,H  28)      0.0740         0.027916   
    146. D(H  25,C  18,C  17,C  16)   -179.8133         0.027916   
    147. D(C  10,C  18,C  17,H  28)   -179.8254         0.027916   
    148. D(C  10,C  18,C  17,C  16)      0.2872         0.027916   
    149. D(H  25,C  18,C  10,H  26)      0.2053         0.029252   
    150. D(H  25,C  18,C  10,C   6)    179.9172         0.029252   
    151. D(C  17,C  18,C  10,H  26)   -179.8948         0.029252   
    152. D(C  17,C  18,C  10,C   6)     -0.1829         0.029252   
    -----------------------------------------------------------------

Number of atoms                         .... 29
Number of degrees of freedom            .... 152

         *************************************************************
         *                GEOMETRY OPTIMIZATION CYCLE   1            *
         *************************************************************
---------------------------------
CARTESIAN COORDINATES (ANGSTROEM)
---------------------------------
  N     -1.069384   -0.510184   -0.232986
  C      0.000220    0.259991    0.107233
  N      1.074940   -0.527194   -0.188556
  C      0.676032   -1.749049   -0.692078
  C     -0.672228   -1.736635   -0.723815
  C     -2.390693   -0.074550   -0.089887
  C      2.393314   -0.102815    0.009221
  C     -2.669780    0.946605    0.815279
  C     -3.424573   -0.631864   -0.834793
  C      3.482613   -0.856941   -0.415624
  C      2.617881    1.115268    0.649291
  H      1.351944   -2.528166   -0.974975
  H     -1.357323   -2.502657   -1.022253
  C     -4.720458   -0.179384   -0.663076
  C     -4.996900    0.830677    0.241408
  C     -3.965567    1.395445    0.974819
  C      4.769991   -0.400011   -0.196073
  C      4.988843    0.807932    0.441260
  C      3.905619    1.564268    0.859988
  H     -1.852583    1.373105    1.374710
  H     -3.222547   -1.405743   -1.560044
  H     -5.517534   -0.617862   -1.245497
  H     -6.010643    1.178665    0.371292
  H     -4.173753    2.186762    1.679422
  H      3.341528   -1.798459   -0.923478
  H      4.065944    2.510120    1.355765
  H      1.762390    1.689772    0.966086
  H      5.607028   -0.995985   -0.529457
  H      5.996091    1.158416    0.608893

----------------------------
CARTESIAN COORDINATES (A.U.)
----------------------------
  NO LB      ZA    FRAG     MASS         X           Y           Z
   0 N     7.0000    0    14.007   -2.020842   -0.964107   -0.440279
   1 C     6.0000    0    12.011    0.000416    0.491311    0.202641
   2 N     7.0000    0    14.007    2.031343   -0.996252   -0.356319
   3 C     6.0000    0    12.011    1.277515   -3.305223   -1.307838
   4 C     6.0000    0    12.011   -1.270326   -3.281765   -1.367812
   5 C     6.0000    0    12.011   -4.517754   -0.140878   -0.169862
   6 C     6.0000    0    12.011    4.522707   -0.194293    0.017425
   7 C     6.0000    0    12.011   -5.045154    1.788823    1.540654
   8 C     6.0000    0    12.011   -6.471506   -1.194050   -1.577529
   9 C     6.0000    0    12.011    6.581185   -1.619384   -0.785415
  10 C     6.0000    0    12.011    4.947078    2.107551    1.226983
  11 H     1.0000    0     1.008    2.554803   -4.777541   -1.842436
  12 H     1.0000    0     1.008   -2.564969   -4.729337   -1.931778
  13 C     6.0000    0    12.011   -8.920372   -0.338987   -1.253033
  14 C     6.0000    0    12.011   -9.442773    1.569752    0.456195
  15 C     6.0000    0    12.011   -7.493835    2.637008    1.842140
  16 C     6.0000    0    12.011    9.013977   -0.755912   -0.370523
  17 C     6.0000    0    12.011    9.427548    1.526770    0.833860
  18 C     6.0000    0    12.011    7.380550    2.956039    1.625141
  19 H     1.0000    0     1.008   -3.500874    2.594792    2.597825
  20 H     1.0000    0     1.008   -6.089732   -2.656468   -2.948055
  21 H     1.0000    0     1.008  -10.426628   -1.167590   -2.353649
  22 H     1.0000    0     1.008  -11.358469    2.227354    0.701640
  23 H     1.0000    0     1.008   -7.887250    4.132382    3.173648
  24 H     1.0000    0     1.008    6.314574   -3.398595   -1.745120
  25 H     1.0000    0     1.008    7.683521    4.743440    2.562025
  26 H     1.0000    0     1.008    3.330434    3.193207    1.825638
  27 H     1.0000    0     1.008   10.595747   -1.882140   -1.000529
  28 H     1.0000    0     1.008   11.330970    2.189090    1.150642

--------------------------------
INTERNAL COORDINATES (ANGSTROEM)
--------------------------------
 N      0   0   0     0.000000000000     0.00000000     0.00000000
 C      1   0   0     1.361238150260     0.00000000     0.00000000
 N      2   1   0     1.364614777784   103.78510634     0.00000000
 C      3   2   1     1.380431775817   111.22718558   359.78887724
 C      4   3   2     1.348690118587   106.81713940     0.32089191
 C      1   2   3     1.398610687293   122.71953271   180.14354839
 C      3   2   1     1.399042917192   122.44770005   179.67857245
 C      6   1   2     1.392828889624   118.95686899   337.78109714
 C      6   1   2     1.390824371860   121.51107687   157.39532186
 C      7   3   2     1.391320092051   122.01899495   186.43947796
 C      7   3   2     1.394219077637   118.79623560     6.28542325
 H      4   3   2     1.069537742204   123.96162980   181.08880574
 H      5   4   3     1.070144831665   129.78875588   181.87972619
 C      9   6   1     1.383307854693   119.92214139   179.75021602
 C     14   9   6     1.383739808068   120.46825279     0.32452970
 C      8   6   1     1.380569599141   120.10100916   179.96011473
 C     10   7   3     1.383593347797   120.06780225   180.15959335
 C     17  10   7     1.383190606873   120.58010199   359.78816146
 C     11   7   3     1.379950354393   120.30954838   180.03119962
 H      8   6   1     1.078274833108   118.37887082     0.32194508
 H      9   6   1     1.079672185363   120.52343290   358.73777510
 H     14   9   6     1.080188427662   119.44315488   180.01441496
 H     15  14   9     1.079647742713   120.09893515   180.05420685
 H     16   8   6     1.079810578347   119.64448486   179.93296700
 H     10   7   3     1.079016375452   120.95077834     0.52122976
 H     19  11   7     1.079877742584   119.57977495   179.91715822
 H     11   7   3     1.078090659924   118.20697574   359.75240151
 H     17  10   7     1.080259386684   119.32720835   179.89807890
 H     18  17  10     1.079577830916   120.17786908   180.02266824

---------------------------
INTERNAL COORDINATES (A.U.)
---------------------------
 N      0   0   0     0.000000000000     0.00000000     0.00000000
 C      1   0   0     2.572367307038     0.00000000     0.00000000
 N      2   1   0     2.578748208314   103.78510634     0.00000000
 C      3   2   1     2.608638002858   111.22718558   359.78887724
 C      4   3   2     2.548654963655   106.81713940     0.32089191
 C      1   2   3     2.642991166959   122.71953271   180.14354839
 C      3   2   1     2.643807963095   122.44770005   179.67857245
 C      6   1   2     2.632065152803   118.95686899   337.78109714
 C      6   1   2     2.628277163199   121.51107687   157.39532186
 C      7   3   2     2.629213938598   122.01899495   186.43947796
 C      7   3   2     2.634692227422   118.79623560     6.28542325
 H      4   3   2     2.021133422657   123.96162980   181.08880574
 H      5   4   3     2.022280655479   129.78875588   181.87972619
 C      9   6   1     2.614073004272   119.92214139   179.75021602
 C     14   9   6     2.614889277854   120.46825279     0.32452970
 C      8   6   1     2.608898451193   120.10100916   179.96011473
 C     10   7   3     2.614612508052   120.06780225   180.15959335
 C     17  10   7     2.613851438003   120.58010199   359.78816146
 C     11   7   3     2.607728248211   120.30954838   180.03119962
 H      8   6   1     2.037644131673   118.37887082     0.32194508
 H      9   6   1     2.040284744749   120.52343290   358.73777510
 H     14   9   6     2.041260301311   119.44315488   180.01441496
 H     15  14   9     2.040238554835   120.09893515   180.05420685
 H     16   8   6     2.040546269587   119.64448486   179.93296700
 H     10   7   3     2.039045443621   120.95077834     0.52122976
 H     19  11   7     2.040673191600   119.57977495   179.91715822
 H     11   7   3     2.037296094795   118.20697574   359.75240151
 H     17  10   7     2.041394394431   119.32720835   179.89807890
 H     18  17  10     2.040106440684   120.17786908   180.02266824

---------------------
BASIS SET INFORMATION
---------------------
There are 3 groups of distinct atoms

 Group   1 Type N   : 7s4p1d contracted to 3s2p1d pattern {511/31/1}
 Group   2 Type C   : 7s4p1d contracted to 3s2p1d pattern {511/31/1}
 Group   3 Type H   : 4s1p contracted to 2s1p pattern {31/1}

Atom   0N    basis set group =>   1
Atom   1C    basis set group =>   2
Atom   2N    basis set group =>   1
Atom   3C    basis set group =>   2
Atom   4C    basis set group =>   2
Atom   5C    basis set group =>   2
Atom   6C    basis set group =>   2
Atom   7C    basis set group =>   2
Atom   8C    basis set group =>   2
Atom   9C    basis set group =>   2
Atom  10C    basis set group =>   2
Atom  11H    basis set group =>   3
Atom  12H    basis set group =>   3
Atom  13C    basis set group =>   2
Atom  14C    basis set group =>   2
Atom  15C    basis set group =>   2
Atom  16C    basis set group =>   2
Atom  17C    basis set group =>   2
Atom  18C    basis set group =>   2
Atom  19H    basis set group =>   3
Atom  20H    basis set group =>   3
Atom  21H    basis set group =>   3
Atom  22H    basis set group =>   3
Atom  23H    basis set group =>   3
Atom  24H    basis set group =>   3
Atom  25H    basis set group =>   3
Atom  26H    basis set group =>   3
Atom  27H    basis set group =>   3
Atom  28H    basis set group =>   3
---------------------------------
AUXILIARY/J BASIS SET INFORMATION
---------------------------------
There are 3 groups of distinct atoms

 Group   1 Type N   : 12s5p4d2f1g contracted to 6s4p3d1f1g pattern {711111/2111/211/2/1}
 Group   2 Type C   : 12s5p4d2f1g contracted to 6s4p3d1f1g pattern {711111/2111/211/2/1}
 Group   3 Type H   : 5s2p1d contracted to 3s1p1d pattern {311/2/1}

Atom   0N    basis set group =>   1
Atom   1C    basis set group =>   2
Atom   2N    basis set group =>   1
Atom   3C    basis set group =>   2
Atom   4C    basis set group =>   2
Atom   5C    basis set group =>   2
Atom   6C    basis set group =>   2
Atom   7C    basis set group =>   2
Atom   8C    basis set group =>   2
Atom   9C    basis set group =>   2
Atom  10C    basis set group =>   2
Atom  11H    basis set group =>   3
Atom  12H    basis set group =>   3
Atom  13C    basis set group =>   2
Atom  14C    basis set group =>   2
Atom  15C    basis set group =>   2
Atom  16C    basis set group =>   2
Atom  17C    basis set group =>   2
Atom  18C    basis set group =>   2
Atom  19H    basis set group =>   3
Atom  20H    basis set group =>   3
Atom  21H    basis set group =>   3
Atom  22H    basis set group =>   3
Atom  23H    basis set group =>   3
Atom  24H    basis set group =>   3
Atom  25H    basis set group =>   3
Atom  26H    basis set group =>   3
Atom  27H    basis set group =>   3
Atom  28H    basis set group =>   3
------------------------------------------------------------------------------
                           ORCA GTO INTEGRAL CALCULATION
                           -- RI-GTO INTEGRALS CHOSEN --
------------------------------------------------------------------------------
------------------------------------------------------------------------------
                   ___                                                        
                  /   \      - P O W E R E D   B Y -                         
                 /     \                                                     
                 |  |  |   _    _      __       _____    __    __             
                 |  |  |  | |  | |    /  \     |  _  \  |  |  /  |          
                  \  \/   | |  | |   /    \    | | | |  |  | /  /          
                 / \  \   | |__| |  /  /\  \   | |_| |  |  |/  /          
                |  |  |   |  __  | /  /__\  \  |    /   |      \           
                |  |  |   | |  | | |   __   |  |    \   |  |\   \          
                \     /   | |  | | |  |  |  |  | |\  \  |  | \   \       
                 \___/    |_|  |_| |__|  |__|  |_| \__\ |__|  \__/        
                                                                              
                      - O R C A' S   B I G   F R I E N D -                    
                                      &                                       
                       - I N T E G R A L  F E E D E R -                       
                                                                              
 v1 FN, 2020, v2 2021                                                         
------------------------------------------------------------------------------


Reading SHARK input file 7_deprot_aq_2.SHARKINP.tmp ... ok
----------------------
SHARK INTEGRAL PACKAGE
----------------------

Number of atoms                             ...     29
Number of basis functions                   ...    298
Number of shells                            ...    138
Maximum angular momentum                    ...      2
Integral batch strategy                     ... SHARK/LIBINT Hybrid
RI-J (if used) integral strategy            ... SPLIT-RIJ (Revised 2003 algorithm where possible)
Printlevel                                  ...      1
Contraction scheme used                     ... SEGMENTED contraction
Coulomb Range Separation                    ... NOT USED
Exchange Range Separation                   ... Long Range
   Mu parameter                             ...  0.300000
   Scaling (regular/separated)              ...  0.157706  0.842294
Finite Nucleus Model                        ... NOT USED
Auxiliary Coulomb fitting basis             ... AVAILABLE
   # of basis functions in Aux-J            ...    965
   # of shells in Aux-J                     ...    315
   Maximum angular momentum in Aux-J        ...      4
Auxiliary J/K fitting basis                 ... NOT available
Auxiliary Correlation fitting basis         ... NOT available
Auxiliary 'external' fitting basis          ... NOT available
Integral threshold                          ...     2.500000e-11
Primitive cut-off                           ...     2.500000e-12
Primitive pair pre-selection threshold      ...     2.500000e-12

Calculating pre-screening integrals         ... done (  0.1 sec) Dimension = 138
Organizing shell pair data                  ... done (  0.0 sec)
Shell pair information
Total number of shell pairs                 ...      9591
Shell pairs after pre-screening             ...      7215
Total number of primitive shell pairs       ...     35237
Primitive shell pairs kept                  ...     17625
          la=0 lb=0:   2168 shell pairs
          la=1 lb=0:   2646 shell pairs
          la=1 lb=1:    843 shell pairs
          la=2 lb=0:    894 shell pairs
          la=2 lb=1:    564 shell pairs
          la=2 lb=2:    100 shell pairs

Calculating one electron integrals          ... done (  0.1 sec)
Calculating RI/J V-Matrix + Cholesky decomp.... done (  0.1 sec)
Calculating Nuclear repulsion               ... done (  0.0 sec) ENN=   1046.285133933360 Eh

SHARK setup successfully completed in   0.4 seconds

Maximum memory used throughout the entire GTOINT-calculation: 50.8 MB
-------------------------------------------------------------------------------
                                 ORCA SCF
-------------------------------------------------------------------------------

------------
SCF SETTINGS
------------
Hamiltonian:
 Density Functional     Method          .... DFT(GTOs)
 Exchange Functional    Exchange        .... WB97X
 Correlation Functional Correlation     .... WB97X
 Gradients option       PostSCFGGA      .... off
 Hybrid DFT is turned on
   Fraction HF Exchange ScalHFX         ....  0.157706
   Scaling of DF-GGA-X  ScalDFX         ....  0.000000
   Scaling of DF-GGA-C  ScalDFC         ....  1.000000
   Scaling of DF-LDA-C  ScalLDAC        ....  1.000000
   Perturbative correction              ....  0.000000
   Density functional embedding theory  .... OFF
 Long-range corrected/Screened/Range-Separated Hybrid DFT is turned on
   Amount of maximum screened exact exchange              ....  0.842294
   Range separation parameter mu (erf(mu*r12)/r12)        ....  0.300000
 RI-approximation to the Coulomb term is turned on
   Number of AuxJ basis functions       .... 965
   RIJ-COSX (HFX calculated with COS-X)).... on


General Settings:
 Integral files         IntName         .... 7_deprot_aq_2
 Hartree-Fock type      HFTyp           .... RHF
 Total Charge           Charge          ....    0
 Multiplicity           Mult            ....    1
 Number of Electrons    NEL             ....  116
 Basis Dimension        Dim             ....  298
 Nuclear Repulsion      ENuc            ....   1046.2851339334 Eh

Convergence Acceleration:
 DIIS                   CNVDIIS         .... on
   Start iteration      DIISMaxIt       ....     0
   Startup error        DIISStart       ....  0.200000
   # of expansion vecs  DIISMaxEq       ....     5
   Bias factor          DIISBfac        ....   1.050
   Max. coefficient     DIISMaxC        ....  10.000
 Trust-Rad. Augm. Hess. CNVTRAH         .... auto
   Auto Start mean grad. ratio tolernc. ....  1.125000
   Auto Start start iteration           ....    20
   Auto Start num. interpolation iter.  ....    10
   Max. Number of Micro iterations      ....    16
   Max. Number of Macro iterations      .... Maxiter - #DIIS iter
   Number of Davidson start vectors     ....     2
   Converg. threshold I  (grad. norm)   ....   1.000e-05
   Converg. threshold II (energy diff.) ....   1.000e-08
   Grad. Scal. Fac. for Micro threshold ....   0.100
   Minimum threshold for Micro iter.    ....   0.010
   NR start threshold (gradient norm)   ....   0.001
   Initial trust radius                 ....   0.400
   Minimum AH scaling param. (alpha)    ....   1.000
   Maximum AH scaling param. (alpha)    .... 1000.000
   Orbital update algorithm             .... Taylor
   White noise on init. David. guess    .... on
   Maximum white noise                  ....   0.010
   Quad. conv. algorithm                .... NR
 SOSCF                  CNVSOSCF        .... on
   Start iteration      SOSCFMaxIt      ....   150
   Startup grad/error   SOSCFStart      ....  0.001000
 Level Shifting         CNVShift        .... on
   Level shift para.    LevelShift      ....    0.2500
   Turn off err/grad.   ShiftErr        ....    0.0000
 Zerner damping         CNVZerner       .... off
 Static damping         CNVDamp         .... on
   Fraction old density DampFac         ....    0.8500
   Max. Damping (<1)    DampMax         ....    0.9800
   Min. Damping (>=0)   DampMin         ....    0.0000
   Turn off err/grad.   DampErr         ....    0.0300
 Fernandez-Rico         CNVRico         .... off

SCF Procedure:
 Maximum # iterations   MaxIter         ....   125
 SCF integral mode      SCFMode         .... Direct
   Integral package                     .... SHARK and LIBINT hybrid scheme
 Reset frequency        DirectResetFreq ....    20
 Integral Threshold     Thresh          ....  2.500e-11 Eh
 Primitive CutOff       TCut            ....  2.500e-12 Eh

Convergence Tolerance:
 Convergence Check Mode ConvCheckMode   .... Total+1el-Energy
 Convergence forced     ConvForced      .... 0
 Energy Change          TolE            ....  1.000e-08 Eh
 1-El. energy change                    ....  1.000e-05 Eh
 Orbital Gradient       TolG            ....  1.000e-05
 Orbital Rotation angle TolX            ....  1.000e-05
 DIIS Error             TolErr          ....  5.000e-07


Diagonalization of the overlap matrix:
Smallest eigenvalue                        ... 2.587e-04
Time for diagonalization                   ...    0.016 sec
Threshold for overlap eigenvalues          ... 1.000e-08
Number of eigenvalues below threshold      ... 0
Time for construction of square roots      ...    0.027 sec
Total time needed                          ...    0.044 sec

Time for model grid setup =    0.684 sec

------------------------------
INITIAL GUESS: MODEL POTENTIAL
------------------------------
Loading Hartree-Fock densities                     ... done
Calculating cut-offs                               ... done
Initializing the effective Hamiltonian             ... done
Setting up the integral package (SHARK)            ... done
Starting the Coulomb interaction                   ... done (   0.7 sec)
Reading the grid                                   ... done
Mapping shells                                     ... done
Starting the XC term evaluation                    ... done (   0.7 sec)
  promolecular density results
     # of electrons  =    115.992136316
     EX              =    -93.434098557
     EC              =     -3.889919327
     EX+EC           =    -97.324017884
Transforming the Hamiltonian                       ... done (   0.0 sec)
Diagonalizing the Hamiltonian                      ... done (   0.0 sec)
Back transforming the eigenvectors                 ... done (   0.0 sec)
Now organizing SCF variables                       ... done
                      ------------------
                      INITIAL GUESS DONE (   2.1 sec)
                      ------------------
-------------------
DFT GRID GENERATION
-------------------

General Integration Accuracy     IntAcc      ... 4.388
Radial Grid Type                 RadialGrid  ... OptM3 with GC (2021)
Angular Grid (max. ang.)         AngularGrid ... 4 (Lebedev-302)
Angular grid pruning method      GridPruning ... 4 (adaptive)
Weight generation scheme         WeightScheme... Becke
Basis function cutoff            BFCut       ... 1.0000e-11
Integration weight cutoff        WCut        ... 1.0000e-14
Angular grids for H and He will be reduced by one unit
Partially contracted basis set               ... off
Rotationally invariant grid construction     ... off

Total number of grid points                  ...   140309
Total number of batches                      ...     2210
Average number of points per batch           ...       63
Average number of grid points per atom       ...     4838
Time for grid setup =    2.350 sec

--------------------
COSX GRID GENERATION
--------------------

GRIDX 1
-------
General Integration Accuracy     IntAcc      ... 3.816
Radial Grid Type                 RadialGrid  ... OptM3 with GC (2021)
Angular Grid (max. ang.)         AngularGrid ... 1 (Lebedev-50)
Angular grid pruning method      GridPruning ... 4 (adaptive)
Weight generation scheme         WeightScheme... Becke
Basis function cutoff            BFCut       ... 1.0000e-11
Integration weight cutoff        WCut        ... 1.0000e-14
Angular grids for H and He will be reduced by one unit
Partially contracted basis set               ... on
Rotationally invariant grid construction     ... off

Total number of grid points                  ...    17885
Total number of batches                      ...      289
Average number of points per batch           ...       61
Average number of grid points per atom       ...      617
UseSFitting                                  ... on

GRIDX 2
-------
General Integration Accuracy     IntAcc      ... 4.020
Radial Grid Type                 RadialGrid  ... OptM3 with GC (2021)
Angular Grid (max. ang.)         AngularGrid ... 2 (Lebedev-110)
Angular grid pruning method      GridPruning ... 4 (adaptive)
Weight generation scheme         WeightScheme... Becke
Basis function cutoff            BFCut       ... 1.0000e-11
Integration weight cutoff        WCut        ... 1.0000e-14
Angular grids for H and He will be reduced by one unit
Partially contracted basis set               ... on
Rotationally invariant grid construction     ... off

Total number of grid points                  ...    39193
Total number of batches                      ...      624
Average number of points per batch           ...       62
Average number of grid points per atom       ...     1351
UseSFitting                                  ... on

GRIDX 3
-------
General Integration Accuracy     IntAcc      ... 4.338
Radial Grid Type                 RadialGrid  ... OptM3 with GC (2021)
Angular Grid (max. ang.)         AngularGrid ... 3 (Lebedev-194)
Angular grid pruning method      GridPruning ... 4 (adaptive)
Weight generation scheme         WeightScheme... Becke
Basis function cutoff            BFCut       ... 1.0000e-11
Integration weight cutoff        WCut        ... 1.0000e-14
Angular grids for H and He will be reduced by one unit
Partially contracted basis set               ... on
Rotationally invariant grid construction     ... off

Total number of grid points                  ...    85939
Total number of batches                      ...     1358
Average number of points per batch           ...       63
Average number of grid points per atom       ...     2963
UseSFitting                                  ... on

Time for X-Grid setup             =    3.065 sec


--------------------
CPCM SOLVATION MODEL
--------------------
CPCM parameters:
  Epsilon                                         ...      80.4000
  Refrac                                          ...       1.3300
  Rsolv                                           ...       1.3000
  Surface type                                    ... GAUSSIAN VDW
  Epsilon function type                           ...         CPCM
Radii:
 Radius for N  used is    3.5149 Bohr (=   1.8600 Ang.)
 Radius for C  used is    3.8550 Bohr (=   2.0400 Ang.)
 Radius for H  used is    2.4944 Bohr (=   1.3200 Ang.)
Calculating surface                               ...        done! (  0.0s)
GEPOL surface points                              ...         1546
GEPOL Volume                                      ...    1837.5972
GEPOL Surface-area                                ...     946.3044
Calculating surface distance matrix               ...        done! (  0.0s)
Performing Cholesky decomposition & store         ...        done! (  0.1s)
Overall time for CPCM initialization              ...                 0.1s
--------------
SCF ITERATIONS
--------------
ITER       Energy         Delta-E        Max-DP      RMS-DP      [F,P]     Damp
               ***  Starting incremental Fock matrix formation  ***
  0   -687.3463877292   0.000000000000 0.03189247  0.00076714  0.1086291 0.8500
  1   -687.3987210905  -0.052333361243 0.03560152  0.00073087  0.0867468 0.8500
                               ***Turning on DIIS***
  2   -687.4395814809  -0.040860390439 0.03251046  0.00061234  0.0661484 0.8500
  3   -687.4706724972  -0.031091016288 0.02850791  0.00047801  0.0518598 0.8500
  4   -687.4950580299  -0.024385532673 0.02452404  0.00038404  0.0423347 0.8500
  5   -687.5144979538  -0.019439923868 0.02096438  0.00031870  0.0353661 0.8500
  6   -687.5303910736  -0.015893119898 0.11957017  0.00179214  0.0298719 0.0000
  7   -687.6143299698  -0.083938896141 0.00184088  0.00005642  0.0012497 0.0000
                      *** Initiating the SOSCF procedure ***
                           *** Shutting down DIIS ***
                      *** Re-Reading the Fockian *** 
                      *** Removing any level shift *** 
ITER      Energy       Delta-E        Grad      Rot      Max-DP    RMS-DP
  8   -687.61439118  -0.0000612131  0.000539  0.000539  0.002641  0.000033
               *** Restarting incremental Fock matrix formation ***
  9   -687.61428101   0.0001101714  0.000341  0.000757  0.000887  0.000026
 10   -687.61428643  -0.0000054137  0.000100  0.000499  0.000817  0.000019
 11   -687.61428763  -0.0000012082  0.000072  0.000122  0.000305  0.000007
 12   -687.61428786  -0.0000002238  0.000013  0.000039  0.000164  0.000002
 13   -687.61428788  -0.0000000230  0.000006  0.000016  0.000019  0.000000
                  ***Gradient check signals convergence***
              ***Rediagonalizing the Fockian in SOSCF/NRSCF***

               *****************************************************
               *                     SUCCESS                       *
               *           SCF CONVERGED AFTER  14 CYCLES          *
               *****************************************************

Old exchange energy                            =    -30.281524683 Eh
New exchange energy                            =    -30.281543503 Eh
Exchange energy change after final integration =     -0.000018820 Eh
Total energy after final integration           =   -687.614306704 Eh
Final COS-X integration done in                =    89.563 sec

----------------
TOTAL SCF ENERGY
----------------

Total Energy       :         -687.61430670 Eh          -18710.93653 eV

Components:
Nuclear Repulsion  :         1046.28513393 Eh           28470.86593 eV
Electronic Energy  :        -1733.89944064 Eh          -47181.80246 eV
One Electron Energy:        -3004.32702731 Eh          -81751.89460 eV
Two Electron Energy:         1270.42758667 Eh           34570.09214 eV
Max COSX asymmetry :            0.00000209 Eh               0.00006 eV
CPCM Dielectric    :           -0.01665194 Eh              -0.45312 eV

Virial components:
Potential Energy   :        -1368.11273462 Eh          -37228.24016 eV
Kinetic Energy     :          680.49842791 Eh           18517.30362 eV
Virial Ratio       :            2.01045686


DFT components:
N(Alpha)           :       58.000021504917 electrons
N(Beta)            :       58.000021504917 electrons
N(Total)           :      116.000043009834 electrons
E(XC)              :      -69.238026476151 Eh       
DFET-embed. en.    :        0.000000000000 Eh       
CPCM Solvation Model Properties:
Surface-charge          :           -0.02556668
Charge-correction       :           -0.00008796 Eh              -0.00239 eV
Free-energy (cav+disp)  :  This term is not implemented in the current solvation scheme

---------------
SCF CONVERGENCE
---------------

  Last Energy change         ...   -3.7163e-09  Tolerance :   1.0000e-08
  Last MAX-Density change    ...    6.6613e-15  Tolerance :   1.0000e-07
  Last RMS-Density change    ...    4.3963e-17  Tolerance :   5.0000e-09
  Last Orbital Gradient      ...    1.6612e-06  Tolerance :   1.0000e-05
  Last Orbital Rotation      ...    6.5354e-06  Tolerance :   1.0000e-05

             **** THE GBW FILE WAS UPDATED (7_deprot_aq_2.gbw) ****
             **** DENSITY 7_deprot_aq_2.scfp WAS UPDATED ****
             **** ENERGY FILE WAS UPDATED (7_deprot_aq_2.en.tmp) ****
             **** THE GBW FILE WAS UPDATED (7_deprot_aq_2.gbw) ****
             **** DENSITY 7_deprot_aq_2.scfp WAS UPDATED ****
----------------
ORBITAL ENERGIES
----------------

  NO   OCC          E(Eh)            E(eV) 
   0   2.0000     -14.472381      -393.8135 
   1   2.0000     -14.471835      -393.7987 
   2   2.0000     -10.323261      -280.9102 
   3   2.0000     -10.322448      -280.8881 
   4   2.0000     -10.306406      -280.4516 
   5   2.0000     -10.305780      -280.4345 
   6   2.0000     -10.293239      -280.0933 
   7   2.0000     -10.279503      -279.7195 
   8   2.0000     -10.278852      -279.7018 
   9   2.0000     -10.277822      -279.6737 
  10   2.0000     -10.277252      -279.6582 
  11   2.0000     -10.276916      -279.6491 
  12   2.0000     -10.276146      -279.6282 
  13   2.0000     -10.274390      -279.5804 
  14   2.0000     -10.272971      -279.5417 
  15   2.0000     -10.272252      -279.5222 
  16   2.0000     -10.271796      -279.5098 
  17   2.0000      -1.174685       -31.9648 
  18   2.0000      -1.078216       -29.3397 
  19   2.0000      -0.999896       -27.2086 
  20   2.0000      -0.981493       -26.7078 
  21   2.0000      -0.918030       -24.9809 
  22   2.0000      -0.886241       -24.1158 
  23   2.0000      -0.880341       -23.9553 
  24   2.0000      -0.864858       -23.5340 
  25   2.0000      -0.862487       -23.4695 
  26   2.0000      -0.787836       -21.4381 
  27   2.0000      -0.769142       -20.9294 
  28   2.0000      -0.733165       -19.9504 
  29   2.0000      -0.726988       -19.7824 
  30   2.0000      -0.694687       -18.9034 
  31   2.0000      -0.687768       -18.7151 
  32   2.0000      -0.668172       -18.1819 
  33   2.0000      -0.644694       -17.5430 
  34   2.0000      -0.610227       -16.6051 
  35   2.0000      -0.596695       -16.2369 
  36   2.0000      -0.594141       -16.1674 
  37   2.0000      -0.576441       -15.6858 
  38   2.0000      -0.574245       -15.6260 
  39   2.0000      -0.560450       -15.2506 
  40   2.0000      -0.551274       -15.0009 
  41   2.0000      -0.538964       -14.6660 
  42   2.0000      -0.538161       -14.6441 
  43   2.0000      -0.534128       -14.5343 
  44   2.0000      -0.528321       -14.3763 
  45   2.0000      -0.519850       -14.1458 
  46   2.0000      -0.491359       -13.3706 
  47   2.0000      -0.470375       -12.7995 
  48   2.0000      -0.465665       -12.6714 
  49   2.0000      -0.454464       -12.3666 
  50   2.0000      -0.450807       -12.2671 
  51   2.0000      -0.443217       -12.0606 
  52   2.0000      -0.373592       -10.1659 
  53   2.0000      -0.358923        -9.7668 
  54   2.0000      -0.357830        -9.7371 
  55   2.0000      -0.332592        -9.0503 
  56   2.0000      -0.323314        -8.7978 
  57   2.0000      -0.321081        -8.7370 
  58   0.0000       0.043479         1.1831 
  59   0.0000       0.060486         1.6459 
  60   0.0000       0.069440         1.8896 
  61   0.0000       0.072223         1.9653 
  62   0.0000       0.133199         3.6245 
  63   0.0000       0.138460         3.7677 
  64   0.0000       0.161247         4.3878 
  65   0.0000       0.165983         4.5166 
  66   0.0000       0.184827         5.0294 
  67   0.0000       0.196108         5.3364 
  68   0.0000       0.199344         5.4244 
  69   0.0000       0.219237         5.9658 
  70   0.0000       0.225166         6.1271 
  71   0.0000       0.241723         6.5776 
  72   0.0000       0.248949         6.7743 
  73   0.0000       0.253679         6.9030 
  74   0.0000       0.262973         7.1559 
  75   0.0000       0.268649         7.3103 
  76   0.0000       0.274941         7.4815 
  77   0.0000       0.278870         7.5884 
  78   0.0000       0.295246         8.0341 
  79   0.0000       0.300849         8.1865 
  80   0.0000       0.311095         8.4653 
  81   0.0000       0.326341         8.8802 
  82   0.0000       0.342269         9.3136 
  83   0.0000       0.372252        10.1295 
  84   0.0000       0.374846        10.2001 
  85   0.0000       0.377642        10.2762 
  86   0.0000       0.388993        10.5850 
  87   0.0000       0.398296        10.8382 
  88   0.0000       0.401584        10.9277 
  89   0.0000       0.430132        11.7045 
  90   0.0000       0.440256        11.9800 
  91   0.0000       0.446496        12.1498 
  92   0.0000       0.453528        12.3411 
  93   0.0000       0.461839        12.5673 
  94   0.0000       0.473568        12.8864 
  95   0.0000       0.477564        12.9952 
  96   0.0000       0.492668        13.4062 
  97   0.0000       0.499825        13.6009 
  98   0.0000       0.502427        13.6717 
  99   0.0000       0.504248        13.7213 
 100   0.0000       0.511793        13.9266 
 101   0.0000       0.528841        14.3905 
 102   0.0000       0.547438        14.8966 
 103   0.0000       0.549265        14.9463 
 104   0.0000       0.562742        15.3130 
 105   0.0000       0.571432        15.5495 
 106   0.0000       0.578820        15.7505 
 107   0.0000       0.587273        15.9805 
 108   0.0000       0.593305        16.1446 
 109   0.0000       0.597579        16.2610 
 110   0.0000       0.600370        16.3369 
 111   0.0000       0.602690        16.4000 
 112   0.0000       0.604190        16.4408 
 113   0.0000       0.614209        16.7135 
 114   0.0000       0.632327        17.2065 
 115   0.0000       0.642152        17.4739 
 116   0.0000       0.644015        17.5245 
 117   0.0000       0.657948        17.9037 
 118   0.0000       0.664934        18.0938 
 119   0.0000       0.673558        18.3285 
 120   0.0000       0.680464        18.5164 
 121   0.0000       0.693295        18.8655 
 122   0.0000       0.710134        19.3237 
 123   0.0000       0.719832        19.5876 
 124   0.0000       0.738561        20.0973 
 125   0.0000       0.751697        20.4547 
 126   0.0000       0.755607        20.5611 
 127   0.0000       0.762290        20.7430 
 128   0.0000       0.766582        20.8598 
 129   0.0000       0.768277        20.9059 
 130   0.0000       0.772253        21.0141 
 131   0.0000       0.777452        21.1555 
 132   0.0000       0.781671        21.2704 
 133   0.0000       0.792159        21.5557 
 134   0.0000       0.797911        21.7123 
 135   0.0000       0.801822        21.8187 
 136   0.0000       0.815499        22.1909 
 137   0.0000       0.821931        22.3659 
 138   0.0000       0.826388        22.4872 
 139   0.0000       0.830633        22.6027 
 140   0.0000       0.835092        22.7240 
 141   0.0000       0.854584        23.2544 
 142   0.0000       0.860079        23.4039 
 143   0.0000       0.864205        23.5162 
 144   0.0000       0.873651        23.7732 
 145   0.0000       0.882227        24.0066 
 146   0.0000       0.889634        24.2082 
 147   0.0000       0.916074        24.9277 
 148   0.0000       0.932200        25.3665 
 149   0.0000       0.934554        25.4305 
 150   0.0000       0.945459        25.7273 
 151   0.0000       0.956629        26.0312 
 152   0.0000       0.975767        26.5520 
 153   0.0000       0.985011        26.8035 
 154   0.0000       1.024667        27.8826 
 155   0.0000       1.036055        28.1925 
 156   0.0000       1.041742        28.3472 
 157   0.0000       1.064448        28.9651 
 158   0.0000       1.072318        29.1793 
 159   0.0000       1.120234        30.4831 
 160   0.0000       1.128112        30.6975 
 161   0.0000       1.169514        31.8241 
 162   0.0000       1.185764        32.2663 
 163   0.0000       1.205401        32.8006 
 164   0.0000       1.219470        33.1835 
 165   0.0000       1.260558        34.3015 
 166   0.0000       1.281766        34.8786 
 167   0.0000       1.289180        35.0804 
 168   0.0000       1.308694        35.6114 
 169   0.0000       1.311660        35.6921 
 170   0.0000       1.322381        35.9838 
 171   0.0000       1.340542        36.4780 
 172   0.0000       1.344553        36.5872 
 173   0.0000       1.350229        36.7416 
 174   0.0000       1.356462        36.9112 
 175   0.0000       1.361897        37.0591 
 176   0.0000       1.377983        37.4968 
 177   0.0000       1.384497        37.6741 
 178   0.0000       1.386735        37.7350 
 179   0.0000       1.391560        37.8663 
 180   0.0000       1.406055        38.2607 
 181   0.0000       1.414772        38.4979 
 182   0.0000       1.416615        38.5481 
 183   0.0000       1.422741        38.7148 
 184   0.0000       1.447688        39.3936 
 185   0.0000       1.508460        41.0473 
 186   0.0000       1.571741        42.7693 
 187   0.0000       1.586861        43.1807 
 188   0.0000       1.605076        43.6763 
 189   0.0000       1.607401        43.7396 
 190   0.0000       1.655866        45.0584 
 191   0.0000       1.690818        46.0095 
 192   0.0000       1.739808        47.3426 
 193   0.0000       1.776813        48.3495 
 194   0.0000       1.782636        48.5080 
 195   0.0000       1.785203        48.5778 
 196   0.0000       1.791302        48.7438 
 197   0.0000       1.797504        48.9126 
 198   0.0000       1.803240        49.0687 
 199   0.0000       1.830645        49.8144 
 200   0.0000       1.840376        50.0792 
 201   0.0000       1.858791        50.5803 
 202   0.0000       1.860553        50.6282 
 203   0.0000       1.864709        50.7413 
 204   0.0000       1.866530        50.7909 
 205   0.0000       1.875948        51.0471 
 206   0.0000       1.878595        51.1192 
 207   0.0000       1.880537        51.1720 
 208   0.0000       1.887675        51.3662 
 209   0.0000       1.892978        51.5106 
 210   0.0000       1.903538        51.7979 
 211   0.0000       1.906855        51.8882 
 212   0.0000       1.908898        51.9438 
 213   0.0000       1.916829        52.1596 
 214   0.0000       1.925074        52.3839 
 215   0.0000       1.938876        52.7595 
 216   0.0000       1.983886        53.9843 
 217   0.0000       2.007762        54.6340 
 218   0.0000       2.010031        54.6957 
 219   0.0000       2.011591        54.7382 
 220   0.0000       2.051910        55.8353 
 221   0.0000       2.060332        56.0645 
 222   0.0000       2.064947        56.1901 
 223   0.0000       2.080805        56.6216 
 224   0.0000       2.098814        57.1116 
 225   0.0000       2.099585        57.1326 
 226   0.0000       2.111152        57.4474 
 227   0.0000       2.114655        57.5427 
 228   0.0000       2.128400        57.9167 
 229   0.0000       2.137897        58.1751 
 230   0.0000       2.150596        58.5207 
 231   0.0000       2.157991        58.7219 
 232   0.0000       2.202984        59.9462 
 233   0.0000       2.216904        60.3250 
 234   0.0000       2.222630        60.4808 
 235   0.0000       2.233612        60.7797 
 236   0.0000       2.242213        61.0137 
 237   0.0000       2.251575        61.2685 
 238   0.0000       2.258818        61.4656 
 239   0.0000       2.270466        61.7825 
 240   0.0000       2.272978        61.8509 
 241   0.0000       2.317642        63.0662 
 242   0.0000       2.322377        63.1951 
 243   0.0000       2.344334        63.7926 
 244   0.0000       2.355579        64.0986 
 245   0.0000       2.359416        64.2030 
 246   0.0000       2.375065        64.6288 
 247   0.0000       2.393173        65.1216 
 248   0.0000       2.414607        65.7048 
 249   0.0000       2.418921        65.8222 
 250   0.0000       2.435062        66.2614 
 251   0.0000       2.442626        66.4672 
 252   0.0000       2.463112        67.0247 
 253   0.0000       2.465763        67.0968 
 254   0.0000       2.466607        67.1198 
 255   0.0000       2.469238        67.1914 
 256   0.0000       2.503327        68.1190 
 257   0.0000       2.507348        68.2284 
 258   0.0000       2.523226        68.6605 
 259   0.0000       2.595399        70.6244 
 260   0.0000       2.628695        71.5304 
 261   0.0000       2.639472        71.8237 
 262   0.0000       2.713217        73.8304 
 263   0.0000       2.720210        74.0207 
 264   0.0000       2.727870        74.2291 
 265   0.0000       2.737900        74.5020 
 266   0.0000       2.744774        74.6891 
 267   0.0000       2.775528        75.5260 
 268   0.0000       2.799038        76.1657 
 269   0.0000       2.830502        77.0219 
 270   0.0000       2.844336        77.3983 
 271   0.0000       2.854789        77.6828 
 272   0.0000       2.862189        77.8841 
 273   0.0000       2.867757        78.0356 
 274   0.0000       2.869150        78.0736 
 275   0.0000       2.870273        78.1041 
 276   0.0000       2.881134        78.3996 
 277   0.0000       2.889590        78.6297 
 278   0.0000       2.930761        79.7501 
 279   0.0000       2.952622        80.3449 
 280   0.0000       2.976475        80.9940 
 281   0.0000       3.007324        81.8334 
 282   0.0000       3.017250        82.1035 
 283   0.0000       3.025807        82.3364 
 284   0.0000       3.029129        82.4268 
 285   0.0000       3.101242        84.3891 
 286   0.0000       3.134849        85.3036 
 287   0.0000       3.206191        87.2449 
 288   0.0000       3.210015        87.3490 
 289   0.0000       3.247271        88.3627 
 290   0.0000       3.298070        89.7450 
 291   0.0000       3.321058        90.3706 
 292   0.0000       3.413909        92.8972 
 293   0.0000       3.512708        95.5856 
 294   0.0000       3.563163        96.9586 
 295   0.0000       3.677889       100.0805 
 296   0.0000       3.818566       103.9085 
 297   0.0000       3.838498       104.4508 

                    ********************************
                    * MULLIKEN POPULATION ANALYSIS *
                    ********************************

-----------------------
MULLIKEN ATOMIC CHARGES
-----------------------
   0 N :   -0.157155
   1 C :   -0.133368
   2 N :   -0.159535
   3 C :    0.039318
   4 C :    0.044510
   5 C :    0.160340
   6 C :    0.163304
   7 C :   -0.044869
   8 C :   -0.075805
   9 C :   -0.085556
  10 C :   -0.048526
  11 H :    0.070097
  12 H :    0.069434
  13 C :   -0.019097
  14 C :   -0.017133
  15 C :   -0.011280
  16 C :   -0.017862
  17 C :   -0.018380
  18 C :   -0.008083
  19 H :    0.009285
  20 H :    0.024625
  21 H :    0.033280
  22 H :    0.029251
  23 H :    0.032060
  24 H :    0.021982
  25 H :    0.030932
  26 H :    0.007920
  27 H :    0.032302
  28 H :    0.028009
Sum of atomic charges:    0.0000000

--------------------------------
MULLIKEN REDUCED ORBITAL CHARGES
--------------------------------
  0 N s       :     3.353214  s :     3.353214
      pz      :     1.464201  p :     3.770877
      px      :     1.136957
      py      :     1.169718
      dz2     :     0.003839  d :     0.033064
      dxz     :     0.004897
      dyz     :     0.004888
      dx2y2   :     0.010799
      dxy     :     0.008641
  1 C s       :     3.609504  s :     3.609504
      pz      :     0.728755  p :     2.459144
      px      :     0.655530
      py      :     1.074859
      dz2     :     0.008376  d :     0.064720
      dxz     :     0.013683
      dyz     :     0.008871
      dx2y2   :     0.008088
      dxy     :     0.025702
  2 N s       :     3.359776  s :     3.359776
      pz      :     1.457776  p :     3.766912
      px      :     1.136733
      py      :     1.172403
      dz2     :     0.003818  d :     0.032847
      dxz     :     0.005055
      dyz     :     0.004888
      dx2y2   :     0.010640
      dxy     :     0.008447
  3 C s       :     3.134961  s :     3.134961
      pz      :     1.026821  p :     2.777731
      px      :     0.917720
      py      :     0.833190
      dz2     :     0.005151  d :     0.047990
      dxz     :     0.008678
      dyz     :     0.008161
      dx2y2   :     0.013597
      dxy     :     0.012403
  4 C s       :     3.132148  s :     3.132148
      pz      :     1.026839  p :     2.775256
      px      :     0.918664
      py      :     0.829753
      dz2     :     0.004957  d :     0.048086
      dxz     :     0.008804
      dyz     :     0.008194
      dx2y2   :     0.013810
      dxy     :     0.012321
  5 C s       :     2.954679  s :     2.954679
      pz      :     0.977353  p :     2.826971
      px      :     0.857273
      py      :     0.992345
      dz2     :     0.010276  d :     0.058010
      dxz     :     0.014074
      dyz     :     0.006127
      dx2y2   :     0.014081
      dxy     :     0.013453
  6 C s       :     2.952196  s :     2.952196
      pz      :     0.991551  p :     2.826605
      px      :     0.854817
      py      :     0.980238
      dz2     :     0.007254  d :     0.057895
      dxz     :     0.012705
      dyz     :     0.006344
      dx2y2   :     0.016273
      dxy     :     0.015319
  7 C s       :     3.250515  s :     3.250515
      pz      :     0.957007  p :     2.760567
      px      :     0.840449
      py      :     0.963111
      dz2     :     0.005253  d :     0.033786
      dxz     :     0.007689
      dyz     :     0.004901
      dx2y2   :     0.008395
      dxy     :     0.007548
  8 C s       :     3.239960  s :     3.239960
      pz      :     0.928483  p :     2.801937
      px      :     0.945161
      py      :     0.928292
      dz2     :     0.004467  d :     0.033908
      dxz     :     0.009057
      dyz     :     0.004131
      dx2y2   :     0.007535
      dxy     :     0.008718
  9 C s       :     3.239929  s :     3.239929
      pz      :     0.978337  p :     2.811799
      px      :     0.949357
      py      :     0.884105
      dz2     :     0.003163  d :     0.033828
      dxz     :     0.007761
      dyz     :     0.003672
      dx2y2   :     0.009290
      dxy     :     0.009941
 10 C s       :     3.252957  s :     3.252957
      pz      :     0.983235  p :     2.761956
      px      :     0.827674
      py      :     0.951047
      dz2     :     0.004043  d :     0.033614
      dxz     :     0.005707
      dyz     :     0.004991
      dx2y2   :     0.009808
      dxy     :     0.009065
 11 H s       :     0.904377  s :     0.904377
      pz      :     0.005956  p :     0.025527
      px      :     0.008573
      py      :     0.010998
 12 H s       :     0.905207  s :     0.905207
      pz      :     0.006048  p :     0.025359
      px      :     0.008658
      py      :     0.010653
 13 C s       :     3.155843  s :     3.155843
      pz      :     0.948809  p :     2.827039
      px      :     0.923174
      py      :     0.955057
      dz2     :     0.005559  d :     0.036215
      dxz     :     0.008737
      dyz     :     0.004698
      dx2y2   :     0.008342
      dxy     :     0.008879
 14 C s       :     3.156208  s :     3.156208
      pz      :     0.975205  p :     2.825395
      px      :     0.883962
      py      :     0.966227
      dz2     :     0.007167  d :     0.035531
      dxz     :     0.006897
      dyz     :     0.005416
      dx2y2   :     0.008288
      dxy     :     0.007764
 15 C s       :     3.155715  s :     3.155715
      pz      :     0.938677  p :     2.819323
      px      :     0.950326
      py      :     0.930321
      dz2     :     0.004806  d :     0.036242
      dxz     :     0.008847
      dyz     :     0.004635
      dx2y2   :     0.008881
      dxy     :     0.009073
 16 C s       :     3.154033  s :     3.154033
      pz      :     0.964893  p :     2.827511
      px      :     0.920121
      py      :     0.942496
      dz2     :     0.004241  d :     0.036319
      dxz     :     0.006523
      dyz     :     0.004940
      dx2y2   :     0.009480
      dxy     :     0.011135
 17 C s       :     3.156431  s :     3.156431
      pz      :     0.987376  p :     2.826423
      px      :     0.882205
      py      :     0.956843
      dz2     :     0.004604  d :     0.035525
      dxz     :     0.005070
      dyz     :     0.005520
      dx2y2   :     0.010447
      dxy     :     0.009883
 18 C s       :     3.154153  s :     3.154153
      pz      :     0.956566  p :     2.817563
      px      :     0.949861
      py      :     0.911136
      dz2     :     0.003145  d :     0.036367
      dxz     :     0.008154
      dyz     :     0.003932
      dx2y2   :     0.011000
      dxy     :     0.010136
 19 H s       :     0.965886  s :     0.965886
      pz      :     0.007084  p :     0.024829
      px      :     0.012100
      py      :     0.005644
 20 H s       :     0.951119  s :     0.951119
      pz      :     0.009968  p :     0.024256
      px      :     0.003541
      py      :     0.010747
 21 H s       :     0.942886  s :     0.942886
      pz      :     0.007533  p :     0.023834
      px      :     0.010492
      py      :     0.005810
 22 H s       :     0.946971  s :     0.946971
      pz      :     0.003911  p :     0.023778
      px      :     0.014828
      py      :     0.005039
 23 H s       :     0.944140  s :     0.944140
      pz      :     0.009342  p :     0.023800
      px      :     0.003702
      py      :     0.010756
 24 H s       :     0.953645  s :     0.953645
      pz      :     0.007245  p :     0.024374
      px      :     0.003374
      py      :     0.013754
 25 H s       :     0.945282  s :     0.945282
      pz      :     0.006748  p :     0.023786
      px      :     0.003485
      py      :     0.013553
 26 H s       :     0.966898  s :     0.966898
      pz      :     0.005001  p :     0.025182
      px      :     0.013238
      py      :     0.006943
 27 H s       :     0.943868  s :     0.943868
      pz      :     0.005233  p :     0.023830
      px      :     0.011203
      py      :     0.007393
 28 H s       :     0.948206  s :     0.948206
      pz      :     0.004388  p :     0.023785
      px      :     0.014635
      py      :     0.004762


                     *******************************
                     * LOEWDIN POPULATION ANALYSIS *
                     *******************************

----------------------
LOEWDIN ATOMIC CHARGES
----------------------
   0 N :    0.051837
   1 C :   -0.238839
   2 N :    0.049008
   3 C :   -0.011613
   4 C :   -0.010277
   5 C :    0.018461
   6 C :    0.021030
   7 C :   -0.034160
   8 C :   -0.044271
   9 C :   -0.047815
  10 C :   -0.037331
  11 H :    0.042096
  12 H :    0.042533
  13 C :   -0.021681
  14 C :   -0.038833
  15 C :   -0.022860
  16 C :   -0.021463
  17 C :   -0.041401
  18 C :   -0.022907
  19 H :    0.030703
  20 H :    0.040109
  21 H :    0.039755
  22 H :    0.036582
  23 H :    0.039043
  24 H :    0.039415
  25 H :    0.038551
  26 H :    0.028811
  27 H :    0.039495
  28 H :    0.036024

-------------------------------
LOEWDIN REDUCED ORBITAL CHARGES
-------------------------------
  0 N s       :     3.043700  s :     3.043700
      pz      :     1.399508  p :     3.825087
      px      :     1.190694
      py      :     1.234885
      dz2     :     0.007403  d :     0.079375
      dxz     :     0.010456
      dyz     :     0.010528
      dx2y2   :     0.027090
      dxy     :     0.023898
  1 C s       :     3.189739  s :     3.189739
      pz      :     0.810372  p :     2.910496
      px      :     0.819328
      py      :     1.280796
      dz2     :     0.017084  d :     0.138605
      dxz     :     0.030328
      dyz     :     0.013383
      dx2y2   :     0.018224
      dxy     :     0.059586
  2 N s       :     3.044960  s :     3.044960
      pz      :     1.402306  p :     3.827166
      px      :     1.190788
      py      :     1.234072
      dz2     :     0.007309  d :     0.078867
      dxz     :     0.010536
      dyz     :     0.010459
      dx2y2   :     0.026836
      dxy     :     0.023727
  3 C s       :     2.850179  s :     2.850179
      pz      :     1.034160  p :     3.041869
      px      :     1.055745
      py      :     0.951964
      dz2     :     0.011071  d :     0.119565
      dxz     :     0.018498
      dyz     :     0.018112
      dx2y2   :     0.038832
      dxy     :     0.033052
  4 C s       :     2.850943  s :     2.850943
      pz      :     1.034286  p :     3.039421
      px      :     1.055931
      py      :     0.949204
      dz2     :     0.010554  d :     0.119913
      dxz     :     0.018853
      dyz     :     0.018230
      dx2y2   :     0.039341
      dxy     :     0.032934
  5 C s       :     2.824977  s :     2.824977
      pz      :     1.038798  p :     3.014393
      px      :     0.943372
      py      :     1.032223
      dz2     :     0.022903  d :     0.142169
      dxz     :     0.034173
      dyz     :     0.016092
      dx2y2   :     0.035611
      dxy     :     0.033391
  6 C s       :     2.824824  s :     2.824824
      pz      :     1.005302  p :     3.012275
      px      :     0.947177
      py      :     1.059795
      dz2     :     0.015422  d :     0.141872
      dxz     :     0.028390
      dyz     :     0.015240
      dx2y2   :     0.042774
      dxy     :     0.040045
  7 C s       :     2.851939  s :     2.851939
      pz      :     1.011617  p :     3.091834
      px      :     1.062841
      py      :     1.017376
      dz2     :     0.012248  d :     0.090388
      dxz     :     0.020438
      dyz     :     0.013532
      dx2y2   :     0.022925
      dxy     :     0.021245
  8 C s       :     2.849768  s :     2.849768
      pz      :     1.017687  p :     3.104116
      px      :     1.061682
      py      :     1.024747
      dz2     :     0.010689  d :     0.090387
      dxz     :     0.023841
      dyz     :     0.010862
      dx2y2   :     0.021901
      dxy     :     0.023094
  9 C s       :     2.848719  s :     2.848719
      pz      :     1.011958  p :     3.108872
      px      :     1.061254
      py      :     1.035660
      dz2     :     0.007052  d :     0.090224
      dxz     :     0.018406
      dyz     :     0.008801
      dx2y2   :     0.027782
      dxy     :     0.028183
 10 C s       :     2.851558  s :     2.851558
      pz      :     0.996908  p :     3.095663
      px      :     1.066142
      py      :     1.032613
      dz2     :     0.008892  d :     0.090109
      dxz     :     0.013543
      dyz     :     0.012631
      dx2y2   :     0.028038
      dxy     :     0.027005
 11 H s       :     0.881787  s :     0.881787
      pz      :     0.019155  p :     0.076116
      px      :     0.024763
      py      :     0.032199
 12 H s       :     0.881787  s :     0.881787
      pz      :     0.019362  p :     0.075680
      px      :     0.024879
      py      :     0.031439
 13 C s       :     2.850030  s :     2.850030
      pz      :     1.008139  p :     3.077556
      px      :     1.053669
      py      :     1.015748
      dz2     :     0.012788  d :     0.094095
      dxz     :     0.022395
[...]
      2       0.000009  -0.000182   0.000533
      3       0.000289  -0.001676  -0.000089
      4       0.000093  -0.000046   0.001036
      5       0.000180  -0.000050   0.000216
      6       0.000039  -0.000064   0.000674
      7      -0.000482   0.000500   0.002612
      8      -0.000324   0.000109   0.000574
      9       0.000073   0.036104   0.052173
     10      -0.000169  -0.044988  -0.049966
     11      -0.000029  -0.006821  -0.007364
     12       0.000112   0.041892  -0.048126
     13       0.000090   0.049636  -0.044196
     14       0.000023   0.009635  -0.008933
     15      -0.000043   0.000243   0.000002
     16       0.000036   0.000231  -0.000288
     17       0.000041   0.000045  -0.000069
     18       0.001523   0.000208   0.000009
     19       0.003195  -0.000183  -0.000306
     20       0.002497   0.000003  -0.000053
     21      -0.000633  -0.000228   0.000139
     22      -0.000378   0.000003  -0.000013
     23      -0.000562  -0.000051   0.000027
     24       0.000020  -0.000525   0.000321
     25      -0.000035   0.001441  -0.000925
     26      -0.000026   0.001497  -0.000986
     27       0.000364  -0.000681  -0.000527
     28       0.001701  -0.002355  -0.001879
     29       0.001439  -0.002059  -0.001671
     30       0.061991  -0.000243  -0.000160
     31      -0.038466   0.000029  -0.000002
     32      -0.044026   0.000057   0.000026
     33      -0.001944  -0.432154  -0.486405
     34       0.002526   0.498939   0.552383
     35       0.000327   0.075683   0.083656
     36      -0.001032  -0.484034   0.437712
     37      -0.000734  -0.550334   0.489465
     38      -0.000282  -0.107720   0.096081
     39      -0.000013   0.000185  -0.000076
     40      -0.000006   0.000021   0.000012
     41      -0.000005   0.000079  -0.000018
     42       0.000045  -0.000018   0.000019
     43      -0.000005  -0.000018   0.000002
     44       0.000009  -0.000035   0.000021
     45       0.000093   0.000095  -0.000048
     46      -0.000144  -0.000085   0.000027
     47      -0.000119  -0.000061  -0.000003
     48      -0.003897   0.000313   0.000191
     49       0.003019  -0.000071  -0.000010
     50       0.003179  -0.000115  -0.000050
     51      -0.009290  -0.000007  -0.000014
     52      -0.002012   0.000033   0.000013
     53      -0.000021   0.000038   0.000024
     54      -0.009231   0.000093   0.000057
     55      -0.019101   0.000100   0.000040
     56      -0.014083   0.000070   0.000009
     57       0.007201   0.000823  -0.000247
     58       0.004278   0.000316  -0.000107
     59       0.006263   0.000626  -0.000088
     60      -0.000147   0.006851  -0.004535
     61       0.000325  -0.018289   0.011970
     62       0.000310  -0.016270   0.010691
     63       0.000136  -0.001381   0.000432
     64       0.000067  -0.000778   0.000230
     65       0.000117  -0.001056   0.000280
     66      -0.000370   0.000118  -0.000223
     67       0.000111  -0.000062   0.000055
     68       0.000007  -0.000034   0.000066
     69      -0.000560  -0.000462   0.000180
     70       0.001502   0.001030  -0.000324
     71       0.001301   0.000872  -0.000254
     72      -0.005018   0.009645   0.008099
     73      -0.017870   0.029030   0.023660
     74      -0.014289   0.022507   0.018213
     75       0.062277  -0.000438  -0.000225
     76       0.200946  -0.001186  -0.000498
     77       0.155495  -0.000908  -0.000364
     78      -0.688804   0.001146   0.000324
     79       0.437320  -0.000570  -0.000145
     80       0.493964  -0.000777  -0.000118
     81       0.043358  -0.002299  -0.001135
     82      -0.029258   0.001403   0.000674
     83      -0.032112   0.001507   0.000697
     84       0.092305  -0.000030   0.000169
     85       0.028171   0.000009   0.000041
     86       0.006988   0.000006   0.000063


-----------
IR SPECTRUM
-----------

 Mode   freq       eps      Int      T**2         TX        TY        TZ
       cm**-1   L/(mol*cm) km/mol    a.u.
----------------------------------------------------------------------------
  6:     15.82   0.000161    0.82  0.003185  (-0.055325  0.003906 -0.010411)
  7:     37.86   0.000017    0.09  0.000143  (-0.010426 -0.003838  0.004436)
  8:     73.96   0.000526    2.66  0.002217  (-0.002636 -0.024209  0.040304)
  9:     99.15   0.003076   15.54  0.009681  ( 0.003893  0.012127 -0.097563)
 10:    127.03   0.000051    0.26  0.000125  (-0.011115  0.000013 -0.001243)
 11:    185.60   0.000887    4.48  0.001491  (-0.038614  0.000309 -0.000025)
 12:    251.39   0.000189    0.95  0.000234  ( 0.001669 -0.003301 -0.014846)
 13:    279.66   0.000260    1.31  0.000290  ( 0.000172 -0.009528  0.014111)
 14:    340.00   0.000614    3.10  0.000564  (-0.023731 -0.000421  0.000410)
 15:    417.59   0.000237    1.20  0.000177  (-0.000297 -0.005321 -0.012185)
 16:    421.08   0.000002    0.01  0.000001  ( 0.000703 -0.000443  0.000659)
 17:    426.48   0.000009    0.05  0.000007  ( 0.000254  0.002500  0.000655)
 18:    431.13   0.000080    0.41  0.000058  ( 0.007501 -0.001355  0.000180)
 19:    500.35   0.002605   13.16  0.001625  ( 0.040234  0.002432  0.000105)
 20:    536.48   0.004257   21.51  0.002476  (-0.000083  0.037522 -0.032681)
 21:    573.02   0.001080    5.46  0.000588  ( 0.023932 -0.003672  0.001338)
 22:    628.63   0.000175    0.88  0.000087  (-0.000804 -0.008922 -0.002560)
 23:    629.33   0.000036    0.18  0.000018  ( 0.001782 -0.003757 -0.000877)
 24:    661.20   0.001064    5.38  0.000502  ( 0.004909  0.018732 -0.011277)
 25:    664.75   0.000635    3.21  0.000298  ( 0.016248 -0.005048  0.002921)
 26:    692.95   0.000719    3.63  0.000324  (-0.000646 -0.017972 -0.000657)
 27:    724.59   0.006649   33.60  0.002863  ( 0.016642 -0.031230  0.040139)
 28:    725.69   0.016504   83.40  0.007097  ( 0.013305  0.055766 -0.061726)
 29:    729.05   0.009360   47.30  0.004006  ( 0.063279 -0.000423  0.001396)
 30:    756.36   0.019692   99.51  0.008125  ( 0.003071  0.019100 -0.088036)
 31:    803.15   0.015567   78.67  0.006048  ( 0.011492  0.050830 -0.057730)
 32:    805.83   0.003578   18.08  0.001386  ( 0.024955 -0.015232  0.023041)
 33:    870.67   0.000038    0.19  0.000014  (-0.000067  0.003274  0.001722)
 34:    873.06   0.000030    0.15  0.000011  ( 0.000269  0.002910  0.001418)
 35:    897.34   0.000318    1.61  0.000111  ( 0.010410  0.000503  0.001451)
 36:    962.87   0.002240   11.32  0.000726  ( 0.013215 -0.013300  0.019351)
 37:    963.77   0.002624   13.26  0.000850  ( 0.024960  0.010091 -0.011175)
 38:    968.09   0.004160   21.02  0.001341  ( 0.036535 -0.001184  0.002172)
 39:    977.71   0.000543    2.75  0.000173  ( 0.000337 -0.013165  0.000153)
 40:   1021.47   0.000124    0.63  0.000038  ( 0.006145  0.000242 -0.000057)
 41:   1021.88   0.000088    0.45  0.000027  (-0.000967  0.004325  0.002702)
 42:   1024.92   0.000042    0.21  0.000013  ( 0.000980 -0.001702 -0.002982)
 43:   1027.37   0.000093    0.47  0.000028  (-0.002989 -0.003882 -0.002089)
 44:   1050.90   0.000149    0.75  0.000044  (-0.005372 -0.001687  0.003521)
 45:   1051.71   0.000183    0.92  0.000054  ( 0.006371  0.000012  0.003693)
 46:   1058.67   0.001032    5.21  0.000304  (-0.012088  0.012480  0.001515)
 47:   1061.29   0.002858   14.44  0.000840  ( 0.028468  0.005069  0.002031)
 48:   1093.12   0.001106    5.59  0.000316  ( 0.003490  0.010686 -0.013760)
 49:   1098.02   0.002682   13.56  0.000762  ( 0.027069  0.002092  0.005024)
 50:   1111.39   0.010867   54.92  0.003051  (-0.000315  0.048693  0.026082)
 51:   1117.75   0.002202   11.13  0.000615  ( 0.024470 -0.003576 -0.001772)
 52:   1135.99   0.000952    4.81  0.000262  (-0.000467  0.014172  0.007775)
 53:   1154.93   0.000035    0.18  0.000009  (-0.001347 -0.002500 -0.001191)
 54:   1155.62   0.000102    0.52  0.000028  (-0.003386  0.003678  0.001620)
 55:   1179.07   0.000147    0.74  0.000039  (-0.003005  0.004866  0.002503)
 56:   1183.17   0.000226    1.14  0.000060  ( 0.003395  0.006079  0.003347)
 57:   1294.53   0.006155   31.11  0.001484  (-0.038492 -0.000861 -0.001179)
 58:   1306.36   0.001200    6.06  0.000287  ( 0.006499 -0.015283 -0.003276)
 59:   1308.47   0.011428   57.75  0.002725  ( 0.052158  0.001609  0.001562)
 60:   1351.83   0.000076    0.39  0.000018  (-0.002875  0.002289  0.002031)
 61:   1352.63   0.000501    2.53  0.000116  (-0.010673  0.001282  0.000264)
 62:   1357.58   0.011802   59.64  0.002713  (-0.052011 -0.001708 -0.002217)
 63:   1390.38   0.003429   17.33  0.000770  ( 0.000188  0.025393  0.011174)
 64:   1433.54   0.000212    1.07  0.000046  ( 0.004605  0.004822 -0.001260)
 65:   1465.94   0.033846  171.05  0.007205  ( 0.084854  0.000069  0.002195)
 66:   1505.75   0.000616    3.12  0.000128  (-0.011074  0.000624  0.002176)
 67:   1510.28   0.001877    9.49  0.000388  ( 0.002410  0.013422  0.014212)
 68:   1556.45   0.087217  440.76  0.017487  ( 0.132201 -0.000696  0.003035)
 69:   1565.07   0.003495   17.66  0.000697  ( 0.001799  0.026063  0.003779)
 70:   1663.06   0.002156   10.90  0.000405  ( 0.000181  0.017991  0.008994)
 71:   1693.83   0.000936    4.73  0.000172  ( 0.013040 -0.000518  0.001433)
 72:   1699.46   0.001590    8.03  0.000292  (-0.000596  0.009267  0.014341)
 73:   1707.98   0.029777  150.48  0.005441  ( 0.073742 -0.001083  0.001214)
 74:   1711.65   0.002433   12.30  0.000444  ( 0.004734  0.019784  0.005456)
 75:   3213.87   0.000201    1.01  0.000019  (-0.004227  0.001254  0.000174)
 76:   3214.20   0.000152    0.77  0.000015  ( 0.003264  0.001861  0.000824)
 77:   3221.38   0.001174    5.93  0.000114  ( 0.005111  0.006103  0.007094)
 78:   3221.97   0.001342    6.78  0.000130  (-0.005244  0.007344  0.006964)
 79:   3229.74   0.002342   11.83  0.000226  ( 0.011179 -0.008698 -0.005064)
 80:   3230.66   0.002558   12.93  0.000247  (-0.011843 -0.009103 -0.004898)
 81:   3236.50   0.001164    5.88  0.000112  ( 0.010148  0.000529  0.002991)
 82:   3237.55   0.000875    4.42  0.000084  (-0.008745  0.001445  0.002394)
 83:   3245.24   0.000046    0.23  0.000004  ( 0.000970 -0.000577 -0.001785)
 84:   3248.59   0.000019    0.09  0.000002  (-0.000558  0.000310 -0.001174)
 85:   3297.41   0.004162   21.03  0.000394  (-0.019827 -0.000584 -0.000664)
 86:   3317.81   0.001402    7.09  0.000132  (-0.001109  0.011257  0.001978)

* The epsilon (eps) is given for a Dirac delta lineshape.
** The dipole moment derivative (T) already includes vibrational overlap.

The first frequency considered to be a vibration is 6
The total number of vibrations considered is 81


--------------------------
THERMOCHEMISTRY AT 298.15K
--------------------------

Temperature         ... 298.15 K
Pressure            ... 1.00 atm
Total Mass          ... 220.28 AMU

Throughout the following assumptions are being made:
  (1) The electronic state is orbitally nondegenerate
  (2) There are no thermally accessible electronically excited states
  (3) Hindered rotations indicated by low frequency modes are not
      treated as such but are treated as vibrations and this may
      cause some error
  (4) All equations used are the standard statistical mechanics
      equations for an ideal gas
  (5) All vibrations are strictly harmonic

freq.      15.82  E(vib)   ...       0.57 
freq.      37.86  E(vib)   ...       0.54 
freq.      73.96  E(vib)   ...       0.49 
freq.      99.15  E(vib)   ...       0.46 
freq.     127.03  E(vib)   ...       0.43 
freq.     185.60  E(vib)   ...       0.37 
freq.     251.39  E(vib)   ...       0.30 
freq.     279.66  E(vib)   ...       0.28 
freq.     340.00  E(vib)   ...       0.23 
freq.     417.59  E(vib)   ...       0.18 
freq.     421.08  E(vib)   ...       0.18 
freq.     426.48  E(vib)   ...       0.18 
freq.     431.13  E(vib)   ...       0.18 
freq.     500.35  E(vib)   ...       0.14 
freq.     536.48  E(vib)   ...       0.12 
freq.     573.02  E(vib)   ...       0.11 
freq.     628.63  E(vib)   ...       0.09 
freq.     629.33  E(vib)   ...       0.09 
freq.     661.20  E(vib)   ...       0.08 
freq.     664.75  E(vib)   ...       0.08 
freq.     692.95  E(vib)   ...       0.07 
freq.     724.59  E(vib)   ...       0.06 
freq.     725.69  E(vib)   ...       0.06 
freq.     729.05  E(vib)   ...       0.06 
freq.     756.36  E(vib)   ...       0.06 
freq.     803.15  E(vib)   ...       0.05 
freq.     805.83  E(vib)   ...       0.05 
freq.     870.67  E(vib)   ...       0.04 
freq.     873.06  E(vib)   ...       0.04 
freq.     897.34  E(vib)   ...       0.03 
freq.     962.87  E(vib)   ...       0.03 
freq.     963.77  E(vib)   ...       0.03 
freq.     968.09  E(vib)   ...       0.03 
freq.     977.71  E(vib)   ...       0.03 
freq.    1021.47  E(vib)   ...       0.02 
freq.    1021.88  E(vib)   ...       0.02 
freq.    1024.92  E(vib)   ...       0.02 
freq.    1027.37  E(vib)   ...       0.02 
freq.    1050.90  E(vib)   ...       0.02 
freq.    1051.71  E(vib)   ...       0.02 
freq.    1058.67  E(vib)   ...       0.02 
freq.    1061.29  E(vib)   ...       0.02 
freq.    1093.12  E(vib)   ...       0.02 
freq.    1098.02  E(vib)   ...       0.02 
freq.    1111.39  E(vib)   ...       0.01 
freq.    1117.75  E(vib)   ...       0.01 
freq.    1135.99  E(vib)   ...       0.01 
freq.    1154.93  E(vib)   ...       0.01 
freq.    1155.62  E(vib)   ...       0.01 
freq.    1179.07  E(vib)   ...       0.01 
freq.    1183.17  E(vib)   ...       0.01 
freq.    1294.53  E(vib)   ...       0.01 
freq.    1306.36  E(vib)   ...       0.01 
freq.    1308.47  E(vib)   ...       0.01 
freq.    1351.83  E(vib)   ...       0.01 
freq.    1352.63  E(vib)   ...       0.01 
freq.    1357.58  E(vib)   ...       0.01 
freq.    1390.38  E(vib)   ...       0.00 
freq.    1433.54  E(vib)   ...       0.00 
freq.    1465.94  E(vib)   ...       0.00 
freq.    1505.75  E(vib)   ...       0.00 
freq.    1510.28  E(vib)   ...       0.00 
freq.    1556.45  E(vib)   ...       0.00 
freq.    1565.07  E(vib)   ...       0.00 
freq.    1663.06  E(vib)   ...       0.00 
freq.    1693.83  E(vib)   ...       0.00 
freq.    1699.46  E(vib)   ...       0.00 
freq.    1707.98  E(vib)   ...       0.00 
freq.    1711.65  E(vib)   ...       0.00 
freq.    3213.87  E(vib)   ...       0.00 
freq.    3214.20  E(vib)   ...       0.00 
freq.    3221.38  E(vib)   ...       0.00 
freq.    3221.97  E(vib)   ...       0.00 
freq.    3229.74  E(vib)   ...       0.00 
freq.    3230.66  E(vib)   ...       0.00 
freq.    3236.50  E(vib)   ...       0.00 
freq.    3237.55  E(vib)   ...       0.00 
freq.    3245.24  E(vib)   ...       0.00 
freq.    3248.59  E(vib)   ...       0.00 
freq.    3297.41  E(vib)   ...       0.00 
freq.    3317.81  E(vib)   ...       0.00 

------------
INNER ENERGY
------------

The inner energy is: U= E(el) + E(ZPE) + E(vib) + E(rot) + E(trans)
    E(el)   - is the total energy from the electronic structure calculation
              = E(kin-el) + E(nuc-el) + E(el-el) + E(nuc-nuc)
    E(ZPE)  - the the zero temperature vibrational energy from the frequency calculation
    E(vib)  - the the finite temperature correction to E(ZPE) due to population
              of excited vibrational states
    E(rot)  - is the rotational thermal energy
    E(trans)- is the translational thermal energy

Summary of contributions to the inner energy U:
Electronic energy                ...   -687.62652433 Eh
Zero point energy                ...      0.23553660 Eh     147.80 kcal/mol
Thermal vibrational correction   ...      0.00972071 Eh       6.10 kcal/mol
Thermal rotational correction    ...      0.00141627 Eh       0.89 kcal/mol
Thermal translational correction ...      0.00141627 Eh       0.89 kcal/mol
-----------------------------------------------------------------------
Total thermal energy                   -687.37843448 Eh


Summary of corrections to the electronic energy:
(perhaps to be used in another calculation)
Total thermal correction                  0.01255325 Eh       7.88 kcal/mol
Non-thermal (ZPE) correction              0.23553660 Eh     147.80 kcal/mol
-----------------------------------------------------------------------
Total correction                          0.24808985 Eh     155.68 kcal/mol


--------
ENTHALPY
--------

The enthalpy is H = U + kB*T
                kB is Boltzmann's constant
Total free energy                 ...   -687.37843448 Eh 
Thermal Enthalpy correction       ...      0.00094421 Eh       0.59 kcal/mol
-----------------------------------------------------------------------
Total Enthalpy                    ...   -687.37749027 Eh


Note: Only C1 symmetry has been detected, increase convergence thresholds 
      if your molecule has a higher symmetry. Symmetry factor of 1.0 is   
      used for the rotational entropy correction. 
 

Note: Rotational entropy computed according to Herzberg 
Infrared and Raman Spectra, Chapter V,1, Van Nostrand Reinhold, 1945 
Point Group:  C1, Symmetry Number:   1  
Rotational constants in cm-1:     0.054919     0.006923     0.006264 

Vibrational entropy computed according to the QRRHO of S. Grimme
Chem.Eur.J. 2012 18 9955


-------
ENTROPY
-------

The entropy contributions are T*S = T*(S(el)+S(vib)+S(rot)+S(trans))
     S(el)   - electronic entropy
     S(vib)  - vibrational entropy
     S(rot)  - rotational entropy
     S(trans)- translational entropy
The entropies will be listed as multiplied by the temperature to get
units of energy

Electronic entropy                ...      0.00000000 Eh      0.00 kcal/mol
Vibrational entropy               ...      0.01688125 Eh     10.59 kcal/mol
Rotational entropy                ...      0.01562325 Eh      9.80 kcal/mol
Translational entropy             ...      0.01998968 Eh     12.54 kcal/mol
-----------------------------------------------------------------------
Final entropy term                ...      0.05249418 Eh     32.94 kcal/mol

In case the symmetry of your molecule has not been determined correctly
or in case you have a reason to use a different symmetry number we print 
out the resulting rotational entropy values for sn=1,12 :
 --------------------------------------------------------
|  sn= 1 | S(rot)=       0.01562325 Eh      9.80 kcal/mol|
|  sn= 2 | S(rot)=       0.01496879 Eh      9.39 kcal/mol|
|  sn= 3 | S(rot)=       0.01458596 Eh      9.15 kcal/mol|
|  sn= 4 | S(rot)=       0.01431433 Eh      8.98 kcal/mol|
|  sn= 5 | S(rot)=       0.01410365 Eh      8.85 kcal/mol|
|  sn= 6 | S(rot)=       0.01393150 Eh      8.74 kcal/mol|
|  sn= 7 | S(rot)=       0.01378595 Eh      8.65 kcal/mol|
|  sn= 8 | S(rot)=       0.01365988 Eh      8.57 kcal/mol|
|  sn= 9 | S(rot)=       0.01354867 Eh      8.50 kcal/mol|
|  sn=10 | S(rot)=       0.01344919 Eh      8.44 kcal/mol|
|  sn=11 | S(rot)=       0.01335920 Eh      8.38 kcal/mol|
|  sn=12 | S(rot)=       0.01327704 Eh      8.33 kcal/mol|
 --------------------------------------------------------


-------------------
GIBBS FREE ENERGY
-------------------

The Gibbs free energy is G = H - T*S

Total enthalpy                    ...   -687.37749027 Eh 
Total entropy correction          ...     -0.05249418 Eh    -32.94 kcal/mol
-----------------------------------------------------------------------
Final Gibbs free energy         ...   -687.42998445 Eh

For completeness - the Gibbs free energy minus the electronic energy
G-E(el)                           ...      0.19653988 Eh    123.33 kcal/mol


Timings for individual modules:

Sum of individual times         ...     9333.602 sec (= 155.560 min)
GTO integral calculation        ...        5.142 sec (=   0.086 min)   0.1 %
SCF iterations                  ...     5490.196 sec (=  91.503 min)  58.8 %
SCF Gradient evaluation         ...     1348.274 sec (=  22.471 min)  14.4 %
Geometry relaxation             ...        0.903 sec (=   0.015 min)   0.0 %
Analytical frequency calculation...     2489.089 sec (=  41.485 min)  26.7 %
                             ****ORCA TERMINATED NORMALLY****
TOTAL RUN TIME: 0 days 2 hours 35 minutes 35 seconds 371 msec
