
                                 *****************
                                 * O   R   C   A *
                                 *****************

                                            #,                                       
                                            ###                                      
                                            ####                                     
                                            #####                                    
                                            ######                                   
                                           ########,                                 
                                     ,,################,,,,,                         
                               ,,#################################,,                 
                          ,,##########################################,,             
                       ,#########################################, ''#####,          
                    ,#############################################,,   '####,        
                  ,##################################################,,,,####,       
                ,###########''''           ''''###############################       
              ,#####''   ,,,,##########,,,,          '''####'''          '####       
            ,##' ,,,,###########################,,,                        '##       
           ' ,,###''''                  '''############,,,                           
         ,,##''                                '''############,,,,        ,,,,,,###''
      ,#''                                            '''#######################'''  
     '                                                          ''''####''''         
             ,#######,   #######,   ,#######,      ##                                
            ,#'     '#,  ##    ##  ,#'     '#,    #''#        ######   ,####,        
            ##       ##  ##   ,#'  ##            #'  '#       #        #'  '#        
            ##       ##  #######   ##           ,######,      #####,   #    #        
            '#,     ,#'  ##    ##  '#,     ,#' ,#      #,         ##   #,  ,#        
             '#######'   ##     ##  '#######'  #'      '#     #####' # '####'        



                  #######################################################
                  #                        -***-                        #
                  #          Department of theory and spectroscopy      #
                  #    Directorship and core code : Frank Neese         #
                  #        Max Planck Institute fuer Kohlenforschung    #
                  #                Kaiser Wilhelm Platz 1               #
                  #                 D-45470 Muelheim/Ruhr               #
                  #                      Germany                        #
                  #                                                     #
                  #                  All rights reserved                #
                  #                        -***-                        #
                  #######################################################


                         Program Version 5.0.4 -  RELEASE  -


 With contributions from (in alphabetic order):
   Daniel Aravena         : Magnetic Suceptibility
   Michael Atanasov       : Ab Initio Ligand Field Theory (pilot matlab implementation)
   Alexander A. Auer      : GIAO ZORA, VPT2 properties, NMR spectrum
   Ute Becker             : Parallelization
   Giovanni Bistoni       : ED, misc. LED, open-shell LED, HFLD
   Martin Brehm           : Molecular dynamics
   Dmytro Bykov           : SCF Hessian
   Vijay G. Chilkuri      : MRCI spin determinant printing, contributions to CSF-ICE
   Dipayan Datta          : RHF DLPNO-CCSD density
   Achintya Kumar Dutta   : EOM-CC, STEOM-CC
   Dmitry Ganyushin       : Spin-Orbit,Spin-Spin,Magnetic field MRCI
   Miquel Garcia          : C-PCM and meta-GGA Hessian, CC/C-PCM, Gaussian charge scheme
   Yang Guo               : DLPNO-NEVPT2, F12-NEVPT2, CIM, IAO-localization
   Andreas Hansen         : Spin unrestricted coupled pair/coupled cluster methods
   Benjamin Helmich-Paris : MC-RPA, TRAH-SCF, COSX integrals
   Lee Huntington         : MR-EOM, pCC
   Robert Izsak           : Overlap fitted RIJCOSX, COSX-SCS-MP3, EOM
   Marcus Kettner         : VPT2
   Christian Kollmar      : KDIIS, OOCD, Brueckner-CCSD(T), CCSD density, CASPT2, CASPT2-K
   Simone Kossmann        : Meta GGA functionals, TD-DFT gradient, OOMP2, MP2 Hessian
   Martin Krupicka        : Initial AUTO-CI
   Lucas Lang             : DCDCAS
   Marvin Lechner         : AUTO-CI (C++ implementation), FIC-MRCC
   Dagmar Lenk            : GEPOL surface, SMD
   Dimitrios Liakos       : Extrapolation schemes; Compound Job, initial MDCI parallelization
   Dimitrios Manganas     : Further ROCIS development; embedding schemes
   Dimitrios Pantazis     : SARC Basis sets
   Anastasios Papadopoulos: AUTO-CI, single reference methods and gradients
   Taras Petrenko         : DFT Hessian,TD-DFT gradient, ASA, ECA, R-Raman, ABS, FL, XAS/XES, NRVS
   Peter Pinski           : DLPNO-MP2, DLPNO-MP2 Gradient
   Christoph Reimann      : Effective Core Potentials
   Marius Retegan         : Local ZFS, SOC
   Christoph Riplinger    : Optimizer, TS searches, QM/MM, DLPNO-CCSD(T), (RO)-DLPNO pert. Triples
   Tobias Risthaus        : Range-separated hybrids, TD-DFT gradient, RPA, STAB
   Michael Roemelt        : Original ROCIS implementation
   Masaaki Saitow         : Open-shell DLPNO-CCSD energy and density
   Barbara Sandhoefer     : DKH picture change effects
   Avijit Sen             : IP-ROCIS
   Kantharuban Sivalingam : CASSCF convergence, NEVPT2, FIC-MRCI
   Bernardo de Souza      : ESD, SOC TD-DFT
   Georgi Stoychev        : AutoAux, RI-MP2 NMR, DLPNO-MP2 response
   Willem Van den Heuvel  : Paramagnetic NMR
   Boris Wezisla          : Elementary symmetry handling
   Frank Wennmohs         : Technical directorship


 We gratefully acknowledge several colleagues who have allowed us to
 interface, adapt or use parts of their codes:
   Stefan Grimme, W. Hujo, H. Kruse, P. Pracht,  : VdW corrections, initial TS optimization,
                  C. Bannwarth, S. Ehlert          DFT functionals, gCP, sTDA/sTD-DF
   Ed Valeev, F. Pavosevic, A. Kumar             : LibInt (2-el integral package), F12 methods
   Garnet Chan, S. Sharma, J. Yang, R. Olivares  : DMRG
   Ulf Ekstrom                                   : XCFun DFT Library
   Mihaly Kallay                                 : mrcc  (arbitrary order and MRCC methods)
   Jiri Pittner, Ondrej Demel                    : Mk-CCSD
   Frank Weinhold                                : gennbo (NPA and NBO analysis)
   Christopher J. Cramer and Donald G. Truhlar   : smd solvation model
   Lars Goerigk                                  : TD-DFT with DH, B97 family of functionals
   V. Asgeirsson, H. Jonsson                     : NEB implementation
   FAccTs GmbH                                   : IRC, NEB, NEB-TS, DLPNO-Multilevel, CI-OPT
                                                   MM, QMMM, 2- and 3-layer-ONIOM, Crystal-QMMM,
                                                   LR-CPCM, SF, NACMEs, symmetry and pop. for TD-DFT,
                                                   nearIR, NL-DFT gradient (VV10), updates on ESD,
                                                   ML-optimized integration grids
   S Lehtola, MJT Oliveira, MAL Marques          : LibXC Library
   Liviu Ungur et al                             : ANISO software


 Your calculation uses the libint2 library for the computation of 2-el integrals
 For citations please refer to: http://libint.valeyev.net

 Your ORCA version has been built with support for libXC version: 5.1.0
 For citations please refer to: https://tddft.org/programs/libxc/

 This ORCA versions uses:
   CBLAS   interface :  Fast vector & matrix operations
   LAPACKE interface :  Fast linear algebra routines
   SCALAPACK package :  Parallel linear algebra routines
   Shared memory     :  Shared parallel matrices
   BLAS/LAPACK       :  OpenBLAS 0.3.15  USE64BITINT DYNAMIC_ARCH NO_AFFINITY SkylakeX SINGLE_THREADED
        Core in use  :  SkylakeX
   Copyright (c) 2011-2014, The OpenBLAS Project




***************************************
The coordinates will be read from file: 7_prot_aq_2.xyz
***************************************


Your calculation utilizes the atom-pairwise dispersion correction
based on tight binding partial charges (D4)
Cite in your paper:
E.Caldeweyher, C.Bannwarth, S.Grimme, J.Chem.Phys., (2017), 147, 034112.
E.Caldeweyher, S.Ehlert, A.Hansen, H.Neugebauer, S.Grimme, J.Chem.Phys., (2018), in progress.
   

XCFun DFT library Copyright 2009-2010 Ulf Ekstrom and contributors.
See http://admol.org/xcfun for more information.
This is free software; see the source code for copying conditions.
There is ABSOLUTELY NO WARRANTY; not even for MERCHANTABILITY or FITNESS FOR A PARTICULAR PURPOSE.
For details see the documentation.
Scientific users of this library should cite U. Ekstrom, L. Visscher, R. Bast, A. J. Thorvaldsen and K. Ruud;
J.Chem.Theor.Comp. 2010, DOI: 10.1021/ct100117s
XCFun Version 0.99 

================================================================================

----- Orbital basis set information -----
Your calculation utilizes the basis: def2-SVP
   F. Weigend and R. Ahlrichs, Phys. Chem. Chem. Phys. 7, 3297 (2005).

----- AuxJ basis set information -----
Your calculation utilizes the auxiliary basis: def2/J
   F. Weigend, Phys. Chem. Chem. Phys. 8, 1057 (2006).

================================================================================
                                        WARNINGS
                       Please study these warnings very carefully!
================================================================================


WARNING: Geometry Optimization
  ===> : Switching off AutoStart
         For restart on a previous wavefunction, please use MOREAD

INFO   : the flag for use of the SHARK integral package has been found!

================================================================================
                                       INPUT FILE
================================================================================
NAME = 7_prot_aq_2.inp
|  1> # ORCA 5.0.4 - /users/bwb16179/postgrad/2024_03/DFT_Crest_Conformers/Opt/prot/7_prot_aq_2.inp # write input file
|  2> # Basic Mode
|  3> #
|  4> ! Opt Freq wB97X Def2-SVP D4 SlowConv TightSCF Defgrid2 Def2/J RIJCOSX CPCM(Water)
|  5> 
|  6> 
|  7> 
|  8> %maxcore 4500
|  9> 
| 10> %geom
| 11> Maxiter 150
| 12> END
| 13> 
| 14> * xyzfile 1 1 7_prot_aq_2.xyz
| 15> 
| 16>                          ****END OF INPUT****
================================================================================

                       *****************************
                       * Geometry Optimization Run *
                       *****************************

Geometry optimization settings:
Update method            Update   .... BFGS
Choice of coordinates    CoordSys .... Z-matrix Internals
Initial Hessian          InHess   .... Almoef's Model

Convergence Tolerances:
Energy Change            TolE     ....  5.0000e-06 Eh
Max. Gradient            TolMAXG  ....  3.0000e-04 Eh/bohr
RMS Gradient             TolRMSG  ....  1.0000e-04 Eh/bohr
Max. Displacement        TolMAXD  ....  4.0000e-03 bohr
RMS Displacement         TolRMSD  ....  2.0000e-03 bohr
Strict Convergence                ....  False
------------------------------------------------------------------------------
                        ORCA OPTIMIZATION COORDINATE SETUP
------------------------------------------------------------------------------

The optimization will be done in new redundant internal coordinates
Making redundant internal coordinates   ...  (new redundants) done
Evaluating the initial hessian          ...  (Almloef) done
Evaluating the coordinates              ...  done
Calculating the B-matrix                .... done
Calculating the G-matrix                .... done
Diagonalizing the G-matrix              .... done
Small eigenvalue found = 5.802e-03
Small eigenvalue found = 1.138e-02
The first mode is                       ....   75
The number of degrees of freedom        ....   84

    -----------------------------------------------------------------
                    Redundant Internal Coordinates


    -----------------------------------------------------------------
         Definition                    Initial Value    Approx d2E/dq
    -----------------------------------------------------------------
      1. B(C   1,N   0)                  1.3307         0.695843   
      2. B(N   2,C   1)                  1.3329         0.690200   
      3. B(H   3,C   1)                  1.0722         0.384404   
      4. B(C   4,N   2)                  1.3656         0.611968   
      5. B(C   5,N   0)                  1.3623         0.619435   
      6. B(C   5,C   4)                  1.3609         0.695199   
      7. B(C   6,N   0)                  1.4299         0.483253   
      8. B(C   7,N   2)                  1.4181         0.504706   
      9. B(C   8,C   6)                  1.3872         0.631209   
     10. B(C   9,C   6)                  1.3872         0.631364   
     11. B(C  10,C   7)                  1.3897         0.625395   
     12. B(C  11,C   7)                  1.3900         0.624720   
     13. B(H  12,C   4)                  1.0704         0.386936   
     14. B(H  13,C   5)                  1.0708         0.386404   
     15. B(C  14,C   8)                  1.3844         0.637720   
     16. B(H  15,C   8)                  1.0794         0.374341   
     17. B(C  16,C   9)                  1.3844         0.637678   
     18. B(C  17,C  10)                  1.3835         0.639891   
     19. B(C  18,C  17)                  1.3857         0.634836   
     20. B(C  19,C  18)                  1.3858         0.634534   
     21. B(C  19,C  11)                  1.3834         0.640212   
     22. B(C  20,C  16)                  1.3855         0.635174   
     23. B(C  20,C  14)                  1.3855         0.635153   
     24. B(H  21,C  16)                  1.0783         0.375903   
     25. B(H  22,C  11)                  1.0793         0.374541   
     26. B(H  23,C  10)                  1.0790         0.374969   
     27. B(H  24,C  17)                  1.0782         0.375996   
     28. B(H  25,C  18)                  1.0783         0.375876   
     29. B(H  26,C  19)                  1.0783         0.375901   
     30. B(H  27,C  20)                  1.0784         0.375789   
     31. B(H  28,C  14)                  1.0783         0.375868   
     32. B(H  29,C   9)                  1.0794         0.374411   
     33. A(C   1,N   0,C   5)          108.1952         0.437321   
     34. A(C   5,N   0,C   6)          125.6362         0.409732   
     35. A(C   1,N   0,C   6)          126.1685         0.418288   
     36. A(N   2,C   1,H   3)          125.7958         0.361163   
     37. A(N   0,C   1,H   3)          124.8940         0.361665   
     38. A(N   0,C   1,N   2)          109.2973         0.445955   
     39. A(C   4,N   2,C   7)          125.8664         0.412013   
     40. A(C   1,N   2,C   7)          126.2385         0.420929   
     41. A(C   1,N   2,C   4)          107.8944         0.435727   
     42. A(N   2,C   4,C   5)          107.3598         0.439175   
     43. A(N   2,C   4,H  12)          122.5714         0.354246   
     44. A(C   5,C   4,H  12)          130.0506         0.364278   
     45. A(N   0,C   5,C   4)          107.2530         0.440137   
     46. A(N   0,C   5,H  13)          122.1598         0.354893   
     47. A(C   4,C   5,H  13)          130.5872         0.364193   
     48. A(C   8,C   6,C   9)          121.2801         0.436896   
     49. A(N   0,C   6,C   9)          119.3843         0.413792   
     50. A(N   0,C   6,C   8)          119.3326         0.413774   
     51. A(N   2,C   7,C  10)          119.5388         0.416296   
     52. A(C  10,C   7,C  11)          120.7470         0.435337   
     53. A(N   2,C   7,C  11)          119.7139         0.416217   
     54. A(C   6,C   8,C  14)          119.0568         0.437685   
     55. A(C   6,C   8,H  15)          120.1539         0.356318   
     56. A(C  14,C   8,H  15)          120.7892         0.356939   
     57. A(C   6,C   9,C  16)          119.0543         0.437699   
     58. A(C  16,C   9,H  29)          120.7957         0.356947   
     59. A(C   6,C   9,H  29)          120.1498         0.356344   
     60. A(C   7,C  10,C  17)          119.3217         0.437223   
     61. A(C   7,C  10,H  23)          120.3757         0.355860   
     62. A(C  17,C  10,H  23)          120.2886         0.357247   
     63. A(C   7,C  11,C  19)          119.3282         0.437178   
     64. A(C  19,C  11,H  22)          120.2895         0.357208   
     65. A(C   7,C  11,H  22)          120.3647         0.355726   
     66. A(C   8,C  14,C  20)          120.1566         0.438177   
     67. A(C  20,C  14,H  28)          120.2696         0.356942   
     68. A(C   8,C  14,H  28)          119.5738         0.357186   
     69. A(C  20,C  16,H  21)          120.2692         0.356949   
     70. A(C   9,C  16,H  21)          119.5707         0.357188   
     71. A(C   9,C  16,C  20)          120.1601         0.438174   
     72. A(C  10,C  17,C  18)          120.2381         0.438406   
     73. A(C  18,C  17,H  24)          120.2223         0.356932   
     74. A(C  10,C  17,H  24)          119.5393         0.357414   
     75. A(C  17,C  18,C  19)          120.1369         0.437742   
     76. A(C  19,C  18,H  25)          119.9195         0.356884   
     77. A(C  17,C  18,H  25)          119.9436         0.356913   
     78. A(C  11,C  19,C  18)          120.2281         0.438408   
     79. A(C  18,C  19,H  26)          120.2147         0.356888   
     80. A(C  11,C  19,H  26)          119.5564         0.357429   
     81. A(C  16,C  20,H  27)          119.8554         0.356931   
     82. A(C  14,C  20,H  27)          119.8525         0.356929   
     83. A(C  14,C  20,C  16)          120.2921         0.437861   
     84. D(N   2,C   1,N   0,C   6)   -179.9668         0.040021   
     85. D(N   2,C   1,N   0,C   5)      0.0963         0.040021   
     86. D(H   3,C   1,N   0,C   6)     -1.2084         0.040021   
     87. D(H   3,C   1,N   0,C   5)    178.8547         0.040021   
     88. D(C   7,N   2,C   1,H   3)      1.5621         0.039311   
     89. D(C   4,N   2,C   1,H   3)   -178.7306         0.039311   
     90. D(C   7,N   2,C   1,N   0)   -179.6934         0.039311   
     91. D(C   4,N   2,C   1,N   0)      0.0139         0.039311   
     92. D(H  12,C   4,N   2,C   7)      0.9990         0.030265   
     93. D(H  12,C   4,N   2,C   1)   -178.7097         0.030265   
     94. D(C   5,C   4,N   2,C   1)     -0.1183         0.030265   
     95. D(C   5,C   4,N   2,C   7)    179.5904         0.030265   
     96. D(H  13,C   5,N   0,C   1)    179.7485         0.031066   
     97. D(C   4,C   5,N   0,C   1)     -0.1683         0.031066   
     98. D(C   4,C   5,N   0,C   6)    179.8944         0.031066   
     99. D(H  13,C   5,C   4,H  12)     -1.2830         0.034000   
    100. D(N   0,C   5,C   4,H  12)    178.6242         0.034000   
    101. D(H  13,C   5,C   4,N   2)   -179.7322         0.034000   
    102. D(N   0,C   5,C   4,N   2)      0.1750         0.034000   
    103. D(H  13,C   5,N   0,C   6)     -0.1889         0.031066   
    104. D(C   9,C   6,N   0,C   5)    -90.8673         0.018428   
    105. D(C   9,C   6,N   0,C   1)     89.2065         0.018428   
    106. D(C   8,C   6,N   0,C   5)     88.5095         0.018428   
    107. D(C   8,C   6,N   0,C   1)    -91.4167         0.018428   
    108. D(C  11,C   7,N   2,C   4)   -141.7321         0.020150   
    109. D(C  11,C   7,N   2,C   1)     37.9242         0.020150   
    110. D(C  10,C   7,N   2,C   4)     38.0850         0.020150   
    111. D(C  10,C   7,N   2,C   1)   -142.2586         0.020150   
    112. D(H  15,C   8,C   6,N   0)      0.4101         0.027632   
    113. D(C  14,C   8,C   6,C   9)     -0.0956         0.027632   
    114. D(C  14,C   8,C   6,N   0)   -179.4602         0.027632   
    115. D(H  15,C   8,C   6,C   9)    179.7747         0.027632   
    116. D(H  29,C   9,C   6,C   8)   -179.7734         0.027646   
    117. D(H  29,C   9,C   6,N   0)     -0.4092         0.027646   
    118. D(C  16,C   9,C   6,C   8)      0.0523         0.027646   
    119. D(C  16,C   9,C   6,N   0)    179.4166         0.027646   
    120. D(H  23,C  10,C   7,C  11)   -178.6726         0.027093   
    121. D(H  23,C  10,C   7,N   2)      1.5121         0.027093   
    122. D(C  17,C  10,C   7,C  11)     -0.0312         0.027093   
    123. D(C  17,C  10,C   7,N   2)   -179.8464         0.027093   
    124. D(H  22,C  11,C   7,C  10)   -178.4849         0.027031   
    125. D(H  22,C  11,C   7,N   2)      1.3300         0.027031   
    126. D(C  19,C  11,C   7,C  10)     -0.0080         0.027031   
    127. D(C  19,C  11,C   7,N   2)    179.8069         0.027031   
    128. D(H  28,C  14,C   8,H  15)      0.1270         0.028243   
    129. D(H  28,C  14,C   8,C   6)    179.9965         0.028243   
    130. D(C  20,C  14,C   8,H  15)   -179.7854         0.028243   
    131. D(C  20,C  14,C   8,C   6)      0.0841         0.028243   
    132. D(H  21,C  16,C   9,H  29)     -0.0848         0.028239   
    133. D(H  21,C  16,C   9,C   6)   -179.9094         0.028239   
    134. D(C  20,C  16,C   9,H  29)    179.8273         0.028239   
    135. D(C  20,C  16,C   9,C   6)      0.0028         0.028239   
    136. D(H  24,C  17,C  10,H  23)     -1.1087         0.028448   
    137. D(H  24,C  17,C  10,C   7)   -179.7513         0.028448   
    138. D(C  18,C  17,C  10,H  23)    178.6974         0.028448   
    139. D(C  18,C  17,C  10,C   7)      0.0547         0.028448   
    140. D(H  25,C  18,C  17,H  24)     -0.3081         0.027971   
    141. D(H  25,C  18,C  17,C  10)    179.8872         0.027971   
    142. D(C  19,C  18,C  17,H  24)    179.7654         0.027971   
    143. D(C  19,C  18,C  17,C  10)     -0.0393         0.027971   
    144. D(H  26,C  19,C  11,C   7)   -179.6511         0.028479   
    145. D(C  18,C  19,C  11,H  22)    178.5019         0.028479   
    146. D(C  18,C  19,C  11,C   7)      0.0239         0.028479   
    147. D(H  26,C  19,C  18,H  25)     -0.2542         0.027943   
    148. D(H  26,C  19,C  18,C  17)    179.6723         0.027943   
    149. D(C  11,C  19,C  18,H  25)   -179.9270         0.027943   
    150. D(C  11,C  19,C  18,C  17)     -0.0005         0.027943   
    151. D(H  26,C  19,C  11,H  22)     -1.1730         0.028479   
    152. D(H  27,C  20,C  16,H  21)     -0.0185         0.028003   
    153. D(H  27,C  20,C  16,C   9)   -179.9300         0.028003   
    154. D(C  14,C  20,C  16,H  21)    179.8983         0.028003   
    155. D(C  14,C  20,C  16,C   9)     -0.0132         0.028003   
    156. D(H  27,C  20,C  14,H  28)     -0.0259         0.028001   
    157. D(H  27,C  20,C  14,C   8)    179.8859         0.028001   
    158. D(C  16,C  20,C  14,H  28)   -179.9427         0.028001   
    159. D(C  16,C  20,C  14,C   8)     -0.0309         0.028001   
    -----------------------------------------------------------------

Number of atoms                         .... 30
Number of degrees of freedom            .... 159

         *************************************************************
         *                GEOMETRY OPTIMIZATION CYCLE   1            *
         *************************************************************
---------------------------------
CARTESIAN COORDINATES (ANGSTROEM)
---------------------------------
  N     -1.083141    0.478566    0.169853
  C      0.002458   -0.251719   -0.072797
  N      1.089079    0.490559    0.139101
  H     -0.005145   -1.281703   -0.370677
  C      0.678788    1.733223    0.529537
  C     -0.682024    1.725009    0.545978
  C     -2.438934    0.038560    0.056232
  C      2.434575    0.071111   -0.018126
  C     -3.111489    0.212514   -1.144514
  C     -3.060242   -0.541911    1.152236
  C      3.399681    0.514550    0.878149
  C      2.774440   -0.774739   -1.067517
  H      1.365419    2.526382    0.742293
  H     -1.380467    2.498726    0.791274
  C     -4.427541   -0.205345   -1.244715
  H     -2.611425    0.669719   -1.984808
  C     -4.376905   -0.954360    1.038340
  C      4.711546    0.105100    0.718657
  C      5.057499   -0.737617   -0.325469
  C      4.090091   -1.175725   -1.215748
  C     -5.058044   -0.786602   -0.156466
  H     -4.868475   -1.405287    1.885556
  H      2.024567   -1.095842   -1.774245
  H      3.125578    1.153806    1.703031
  H      5.462460    0.443785    1.414375
  H      6.081765   -1.052340   -0.446387
  H      4.358843   -1.827301   -2.031821
  H     -6.083884   -1.108633   -0.239391
  H     -4.958296   -0.074117   -2.174167
  H     -2.520743   -0.665105    2.078977

----------------------------
CARTESIAN COORDINATES (A.U.)
----------------------------
  NO LB      ZA    FRAG     MASS         X           Y           Z
   0 N     7.0000    0    14.007   -2.046839    0.904358    0.320976
   1 C     6.0000    0    12.011    0.004645   -0.475679   -0.137566
   2 N     7.0000    0    14.007    2.058061    0.927022    0.262863
   3 H     1.0000    0     1.008   -0.009722   -2.422069   -0.700478
   4 C     6.0000    0    12.011    1.282723    3.275316    1.000679
   5 C     6.0000    0    12.011   -1.288838    3.259794    1.031749
   6 C     6.0000    0    12.011   -4.608918    0.072868    0.106264
   7 C     6.0000    0    12.011    4.600681    0.134380   -0.034252
   8 C     6.0000    0    12.011   -5.879862    0.401593   -2.162817
   9 C     6.0000    0    12.011   -5.783020   -1.024063    2.177411
  10 C     6.0000    0    12.011    6.424466    0.972360    1.659462
  11 C     6.0000    0    12.011    5.242932   -1.464045   -2.017315
  12 H     1.0000    0     1.008    2.580268    4.774171    1.402731
  13 H     1.0000    0     1.008   -2.608704    4.721909    1.495292
  14 C     6.0000    0    12.011   -8.366840   -0.388046   -2.352170
  15 H     1.0000    0     1.008   -4.934878    1.265586   -3.750743
  16 C     6.0000    0    12.011   -8.271152   -1.803478    1.962178
  17 C     6.0000    0    12.011    8.903531    0.198610    1.358066
  18 C     6.0000    0    12.011    9.557288   -1.393894   -0.615047
  19 C     6.0000    0    12.011    7.729151   -2.221799   -2.297432
  20 C     6.0000    0    12.011   -9.558319   -1.486462   -0.295677
  21 H     1.0000    0     1.008   -9.200084   -2.655607    3.563184
  22 H     1.0000    0     1.008    3.825877   -2.070841   -3.352837
  23 H     1.0000    0     1.008    5.906486    2.180378    3.218263
  24 H     1.0000    0     1.008   10.322554    0.838633    2.672782
  25 H     1.0000    0     1.008   11.492870   -1.988635   -0.843549
  26 H     1.0000    0     1.008    8.237020   -3.453098   -3.839585
  27 H     1.0000    0     1.008  -11.496875   -2.095014   -0.452383
  28 H     1.0000    0     1.008   -9.369822   -0.140060   -4.108580
  29 H     1.0000    0     1.008   -4.763514   -1.256866    3.928698

--------------------------------
INTERNAL COORDINATES (ANGSTROEM)
--------------------------------
 N      0   0   0     0.000000000000     0.00000000     0.00000000
 C      1   0   0     1.330683541595     0.00000000     0.00000000
 N      2   1   0     1.332899754234   109.29730292     0.00000000
 H      2   1   3     1.072221578684   124.89402611   178.75846197
 C      3   2   1     1.365647226983   107.89439840     0.00000000
 C      5   3   2     1.360935553593   107.35983201   359.88168299
 C      1   2   3     1.429926756497   126.16852418   180.03318740
 C      3   2   1     1.418103499594   126.23851128   180.30659638
 C      7   1   2     1.387220431710   119.33258518   268.58326758
 C      7   1   2     1.387153384619   119.38428447    89.20648390
 C      8   3   2     1.389739482867   119.53882333   217.74137100
 C      8   3   2     1.390033176998   119.71389502    37.92421244
 H      5   3   2     1.070434373072   122.57141669   181.29031767
 H      6   5   3     1.070809047139   130.58719961   180.26783522
 C      9   7   1     1.384427120435   119.05681686   180.53976481
 H      9   7   1     1.079442268854   120.15385201     0.41012907
 C     10   7   1     1.384444948580   119.05427221   179.41655066
 C     11   8   3     1.383501778431   119.32165720   180.15356986
 C     18  11   8     1.385660692271   120.23814771     0.05473452
 C     12   8   3     1.383365407262   119.32818712   179.80691980
 C     17  10   7     1.385515853688   120.16008707     0.00000000
 H     17  10   7     1.078309018876   119.57065601   180.09064990
 H     12   8   3     1.079296594343   120.36469914     1.32999642
 H     11   8   3     1.078986094373   120.37572422     1.51213597
 H     18  11   8     1.078241050392   119.53929490   180.24869571
 H     19  18  11     1.078328593170   119.94359148   179.88721091
 H     20  12   8     1.078309991598   119.55644010   180.34892990
 H     21  17  10     1.078391353902   119.85537330   180.06996702
 H     15   9   7     1.078333782500   119.57377726   179.99651856
 H     10   7   1     1.079391013084   120.14975711   359.59084517

---------------------------
INTERNAL COORDINATES (A.U.)
---------------------------
 N      0   0   0     0.000000000000     0.00000000     0.00000000
 C      1   0   0     2.514627464531     0.00000000     0.00000000
 N      2   1   0     2.518815499473   109.29730292     0.00000000
 H      2   1   3     2.026205138593   124.89402611   178.75846197
 C      3   2   1     2.580699254548   107.89439840     0.00000000
 C      5   3   2     2.571795482207   107.35983201   359.88168299
 C      1   2   3     2.702169961345   126.16852418   180.03318740
 C      3   2   1     2.679827243788   126.23851128   180.30659638
 C      7   1   2     2.621466703311   119.33258518   268.58326758
 C      7   1   2     2.621340002672   119.38428447    89.20648390
 C      8   3   2     2.626227020116   119.53882333   217.74137100
 C      8   3   2     2.626782021592   119.71389502    37.92421244
 H      5   3   2     2.022827809442   122.57141669   181.29031767
 H      6   5   3     2.023535840817   130.58719961   180.26783522
 C      9   7   1     2.616188109996   119.05681686   180.53976481
 H      9   7   1     2.039850265512   120.15385201     0.41012907
 C     10   7   1     2.616221800307   119.05427221   179.41655066
 C     11   8   3     2.614439467027   119.32165720   180.15356986
 C     18  11   8     2.618519222933   120.23814771     0.05473452
 C     12   8   3     2.614181762866   119.32818712   179.80691980
 C     17  10   7     2.618245517676   120.16008707     0.00000000
 H     17  10   7     2.037708733413   119.57065601   180.09064990
 H     12   8   3     2.039574980582   120.36469914     1.32999642
 H     11   8   3     2.038988220674   120.37572422     1.51213597
 H     18  11   8     2.037580291592   119.53929490   180.24869571
 H     19  18  11     2.037745723468   119.94359148   179.88721091
 H     20  12   8     2.037710571592   119.55644010   180.34892990
 H     21  17  10     2.037864324062   119.85537330   180.06996702
 H     15   9   7     2.037755529879   119.57377726   179.99651856
 H     10   7   1     2.039753406145   120.14975711   359.59084517

---------------------
BASIS SET INFORMATION
---------------------
There are 3 groups of distinct atoms

 Group   1 Type N   : 7s4p1d contracted to 3s2p1d pattern {511/31/1}
 Group   2 Type C   : 7s4p1d contracted to 3s2p1d pattern {511/31/1}
 Group   3 Type H   : 4s1p contracted to 2s1p pattern {31/1}

Atom   0N    basis set group =>   1
Atom   1C    basis set group =>   2
Atom   2N    basis set group =>   1
Atom   3H    basis set group =>   3
Atom   4C    basis set group =>   2
Atom   5C    basis set group =>   2
Atom   6C    basis set group =>   2
Atom   7C    basis set group =>   2
Atom   8C    basis set group =>   2
Atom   9C    basis set group =>   2
Atom  10C    basis set group =>   2
Atom  11C    basis set group =>   2
Atom  12H    basis set group =>   3
Atom  13H    basis set group =>   3
Atom  14C    basis set group =>   2
Atom  15H    basis set group =>   3
Atom  16C    basis set group =>   2
Atom  17C    basis set group =>   2
Atom  18C    basis set group =>   2
Atom  19C    basis set group =>   2
Atom  20C    basis set group =>   2
Atom  21H    basis set group =>   3
Atom  22H    basis set group =>   3
Atom  23H    basis set group =>   3
Atom  24H    basis set group =>   3
Atom  25H    basis set group =>   3
Atom  26H    basis set group =>   3
Atom  27H    basis set group =>   3
Atom  28H    basis set group =>   3
Atom  29H    basis set group =>   3
---------------------------------
AUXILIARY/J BASIS SET INFORMATION
---------------------------------
There are 3 groups of distinct atoms

 Group   1 Type N   : 12s5p4d2f1g contracted to 6s4p3d1f1g pattern {711111/2111/211/2/1}
 Group   2 Type C   : 12s5p4d2f1g contracted to 6s4p3d1f1g pattern {711111/2111/211/2/1}
 Group   3 Type H   : 5s2p1d contracted to 3s1p1d pattern {311/2/1}

Atom   0N    basis set group =>   1
Atom   1C    basis set group =>   2
Atom   2N    basis set group =>   1
Atom   3H    basis set group =>   3
Atom   4C    basis set group =>   2
Atom   5C    basis set group =>   2
Atom   6C    basis set group =>   2
Atom   7C    basis set group =>   2
Atom   8C    basis set group =>   2
Atom   9C    basis set group =>   2
Atom  10C    basis set group =>   2
Atom  11C    basis set group =>   2
Atom  12H    basis set group =>   3
Atom  13H    basis set group =>   3
Atom  14C    basis set group =>   2
Atom  15H    basis set group =>   3
Atom  16C    basis set group =>   2
Atom  17C    basis set group =>   2
Atom  18C    basis set group =>   2
Atom  19C    basis set group =>   2
Atom  20C    basis set group =>   2
Atom  21H    basis set group =>   3
Atom  22H    basis set group =>   3
Atom  23H    basis set group =>   3
Atom  24H    basis set group =>   3
Atom  25H    basis set group =>   3
Atom  26H    basis set group =>   3
Atom  27H    basis set group =>   3
Atom  28H    basis set group =>   3
Atom  29H    basis set group =>   3
------------------------------------------------------------------------------
                           ORCA GTO INTEGRAL CALCULATION
                           -- RI-GTO INTEGRALS CHOSEN --
------------------------------------------------------------------------------
------------------------------------------------------------------------------
                   ___                                                        
                  /   \      - P O W E R E D   B Y -                         
                 /     \                                                     
                 |  |  |   _    _      __       _____    __    __             
                 |  |  |  | |  | |    /  \     |  _  \  |  |  /  |          
                  \  \/   | |  | |   /    \    | | | |  |  | /  /          
                 / \  \   | |__| |  /  /\  \   | |_| |  |  |/  /          
                |  |  |   |  __  | /  /__\  \  |    /   |      \           
                |  |  |   | |  | | |   __   |  |    \   |  |\   \          
                \     /   | |  | | |  |  |  |  | |\  \  |  | \   \       
                 \___/    |_|  |_| |__|  |__|  |_| \__\ |__|  \__/        
                                                                              
                      - O R C A' S   B I G   F R I E N D -                    
                                      &                                       
                       - I N T E G R A L  F E E D E R -                       
                                                                              
 v1 FN, 2020, v2 2021                                                         
------------------------------------------------------------------------------


Reading SHARK input file 7_prot_aq_2.SHARKINP.tmp ... ok
----------------------
SHARK INTEGRAL PACKAGE
----------------------

Number of atoms                             ...     30
Number of basis functions                   ...    303
Number of shells                            ...    141
Maximum angular momentum                    ...      2
Integral batch strategy                     ... SHARK/LIBINT Hybrid
RI-J (if used) integral strategy            ... SPLIT-RIJ (Revised 2003 algorithm where possible)
Printlevel                                  ...      1
Contraction scheme used                     ... SEGMENTED contraction
Coulomb Range Separation                    ... NOT USED
Exchange Range Separation                   ... Long Range
   Mu parameter                             ...  0.300000
   Scaling (regular/separated)              ...  0.157706  0.842294
Finite Nucleus Model                        ... NOT USED
Auxiliary Coulomb fitting basis             ... AVAILABLE
   # of basis functions in Aux-J            ...    976
   # of shells in Aux-J                     ...    320
   Maximum angular momentum in Aux-J        ...      4
Auxiliary J/K fitting basis                 ... NOT available
Auxiliary Correlation fitting basis         ... NOT available
Auxiliary 'external' fitting basis          ... NOT available
Integral threshold                          ...     2.500000e-11
Primitive cut-off                           ...     2.500000e-12
Primitive pair pre-selection threshold      ...     2.500000e-12

Calculating pre-screening integrals         ... done (  0.1 sec) Dimension = 141
Organizing shell pair data                  ... done (  0.1 sec)
Shell pair information
Total number of shell pairs                 ...     10011
Shell pairs after pre-screening             ...      7581
Total number of primitive shell pairs       ...     36575
Primitive shell pairs kept                  ...     18327
          la=0 lb=0:   2302 shell pairs
          la=1 lb=0:   2799 shell pairs
          la=1 lb=1:    884 shell pairs
          la=2 lb=0:    921 shell pairs
          la=2 lb=1:    574 shell pairs
          la=2 lb=2:    101 shell pairs

Calculating one electron integrals          ... done (  0.1 sec)
Calculating RI/J V-Matrix + Cholesky decomp.... done (  0.1 sec)
Calculating Nuclear repulsion               ... done (  0.0 sec) ENN=   1061.521959939199 Eh

SHARK setup successfully completed in   0.4 seconds

Maximum memory used throughout the entire GTOINT-calculation: 51.9 MB
-------------------------------------------------------------------------------
                                 ORCA SCF
-------------------------------------------------------------------------------

------------
SCF SETTINGS
------------
Hamiltonian:
 Density Functional     Method          .... DFT(GTOs)
 Exchange Functional    Exchange        .... WB97X
 Correlation Functional Correlation     .... WB97X
 Gradients option       PostSCFGGA      .... off
 Hybrid DFT is turned on
   Fraction HF Exchange ScalHFX         ....  0.157706
   Scaling of DF-GGA-X  ScalDFX         ....  0.000000
   Scaling of DF-GGA-C  ScalDFC         ....  1.000000
   Scaling of DF-LDA-C  ScalLDAC        ....  1.000000
   Perturbative correction              ....  0.000000
   Density functional embedding theory  .... OFF
 Long-range corrected/Screened/Range-Separated Hybrid DFT is turned on
   Amount of maximum screened exact exchange              ....  0.842294
   Range separation parameter mu (erf(mu*r12)/r12)        ....  0.300000
 RI-approximation to the Coulomb term is turned on
   Number of AuxJ basis functions       .... 976
   RIJ-COSX (HFX calculated with COS-X)).... on


General Settings:
 Integral files         IntName         .... 7_prot_aq_2
 Hartree-Fock type      HFTyp           .... RHF
 Total Charge           Charge          ....    1
 Multiplicity           Mult            ....    1
 Number of Electrons    NEL             ....  116
 Basis Dimension        Dim             ....  303
 Nuclear Repulsion      ENuc            ....   1061.5219599392 Eh

Convergence Acceleration:
 DIIS                   CNVDIIS         .... on
   Start iteration      DIISMaxIt       ....     0
   Startup error        DIISStart       ....  0.200000
   # of expansion vecs  DIISMaxEq       ....     5
   Bias factor          DIISBfac        ....   1.050
   Max. coefficient     DIISMaxC        ....  10.000
 Trust-Rad. Augm. Hess. CNVTRAH         .... auto
   Auto Start mean grad. ratio tolernc. ....  1.125000
   Auto Start start iteration           ....    20
   Auto Start num. interpolation iter.  ....    10
   Max. Number of Micro iterations      ....    16
   Max. Number of Macro iterations      .... Maxiter - #DIIS iter
   Number of Davidson start vectors     ....     2
   Converg. threshold I  (grad. norm)   ....   1.000e-05
   Converg. threshold II (energy diff.) ....   1.000e-08
   Grad. Scal. Fac. for Micro threshold ....   0.100
   Minimum threshold for Micro iter.    ....   0.010
   NR start threshold (gradient norm)   ....   0.001
   Initial trust radius                 ....   0.400
   Minimum AH scaling param. (alpha)    ....   1.000
   Maximum AH scaling param. (alpha)    .... 1000.000
   Orbital update algorithm             .... Taylor
   White noise on init. David. guess    .... on
   Maximum white noise                  ....   0.010
   Quad. conv. algorithm                .... NR
 SOSCF                  CNVSOSCF        .... on
   Start iteration      SOSCFMaxIt      ....   150
   Startup grad/error   SOSCFStart      ....  0.001000
 Level Shifting         CNVShift        .... on
   Level shift para.    LevelShift      ....    0.2500
   Turn off err/grad.   ShiftErr        ....    0.0000
 Zerner damping         CNVZerner       .... off
 Static damping         CNVDamp         .... on
   Fraction old density DampFac         ....    0.8500
   Max. Damping (<1)    DampMax         ....    0.9800
   Min. Damping (>=0)   DampMin         ....    0.0000
   Turn off err/grad.   DampErr         ....    0.0300
 Fernandez-Rico         CNVRico         .... off

SCF Procedure:
 Maximum # iterations   MaxIter         ....   125
 SCF integral mode      SCFMode         .... Direct
   Integral package                     .... SHARK and LIBINT hybrid scheme
 Reset frequency        DirectResetFreq ....    20
 Integral Threshold     Thresh          ....  2.500e-11 Eh
 Primitive CutOff       TCut            ....  2.500e-12 Eh

Convergence Tolerance:
 Convergence Check Mode ConvCheckMode   .... Total+1el-Energy
 Convergence forced     ConvForced      .... 0
 Energy Change          TolE            ....  1.000e-08 Eh
 1-El. energy change                    ....  1.000e-05 Eh
 Orbital Gradient       TolG            ....  1.000e-05
 Orbital Rotation angle TolX            ....  1.000e-05
 DIIS Error             TolErr          ....  5.000e-07


Diagonalization of the overlap matrix:
Smallest eigenvalue                        ... 2.651e-04
Time for diagonalization                   ...    0.016 sec
Threshold for overlap eigenvalues          ... 1.000e-08
Number of eigenvalues below threshold      ... 0
Time for construction of square roots      ...    0.008 sec
Total time needed                          ...    0.024 sec

Time for model grid setup =    0.662 sec

------------------------------
INITIAL GUESS: MODEL POTENTIAL
------------------------------
Loading Hartree-Fock densities                     ... done
Calculating cut-offs                               ... done
Initializing the effective Hamiltonian             ... done
Setting up the integral package (SHARK)            ... done
Starting the Coulomb interaction                   ... done (   0.7 sec)
Reading the grid                                   ... done
Mapping shells                                     ... done
Starting the XC term evaluation                    ... done (   0.7 sec)
  promolecular density results
     # of electrons  =    116.988371906
     EX              =    -93.779563771
     EC              =     -3.921455943
     EX+EC           =    -97.701019714
Transforming the Hamiltonian                       ... done (   0.0 sec)
Diagonalizing the Hamiltonian                      ... done (   0.0 sec)
Back transforming the eigenvectors                 ... done (   0.0 sec)
Now organizing SCF variables                       ... done
                      ------------------
                      INITIAL GUESS DONE (   2.2 sec)
                      ------------------
-------------------
DFT GRID GENERATION
-------------------

General Integration Accuracy     IntAcc      ... 4.388
Radial Grid Type                 RadialGrid  ... OptM3 with GC (2021)
Angular Grid (max. ang.)         AngularGrid ... 4 (Lebedev-302)
Angular grid pruning method      GridPruning ... 4 (adaptive)
Weight generation scheme         WeightScheme... Becke
Basis function cutoff            BFCut       ... 1.0000e-11
Integration weight cutoff        WCut        ... 1.0000e-14
Angular grids for H and He will be reduced by one unit
Partially contracted basis set               ... off
Rotationally invariant grid construction     ... off

Total number of grid points                  ...   143437
Total number of batches                      ...     2258
Average number of points per batch           ...       63
Average number of grid points per atom       ...     4781
Time for grid setup =    2.307 sec

--------------------
COSX GRID GENERATION
--------------------

GRIDX 1
-------
General Integration Accuracy     IntAcc      ... 3.816
Radial Grid Type                 RadialGrid  ... OptM3 with GC (2021)
Angular Grid (max. ang.)         AngularGrid ... 1 (Lebedev-50)
Angular grid pruning method      GridPruning ... 4 (adaptive)
Weight generation scheme         WeightScheme... Becke
Basis function cutoff            BFCut       ... 1.0000e-11
Integration weight cutoff        WCut        ... 1.0000e-14
Angular grids for H and He will be reduced by one unit
Partially contracted basis set               ... on
Rotationally invariant grid construction     ... off

Total number of grid points                  ...    18292
Total number of batches                      ...      293
Average number of points per batch           ...       62
Average number of grid points per atom       ...      610
UseSFitting                                  ... on

GRIDX 2
-------
General Integration Accuracy     IntAcc      ... 4.020
Radial Grid Type                 RadialGrid  ... OptM3 with GC (2021)
Angular Grid (max. ang.)         AngularGrid ... 2 (Lebedev-110)
Angular grid pruning method      GridPruning ... 4 (adaptive)
Weight generation scheme         WeightScheme... Becke
Basis function cutoff            BFCut       ... 1.0000e-11
Integration weight cutoff        WCut        ... 1.0000e-14
Angular grids for H and He will be reduced by one unit
Partially contracted basis set               ... on
Rotationally invariant grid construction     ... off

Total number of grid points                  ...    39901
Total number of batches                      ...      636
Average number of points per batch           ...       62
Average number of grid points per atom       ...     1330
UseSFitting                                  ... on

GRIDX 3
-------
General Integration Accuracy     IntAcc      ... 4.338
Radial Grid Type                 RadialGrid  ... OptM3 with GC (2021)
Angular Grid (max. ang.)         AngularGrid ... 3 (Lebedev-194)
Angular grid pruning method      GridPruning ... 4 (adaptive)
Weight generation scheme         WeightScheme... Becke
Basis function cutoff            BFCut       ... 1.0000e-11
Integration weight cutoff        WCut        ... 1.0000e-14
Angular grids for H and He will be reduced by one unit
Partially contracted basis set               ... on
Rotationally invariant grid construction     ... off

Total number of grid points                  ...    87284
Total number of batches                      ...     1376
Average number of points per batch           ...       63
Average number of grid points per atom       ...     2909
UseSFitting                                  ... on

Time for X-Grid setup             =    3.056 sec


--------------------
CPCM SOLVATION MODEL
--------------------
CPCM parameters:
  Epsilon                                         ...      80.4000
  Refrac                                          ...       1.3300
  Rsolv                                           ...       1.3000
  Surface type                                    ... GAUSSIAN VDW
  Epsilon function type                           ...         CPCM
Radii:
 Radius for N  used is    3.5149 Bohr (=   1.8600 Ang.)
 Radius for C  used is    3.8550 Bohr (=   2.0400 Ang.)
 Radius for H  used is    2.4944 Bohr (=   1.3200 Ang.)
Calculating surface                               ...        done! (  0.0s)
GEPOL surface points                              ...         1626
GEPOL Volume                                      ...    1862.5734
GEPOL Surface-area                                ...     975.6390
Calculating surface distance matrix               ...        done! (  0.0s)
Performing Cholesky decomposition & store         ...        done! (  0.1s)
Overall time for CPCM initialization              ...                 0.1s
--------------
SCF ITERATIONS
--------------
ITER       Energy         Delta-E        Max-DP      RMS-DP      [F,P]     Damp
               ***  Starting incremental Fock matrix formation  ***
  0   -687.8694715146   0.000000000000 0.02209511  0.00072116  0.1050067 0.8500
  1   -687.9170773504  -0.047605835797 0.02047165  0.00068519  0.0833324 0.8500
                               ***Turning on DIIS***
  2   -687.9538564113  -0.036779060860 0.01623949  0.00057116  0.0637161 0.8500
  3   -687.9815186851  -0.027662273856 0.01086535  0.00044325  0.0497603 0.8500
  4   -688.0030668600  -0.021548174880 0.00874354  0.00035528  0.0403498 0.8500
  5   -688.0201677763  -0.017100916254 0.00753225  0.00029458  0.0336886 0.8500
  6   -688.0341259132  -0.013958136929 0.04300960  0.00165570  0.0284947 0.0000
  7   -688.1078319127  -0.073705999484 0.00151481  0.00004429  0.0014773 0.0000
                      *** Initiating the SOSCF procedure ***
                           *** Shutting down DIIS ***
                      *** Re-Reading the Fockian *** 
                      *** Removing any level shift *** 
ITER      Energy       Delta-E        Grad      Rot      Max-DP    RMS-DP
  8   -688.10788374  -0.0000518269  0.000512  0.000512  0.000993  0.000023
               *** Restarting incremental Fock matrix formation ***
  9   -688.10783762   0.0000461219  0.000485  0.001148  0.000729  0.000019
 10   -688.10784265  -0.0000050274  0.000120  0.000674  0.000619  0.000017
 11   -688.10784412  -0.0000014749  0.000057  0.000083  0.000127  0.000005
 12   -688.10784430  -0.0000001776  0.000017  0.000041  0.000067  0.000001
 13   -688.10784432  -0.0000000175  0.000007  0.000021  0.000028  0.000000
                  ***Gradient check signals convergence***
              ***Rediagonalizing the Fockian in SOSCF/NRSCF***

               *****************************************************
               *                     SUCCESS                       *
               *           SCF CONVERGED AFTER  14 CYCLES          *
               *****************************************************

Old exchange energy                            =    -30.312944102 Eh
New exchange energy                            =    -30.312957272 Eh
Exchange energy change after final integration =     -0.000013170 Eh
Total energy after final integration           =   -688.107857490 Eh
Final COS-X integration done in                =    93.561 sec

----------------
TOTAL SCF ENERGY
----------------

Total Energy       :         -688.10785749 Eh          -18724.36673 eV

Components:
Nuclear Repulsion  :         1061.52195994 Eh           28885.48104 eV
Electronic Energy  :        -1749.62981743 Eh          -47609.84777 eV
One Electron Energy:        -3016.64151698 Eh          -82086.98890 eV
Two Electron Energy:         1267.01169955 Eh           34477.14113 eV
Max COSX asymmetry :            0.00000200 Eh               0.00005 eV
CPCM Dielectric    :           -0.07727299 Eh              -2.10270 eV

Virial components:
Potential Energy   :        -1368.95787750 Eh          -37251.23766 eV
Kinetic Energy     :          680.85002001 Eh           18526.87093 eV
Virial Ratio       :            2.01065997


DFT components:
N(Alpha)           :       57.999995707224 electrons
N(Beta)            :       57.999995707224 electrons
N(Total)           :      115.999991414449 electrons
E(XC)              :      -69.317636819980 Eh       
DFET-embed. en.    :        0.000000000000 Eh       
CPCM Solvation Model Properties:
Surface-charge          :           -1.02120791
Charge-correction       :            0.00251502 Eh               0.06844 eV
Free-energy (cav+disp)  :  This term is not implemented in the current solvation scheme

---------------
SCF CONVERGENCE
---------------

  Last Energy change         ...   -5.0899e-09  Tolerance :   1.0000e-08
  Last MAX-Density change    ...    3.9968e-15  Tolerance :   1.0000e-07
  Last RMS-Density change    ...    4.5547e-17  Tolerance :   5.0000e-09
  Last Orbital Gradient      ...    1.6550e-06  Tolerance :   1.0000e-05
  Last Orbital Rotation      ...    5.5968e-06  Tolerance :   1.0000e-05

             **** THE GBW FILE WAS UPDATED (7_prot_aq_2.gbw) ****
             **** DENSITY 7_prot_aq_2.scfp WAS UPDATED ****
             **** ENERGY FILE WAS UPDATED (7_prot_aq_2.en.tmp) ****
             **** THE GBW FILE WAS UPDATED (7_prot_aq_2.gbw) ****
             **** DENSITY 7_prot_aq_2.scfp WAS UPDATED ****
----------------
ORBITAL ENERGIES
----------------

  NO   OCC          E(Eh)            E(eV) 
   0   2.0000     -14.531123      -395.4120 
   1   2.0000     -14.527640      -395.3172 
   2   2.0000     -10.396194      -282.8948 
   3   2.0000     -10.345533      -281.5163 
   4   2.0000     -10.341598      -281.4092 
   5   2.0000     -10.341537      -281.4075 
   6   2.0000     -10.340945      -281.3914 
   7   2.0000     -10.297038      -280.1966 
   8   2.0000     -10.296775      -280.1895 
   9   2.0000     -10.296750      -280.1888 
  10   2.0000     -10.296723      -280.1881 
  11   2.0000     -10.289416      -279.9892 
  12   2.0000     -10.289362      -279.9878 
  13   2.0000     -10.288865      -279.9742 
  14   2.0000     -10.288563      -279.9660 
  15   2.0000     -10.288271      -279.9581 
  16   2.0000     -10.287135      -279.9272 
  17   2.0000      -1.237719       -33.6800 
  18   2.0000      -1.124322       -30.5943 
  19   2.0000      -1.020098       -27.7583 
  20   2.0000      -1.002007       -27.2660 
  21   2.0000      -0.947033       -25.7701 
  22   2.0000      -0.920552       -25.0495 
  23   2.0000      -0.894474       -24.3399 
  24   2.0000      -0.894241       -24.3335 
  25   2.0000      -0.886415       -24.1206 
  26   2.0000      -0.814675       -22.1684 
  27   2.0000      -0.800540       -21.7838 
  28   2.0000      -0.752857       -20.4863 
  29   2.0000      -0.751273       -20.4432 
  30   2.0000      -0.743213       -20.2239 
  31   2.0000      -0.733333       -19.9550 
  32   2.0000      -0.702370       -19.1125 
  33   2.0000      -0.673818       -18.3355 
  34   2.0000      -0.642679       -17.4882 
  35   2.0000      -0.633315       -17.2334 
  36   2.0000      -0.614936       -16.7333 
  37   2.0000      -0.608596       -16.5607 
  38   2.0000      -0.598068       -16.2743 
  39   2.0000      -0.593173       -16.1411 
  40   2.0000      -0.583985       -15.8910 
  41   2.0000      -0.572210       -15.5706 
  42   2.0000      -0.561827       -15.2881 
  43   2.0000      -0.559412       -15.2224 
  44   2.0000      -0.550853       -14.9895 
  45   2.0000      -0.549183       -14.9440 
  46   2.0000      -0.519706       -14.1419 
  47   2.0000      -0.510093       -13.8803 
  48   2.0000      -0.482271       -13.1233 
  49   2.0000      -0.480792       -13.0830 
  50   2.0000      -0.479324       -13.0431 
  51   2.0000      -0.466978       -12.7071 
  52   2.0000      -0.451931       -12.2977 
  53   2.0000      -0.387293       -10.5388 
  54   2.0000      -0.374564       -10.1924 
  55   2.0000      -0.370875       -10.0920 
  56   2.0000      -0.369737       -10.0611 
  57   2.0000      -0.360108        -9.7990 
  58   0.0000       0.022982         0.6254 
  59   0.0000       0.047832         1.3016 
  60   0.0000       0.054274         1.4769 
  61   0.0000       0.055903         1.5212 
  62   0.0000       0.072046         1.9605 
  63   0.0000       0.098744         2.6870 
  64   0.0000       0.153001         4.1634 
  65   0.0000       0.158065         4.3012 
  66   0.0000       0.172354         4.6900 
  67   0.0000       0.183061         4.9814 
  68   0.0000       0.198845         5.4109 
  69   0.0000       0.201089         5.4719 
  70   0.0000       0.204908         5.5758 
  71   0.0000       0.215386         5.8609 
  72   0.0000       0.222974         6.0674 
  73   0.0000       0.226833         6.1724 
  74   0.0000       0.233006         6.3404 
  75   0.0000       0.234277         6.3750 
  76   0.0000       0.241073         6.5599 
  77   0.0000       0.242432         6.5969 
  78   0.0000       0.255676         6.9573 
  79   0.0000       0.265117         7.2142 
  80   0.0000       0.267600         7.2818 
  81   0.0000       0.297098         8.0844 
  82   0.0000       0.316344         8.6081 
  83   0.0000       0.320136         8.7114 
  84   0.0000       0.357581         9.7303 
  85   0.0000       0.361478         9.8363 
  86   0.0000       0.371228        10.1016 
  87   0.0000       0.377400        10.2696 
  88   0.0000       0.384160        10.4535 
  89   0.0000       0.394719        10.7409 
  90   0.0000       0.401114        10.9149 
  91   0.0000       0.410760        11.1774 
  92   0.0000       0.415031        11.2936 
  93   0.0000       0.418716        11.3938 
  94   0.0000       0.436163        11.8686 
  95   0.0000       0.449446        12.2300 
  96   0.0000       0.458586        12.4788 
  97   0.0000       0.468998        12.7621 
  98   0.0000       0.481473        13.1015 
  99   0.0000       0.486913        13.2496 
 100   0.0000       0.494716        13.4619 
 101   0.0000       0.500027        13.6064 
 102   0.0000       0.503059        13.6889 
 103   0.0000       0.524061        14.2604 
 104   0.0000       0.535284        14.5658 
 105   0.0000       0.536873        14.6091 
 106   0.0000       0.564378        15.3575 
 107   0.0000       0.565743        15.3947 
 108   0.0000       0.567452        15.4411 
 109   0.0000       0.576871        15.6975 
 110   0.0000       0.583309        15.8726 
 111   0.0000       0.585204        15.9242 
 112   0.0000       0.588204        16.0058 
 113   0.0000       0.589110        16.0305 
 114   0.0000       0.592714        16.1286 
 115   0.0000       0.605018        16.4634 
 116   0.0000       0.616112        16.7653 
 117   0.0000       0.628096        17.0914 
 118   0.0000       0.635601        17.2956 
 119   0.0000       0.646710        17.5979 
 120   0.0000       0.657813        17.9000 
 121   0.0000       0.667286        18.1578 
 122   0.0000       0.679571        18.4921 
 123   0.0000       0.696531        18.9536 
 124   0.0000       0.703908        19.1543 
 125   0.0000       0.709206        19.2985 
 126   0.0000       0.721168        19.6240 
 127   0.0000       0.738680        20.1005 
 128   0.0000       0.741573        20.1792 
 129   0.0000       0.747693        20.3458 
 130   0.0000       0.748338        20.3633 
 131   0.0000       0.752832        20.4856 
 132   0.0000       0.761032        20.7087 
 133   0.0000       0.764541        20.8042 
 134   0.0000       0.774283        21.0693 
 135   0.0000       0.776335        21.1252 
 136   0.0000       0.779798        21.2194 
 137   0.0000       0.785094        21.3635 
 138   0.0000       0.791578        21.5399 
 139   0.0000       0.799555        21.7570 
 140   0.0000       0.809853        22.0372 
 141   0.0000       0.814219        22.1560 
 142   0.0000       0.828469        22.5438 
 143   0.0000       0.832735        22.6599 
 144   0.0000       0.841255        22.8917 
 145   0.0000       0.842780        22.9332 
 146   0.0000       0.848151        23.0794 
 147   0.0000       0.859266        23.3818 
 148   0.0000       0.878131        23.8951 
 149   0.0000       0.884130        24.0584 
 150   0.0000       0.909265        24.7424 
 151   0.0000       0.915152        24.9025 
 152   0.0000       0.921487        25.0749 
 153   0.0000       0.926469        25.2105 
 154   0.0000       0.939956        25.5775 
 155   0.0000       0.946809        25.7640 
 156   0.0000       0.971837        26.4450 
 157   0.0000       0.983911        26.7736 
 158   0.0000       0.988325        26.8937 
 159   0.0000       1.028702        27.9924 
 160   0.0000       1.046475        28.4760 
 161   0.0000       1.065519        28.9942 
 162   0.0000       1.115906        30.3654 
 163   0.0000       1.124859        30.6090 
 164   0.0000       1.160787        31.5866 
 165   0.0000       1.164078        31.6762 
 166   0.0000       1.175837        31.9962 
 167   0.0000       1.242338        33.8057 
 168   0.0000       1.256077        34.1796 
 169   0.0000       1.274827        34.6898 
 170   0.0000       1.279321        34.8121 
 171   0.0000       1.288959        35.0744 
 172   0.0000       1.298743        35.3406 
 173   0.0000       1.302343        35.4385 
 174   0.0000       1.315475        35.7959 
 175   0.0000       1.319808        35.9138 
 176   0.0000       1.326703        36.1014 
 177   0.0000       1.335458        36.3397 
 178   0.0000       1.340157        36.4675 
 179   0.0000       1.362313        37.0704 
 180   0.0000       1.364770        37.1373 
 181   0.0000       1.376531        37.4573 
 182   0.0000       1.384418        37.6719 
 183   0.0000       1.387327        37.7511 
 184   0.0000       1.388726        37.7892 
 185   0.0000       1.397151        38.0184 
 186   0.0000       1.416329        38.5403 
 187   0.0000       1.437545        39.1176 
 188   0.0000       1.463303        39.8185 
 189   0.0000       1.573854        42.8268 
 190   0.0000       1.604435        43.6589 
 191   0.0000       1.645132        44.7663 
 192   0.0000       1.663869        45.2762 
 193   0.0000       1.706095        46.4252 
 194   0.0000       1.714098        46.6430 
 195   0.0000       1.722750        46.8784 
 196   0.0000       1.741288        47.3829 
 197   0.0000       1.746867        47.5347 
 198   0.0000       1.771241        48.1979 
 199   0.0000       1.775421        48.3117 
 200   0.0000       1.778508        48.3957 
 201   0.0000       1.802883        49.0589 
 202   0.0000       1.811474        49.2927 
 203   0.0000       1.815578        49.4044 
 204   0.0000       1.832474        49.8641 
 205   0.0000       1.846566        50.2476 
 206   0.0000       1.848536        50.3012 
 207   0.0000       1.853033        50.4236 
 208   0.0000       1.861281        50.6480 
 209   0.0000       1.862641        50.6850 
 210   0.0000       1.870213        50.8911 
 211   0.0000       1.873943        50.9926 
 212   0.0000       1.886467        51.3334 
 213   0.0000       1.888170        51.3797 
 214   0.0000       1.894543        51.5531 
 215   0.0000       1.898365        51.6571 
 216   0.0000       1.904300        51.8186 
 217   0.0000       1.920827        52.2684 
 218   0.0000       1.935139        52.6578 
 219   0.0000       1.947114        52.9837 
 220   0.0000       1.964060        53.4448 
 221   0.0000       1.976478        53.7827 
 222   0.0000       1.989836        54.1462 
 223   0.0000       2.014467        54.8164 
 224   0.0000       2.024325        55.0847 
 225   0.0000       2.043732        55.6128 
 226   0.0000       2.055338        55.9286 
 227   0.0000       2.060328        56.0644 
 228   0.0000       2.071346        56.3642 
 229   0.0000       2.083047        56.6826 
 230   0.0000       2.085034        56.7367 
 231   0.0000       2.085667        56.7539 
 232   0.0000       2.093475        56.9664 
 233   0.0000       2.102219        57.2043 
 234   0.0000       2.104694        57.2716 
 235   0.0000       2.114652        57.5426 
 236   0.0000       2.154677        58.6317 
 237   0.0000       2.195439        59.7409 
 238   0.0000       2.198430        59.8223 
 239   0.0000       2.201355        59.9019 
 240   0.0000       2.214034        60.2469 
 241   0.0000       2.237084        60.8742 
 242   0.0000       2.238108        60.9020 
 243   0.0000       2.254797        61.3562 
 244   0.0000       2.262156        61.5564 
 245   0.0000       2.293212        62.4015 
 246   0.0000       2.299788        62.5804 
 247   0.0000       2.350462        63.9593 
 248   0.0000       2.370157        64.4953 
 249   0.0000       2.378904        64.7333 
 250   0.0000       2.379174        64.7406 
 251   0.0000       2.391136        65.0661 
 252   0.0000       2.400491        65.3207 
 253   0.0000       2.404140        65.4200 
 254   0.0000       2.406775        65.4917 
 255   0.0000       2.422893        65.9303 
 256   0.0000       2.430001        66.1237 
 257   0.0000       2.447707        66.6055 
 258   0.0000       2.453350        66.7590 
 259   0.0000       2.458911        66.9104 
 260   0.0000       2.465674        67.0944 
 261   0.0000       2.503568        68.1255 
 262   0.0000       2.544631        69.2429 
 263   0.0000       2.547849        69.3305 
 264   0.0000       2.622851        71.3714 
 265   0.0000       2.643670        71.9379 
 266   0.0000       2.644901        71.9714 
 267   0.0000       2.680726        72.9463 
 268   0.0000       2.690168        73.2032 
 269   0.0000       2.693639        73.2976 
 270   0.0000       2.733419        74.3801 
 271   0.0000       2.735488        74.4364 
 272   0.0000       2.744826        74.6905 
 273   0.0000       2.763647        75.2027 
 274   0.0000       2.789569        75.9080 
 275   0.0000       2.828371        76.9639 
 276   0.0000       2.841781        77.3288 
 277   0.0000       2.854017        77.6618 
 278   0.0000       2.857500        77.7565 
 279   0.0000       2.860063        77.8263 
 280   0.0000       2.863911        77.9310 
 281   0.0000       2.887022        78.5599 
 282   0.0000       2.927720        79.6673 
 283   0.0000       2.958337        80.5005 
 284   0.0000       2.971067        80.8468 
 285   0.0000       2.987434        81.2922 
 286   0.0000       2.994044        81.4721 
 287   0.0000       2.998364        81.5896 
 288   0.0000       3.003045        81.7170 
 289   0.0000       3.011799        81.9552 
 290   0.0000       3.051798        83.0436 
 291   0.0000       3.157848        85.9294 
 292   0.0000       3.189205        86.7827 
 293   0.0000       3.197358        87.0045 
 294   0.0000       3.261510        88.7502 
 295   0.0000       3.261889        88.7605 
 296   0.0000       3.336441        90.7892 
 297   0.0000       3.382224        92.0350 
 298   0.0000       3.513570        95.6091 
 299   0.0000       3.556292        96.7716 
 300   0.0000       3.599435        97.9456 
 301   0.0000       3.799926       103.4012 
 302   0.0000       3.816735       103.8586 

                    ********************************
                    * MULLIKEN POPULATION ANALYSIS *
                    ********************************

-----------------------
MULLIKEN ATOMIC CHARGES
-----------------------
   0 N :   -0.147896
   1 C :    0.262287
   2 N :   -0.144280
   3 H :    0.133410
   4 C :    0.083901
   5 C :    0.094689
   6 C :    0.026664
   7 C :    0.139147
   8 C :    0.027631
   9 C :    0.028063
  10 C :   -0.031934
  11 C :   -0.034212
  12 H :    0.103568
  13 H :    0.098607
  14 C :   -0.023175
  15 H :    0.037222
  16 C :   -0.022825
  17 C :   -0.017570
  18 C :    0.003401
  19 C :   -0.016834
  20 C :    0.009205
  21 H :    0.044445
  22 H :    0.044261
  23 H :    0.043482
  24 H :    0.045299
  25 H :    0.042782
  26 H :    0.045309
  27 H :    0.043768
  28 H :    0.044544
  29 H :    0.037040
Sum of atomic charges:    1.0000000

--------------------------------
MULLIKEN REDUCED ORBITAL CHARGES
--------------------------------
  0 N s       :     3.343116  s :     3.343116
      pz      :     1.453079  p :     3.770582
      px      :     1.138919
      py      :     1.178585
      dz2     :     0.003580  d :     0.034198
      dxz     :     0.005509
      dyz     :     0.005733
      dx2y2   :     0.008667
      dxy     :     0.010710
  1 C s       :     3.096086  s :     3.096086
      pz      :     0.913352  p :     2.574455
      px      :     0.754744
      py      :     0.906359
      dz2     :     0.005807  d :     0.067172
      dxz     :     0.016757
      dyz     :     0.006595
      dx2y2   :     0.015874
      dxy     :     0.022139
  2 N s       :     3.361376  s :     3.361376
      pz      :     1.451041  p :     3.748963
      px      :     1.128581
      py      :     1.169342
      dz2     :     0.003580  d :     0.033941
      dxz     :     0.005857
      dyz     :     0.005743
      dx2y2   :     0.008305
      dxy     :     0.010455
  3 H s       :     0.841267  s :     0.841267
      pz      :     0.005519  p :     0.025323
      px      :     0.001343
      py      :     0.018461
  4 C s       :     3.132201  s :     3.132201
      pz      :     1.008409  p :     2.735974
      px      :     0.918160
      py      :     0.809405
      dz2     :     0.004830  d :     0.047924
      dxz     :     0.007847
      dyz     :     0.008225
      dx2y2   :     0.014632
      dxy     :     0.012390
  5 C s       :     3.150571  s :     3.150571
      pz      :     0.999138  p :     2.706296
      px      :     0.899384
      py      :     0.807774
      dz2     :     0.004782  d :     0.048444
      dxz     :     0.008068
      dyz     :     0.008400
      dx2y2   :     0.014982
      dxy     :     0.012213
  6 C s       :     2.988125  s :     2.988125
      pz      :     1.026605  p :     2.929553
      px      :     0.839034
      py      :     1.063914
      dz2     :     0.014169  d :     0.055658
      dxz     :     0.014548
      dyz     :     0.008242
      dx2y2   :     0.010399
      dxy     :     0.008299
  7 C s       :     2.951292  s :     2.951292
      pz      :     0.997893  p :     2.853635
      px      :     0.819263
      py      :     1.036479
      dz2     :     0.012439  d :     0.055926
      dxz     :     0.013456
      dyz     :     0.006497
      dx2y2   :     0.012854
      dxy     :     0.010680
  8 C s       :     3.226549  s :     3.226549
      pz      :     0.885402  p :     2.711234
      px      :     0.889854
      py      :     0.935978
      dz2     :     0.007251  d :     0.034587
      dxz     :     0.010867
      dyz     :     0.005147
      dx2y2   :     0.004913
      dxy     :     0.006409
  9 C s       :     3.226604  s :     3.226604
      pz      :     0.871715  p :     2.710751
      px      :     0.886082
      py      :     0.952954
      dz2     :     0.006752  d :     0.034582
      dxz     :     0.011211
      dyz     :     0.004644
      dx2y2   :     0.006109
      dxy     :     0.005866
 10 C s       :     3.229268  s :     3.229268
      pz      :     0.896054  p :     2.768449
      px      :     0.937545
      py      :     0.934850
      dz2     :     0.005388  d :     0.034216
      dxz     :     0.010248
      dyz     :     0.004088
      dx2y2   :     0.006283
      dxy     :     0.008209
 11 C s       :     3.227904  s :     3.227904
      pz      :     0.915193  p :     2.772062
      px      :     0.900632
      py      :     0.956238
      dz2     :     0.006259  d :     0.034246
      dxz     :     0.009320
      dyz     :     0.004836
      dx2y2   :     0.007308
      dxy     :     0.006523
 12 H s       :     0.870962  s :     0.870962
      pz      :     0.005267  p :     0.025470
      px      :     0.008780
      py      :     0.011423
 13 H s       :     0.876142  s :     0.876142
      pz      :     0.005348  p :     0.025251
      px      :     0.009042
      py      :     0.010861
 14 C s       :     3.161797  s :     3.161797
      pz      :     0.917902  p :     2.825959
      px      :     0.941167
      py      :     0.966890
      dz2     :     0.008275  d :     0.035418
      dxz     :     0.010595
      dyz     :     0.004330
      dx2y2   :     0.006128
      dxy     :     0.006092
 15 H s       :     0.938528  s :     0.938528
      pz      :     0.011694  p :     0.024250
      px      :     0.006122
      py      :     0.006434
 16 C s       :     3.161603  s :     3.161603
      pz      :     0.924091  p :     2.825803
      px      :     0.942664
      py      :     0.959048
      dz2     :     0.008130  d :     0.035418
      dxz     :     0.010673
      dyz     :     0.005114
      dx2y2   :     0.005523
      dxy     :     0.005978
 17 C s       :     3.160446  s :     3.160446
      pz      :     0.937189  p :     2.821450
      px      :     0.927162
      py      :     0.957098
      dz2     :     0.006505  d :     0.035675
      dxz     :     0.009825
      dyz     :     0.004583
      dx2y2   :     0.007271
      dxy     :     0.007490
 18 C s       :     3.157658  s :     3.157658
      pz      :     0.956748  p :     2.803374
      px      :     0.892505
      py      :     0.954121
      dz2     :     0.008525  d :     0.035567
      dxz     :     0.008246
      dyz     :     0.005709
      dx2y2   :     0.006865
      dxy     :     0.006222
 19 C s       :     3.160030  s :     3.160030
      pz      :     0.929580  p :     2.821151
      px      :     0.950096
      py      :     0.941476
      dz2     :     0.006260  d :     0.035653
      dxz     :     0.009281
      dyz     :     0.004629
      dx2y2   :     0.007548
      dxy     :     0.007935
 20 C s       :     3.157137  s :     3.157137
      pz      :     0.956970  p :     2.797935
      px      :     0.893555
      py      :     0.947410
      dz2     :     0.010351  d :     0.035724
      dxz     :     0.009724
      dyz     :     0.006787
      dx2y2   :     0.004755
      dxy     :     0.004106
 21 H s       :     0.931578  s :     0.931578
      pz      :     0.011600  p :     0.023977
      px      :     0.006058
      py      :     0.006318
 22 H s       :     0.931405  s :     0.931405
      pz      :     0.009652  p :     0.024334
      px      :     0.009585
      py      :     0.005096
 23 H s       :     0.932152  s :     0.932152
      pz      :     0.011760  p :     0.024366
      px      :     0.003840
      py      :     0.008766
 24 H s       :     0.930695  s :     0.930695
      pz      :     0.009102  p :     0.024006
      px      :     0.009851
      py      :     0.005053
 25 H s       :     0.933387  s :     0.933387
      pz      :     0.003564  p :     0.023832
      px      :     0.015409
      py      :     0.004859
 26 H s       :     0.930684  s :     0.930684
      pz      :     0.011238  p :     0.024007
      px      :     0.004021
      py      :     0.008748
 27 H s       :     0.932412  s :     0.932412
      pz      :     0.003251  p :     0.023819
      px      :     0.015529
      py      :     0.005040
 28 H s       :     0.931480  s :     0.931480
      pz      :     0.013314  p :     0.023976
      px      :     0.006543
      py      :     0.004119
 29 H s       :     0.938706  s :     0.938706
      pz      :     0.013508  p :     0.024254
      px      :     0.006623
      py      :     0.004124


                     *******************************
                     * LOEWDIN POPULATION ANALYSIS *
                     *******************************

----------------------
LOEWDIN ATOMIC CHARGES
----------------------
   0 N :    0.121917
   1 C :    0.151898
   2 N :    0.121382
   3 H :    0.068397
   4 C :    0.031886
   5 C :    0.037719
   6 C :   -0.003048
   7 C :    0.010801
   8 C :   -0.008307
   9 C :   -0.008168
  10 C :   -0.018703
  11 C :   -0.019880
  12 H :    0.060166
  13 H :    0.061106
  14 C :   -0.015196
  15 H :    0.049450
  16 C :   -0.015162
  17 C :   -0.010951
  18 C :   -0.012447
  19 C :   -0.010999
  20 C :   -0.006905
  21 H :    0.044986
  22 H :    0.048517
  23 H :    0.048759
  24 H :    0.045550
  25 H :    0.043326
  26 H :    0.045584
  27 H :    0.043895
  28 H :    0.044997
  29 H :    0.049432

-------------------------------
LOEWDIN REDUCED ORBITAL CHARGES
-------------------------------
  0 N s       :     3.030375  s :     3.030375
      pz      :     1.367913  p :     3.768079
      px      :     1.181057
      py      :     1.219109
      dz2     :     0.006836  d :     0.079629
      dxz     :     0.010848
      dyz     :     0.011496
      dx2y2   :     0.022897
      dxy     :     0.027552
  1 C s       :     2.833679  s :     2.833679
      pz      :     0.948771  p :     2.858114
      px      :     0.888476
      py      :     1.020867
      dz2     :     0.011907  d :     0.156309
      dxz     :     0.035791
      dyz     :     0.011534
      dx2y2   :     0.039502
      dxy     :     0.057575
  2 N s       :     3.030330  s :     3.030330
      pz      :     1.368359  p :     3.768705
      px      :     1.180586
      py      :     1.219760
      dz2     :     0.006870  d :     0.079584
      dxz     :     0.011337
      dyz     :     0.011576
      dx2y2   :     0.022477
      dxy     :     0.027324
  3 H s       :     0.854366  s :     0.854366
      pz      :     0.017622  p :     0.077238
      px      :     0.007232
      py      :     0.052383
  4 C s       :     2.848170  s :     2.848170
      pz      :     1.014924  p :     3.001904
      px      :     1.051364
      py      :     0.935617
      dz2     :     0.010184  d :     0.118039
      dxz     :     0.016108
      dyz     :     0.017229
      dx2y2   :     0.040792
      dxy     :     0.033727
  5 C s       :     2.849973  s :     2.849973
      pz      :     1.007643  p :     2.992856
      px      :     1.050217
      py      :     0.934995
      dz2     :     0.010058  d :     0.119452
      dxz     :     0.016610
      dyz     :     0.017646
      dx2y2   :     0.041679
      dxy     :     0.033459
  6 C s       :     2.827856  s :     2.827856
      pz      :     1.105998  p :     3.038342
      px      :     0.894547
      py      :     1.037797
      dz2     :     0.036260  d :     0.136850
      dxz     :     0.038557
      dyz     :     0.018598
      dx2y2   :     0.024262
      dxy     :     0.019174
  7 C s       :     2.823895  s :     2.823895
      pz      :     1.080057  p :     3.027576
      px      :     0.904481
      py      :     1.043038
      dz2     :     0.028940  d :     0.137727
      dxz     :     0.034663
      dyz     :     0.016399
      dx2y2   :     0.031554
      dxy     :     0.026172
  8 C s       :     2.854514  s :     2.854514
      pz      :     1.033771  p :     3.062345
      px      :     1.056154
      py      :     0.972419
      dz2     :     0.020504  d :     0.091449
      dxz     :     0.031470
      dyz     :     0.011828
      dx2y2   :     0.012758
      dxy     :     0.014888
  9 C s       :     2.854502  s :     2.854502
      pz      :     1.035419  p :     3.062218
      px      :     1.056354
      py      :     0.970445
[...]
     46      -0.005300  -0.177378   0.046171   0.000102  -0.004605   0.003559
     47       0.004429   0.148083  -0.038543  -0.000010   0.004300  -0.003490
     48       0.000225  -0.012442   0.003232   0.000017  -0.000057   0.000044
     49       0.000528  -0.037103   0.009654  -0.000029  -0.000049  -0.000001
     50      -0.000428   0.030825  -0.008022   0.000016   0.000017   0.000023
     51       0.035069  -0.007449  -0.028678  -0.000074  -0.000025   0.000010
     52       0.017254  -0.004436  -0.017087   0.000034   0.000009   0.000019
     53       0.031896  -0.007623  -0.029348   0.000027  -0.000010   0.000016
     54      -0.000379  -0.012231  -0.046978   0.000038   0.000019   0.000028
     55      -0.003168   0.004200   0.016133  -0.000032   0.000005  -0.000004
     56      -0.003582   0.000163   0.000632  -0.000030   0.000021   0.000018
     57      -0.015413  -0.003194  -0.012256  -0.000016  -0.000058  -0.000044
     58       0.034160   0.008790   0.033782  -0.000037   0.000047   0.000002
     59       0.032203   0.008565   0.032918  -0.000013   0.000022  -0.000025
     60       0.000011  -0.047752   0.012417  -0.000036   0.000019  -0.000028
     61      -0.000055  -0.016373   0.004258  -0.000035  -0.000007  -0.000003
     62       0.000043  -0.000704   0.000182   0.000033   0.000019  -0.000019
     63      -0.002185   0.146654  -0.038171   0.000096   0.000270  -0.000044
     64      -0.005875   0.401181  -0.104402   0.000214   0.000569  -0.000038
     65       0.004820  -0.330254   0.085943  -0.000222  -0.000423  -0.000008
     66      -0.268695  -0.045548  -0.173784  -0.006692  -0.000098  -0.001079
     67      -0.139254  -0.023472  -0.089508  -0.003800   0.000080  -0.000604
     68      -0.264366  -0.044634  -0.170236  -0.007715   0.000056  -0.001097
     69       0.137497  -0.019708  -0.075727  -0.000141  -0.001767  -0.001348
     70      -0.322059   0.045864   0.176131   0.000120   0.004523   0.003393
     71      -0.315780   0.044875   0.172345   0.000012   0.004947   0.003907
     72      -0.370931   0.082636   0.318333   0.000218   0.000252  -0.000155
     73      -0.203017   0.045969   0.177035   0.000062   0.000124  -0.000070
     74      -0.360869   0.081203   0.312781   0.000147   0.000168  -0.000198
     75      -0.006576   0.131369   0.504732  -0.000600  -0.000174  -0.000378
     76       0.005143  -0.045501  -0.174828   0.000214   0.000073   0.000112
     77       0.003298  -0.002191  -0.008416  -0.000048   0.000036   0.000049
     78       0.152255   0.037592   0.144515  -0.000104   0.000273   0.000042
     79      -0.378016  -0.095091  -0.365493   0.000206  -0.000533  -0.000030
     80      -0.363969  -0.091814  -0.352901   0.000275  -0.000465   0.000008
     81       0.000092   0.513259  -0.133513   0.000577  -0.000164   0.000372
     82       0.000069   0.178499  -0.046435   0.000204  -0.000073   0.000113
     83      -0.000050   0.005135  -0.001336   0.000071   0.000028  -0.000041
     84       0.005398   0.307009  -0.080089  -0.000213   0.000243   0.000156
     85      -0.003349  -0.193413   0.050443   0.000061  -0.000130  -0.000083
     86       0.004986   0.287242  -0.074921  -0.000142   0.000151   0.000193
     87       0.003986  -0.176508   0.045638   0.006420  -0.000091   0.001038
     88      -0.002353   0.103664  -0.026793  -0.004221  -0.000089  -0.000665
     89       0.003750  -0.165227   0.042706   0.007070   0.000055   0.000997


-----------
IR SPECTRUM
-----------

 Mode   freq       eps      Int      T**2         TX        TY        TZ
       cm**-1   L/(mol*cm) km/mol    a.u.
----------------------------------------------------------------------------
  6:     28.15   0.000018    0.09  0.000200  ( 0.003402  0.011599 -0.007320)
  7:     43.07   0.000056    0.28  0.000408  (-0.006864  0.005671  0.018127)
  8:     64.72   0.000105    0.53  0.000507  ( 0.002388  0.022225 -0.002644)
  9:     88.93   0.000101    0.51  0.000356  ( 0.018320 -0.001549 -0.004203)
 10:    130.60   0.000076    0.38  0.000181  ( 0.000085  0.013390  0.001269)
 11:    145.20   0.000098    0.49  0.000210  ( 0.003236 -0.000744  0.014102)
 12:    251.93   0.000034    0.17  0.000042  (-0.000024 -0.006495 -0.000466)
 13:    308.16   0.000198    1.00  0.000201  ( 0.000021 -0.014165  0.000053)
 14:    315.14   0.000063    0.32  0.000063  ( 0.004145 -0.000045  0.006756)
 15:    410.87   0.000272    1.37  0.000206  (-0.011933 -0.000382  0.007984)
 16:    425.02   0.000039    0.20  0.000028  ( 0.002124 -0.002690 -0.004092)
 17:    427.21   0.000053    0.27  0.000038  ( 0.002293  0.003262 -0.004741)
 18:    432.52   0.000023    0.12  0.000017  ( 0.000450 -0.004052 -0.000396)
 19:    449.51   0.000795    4.02  0.000552  (-0.009793 -0.000117 -0.021360)
 20:    537.89   0.003971   20.07  0.002304  ( 0.000695 -0.047934 -0.002330)
 21:    571.51   0.002493   12.60  0.001361  (-0.016270 -0.001126  0.033091)
 22:    625.27   0.001009    5.10  0.000504  (-0.006091  0.001226 -0.021566)
 23:    626.00   0.000105    0.53  0.000052  ( 0.000268  0.007156  0.000950)
 24:    674.73   0.006055   30.60  0.002800  ( 0.008931  0.007538  0.051612)
 25:    675.37   0.002173   10.98  0.001004  ( 0.004029 -0.023354  0.021031)
 26:    694.28   0.000145    0.73  0.000065  (-0.000415  0.008051  0.000173)
 27:    721.28   0.011620   58.72  0.005027  (-0.001444  0.044701  0.055019)
 28:    721.92   0.004155   21.00  0.001796  (-0.036370  0.021141  0.005149)
 29:    724.37   0.012267   61.99  0.005285  (-0.017338 -0.048467  0.051334)
 30:    759.70   0.010744   54.30  0.004413  ( 0.002658  0.003232 -0.066302)
 31:    799.60   0.009393   47.47  0.003666  ( 0.013955 -0.043284 -0.039971)
 32:    802.95   0.011768   59.47  0.004574  ( 0.019748  0.035699 -0.053938)
 33:    872.62   0.000035    0.18  0.000012  (-0.001376 -0.000378 -0.003232)
 34:    876.99   0.000105    0.53  0.000037  ( 0.000901 -0.002332  0.005563)
 35:    896.87   0.004457   22.52  0.001551  ( 0.002290 -0.001679  0.039278)
 36:    910.43   0.000023    0.12  0.000008  (-0.000998 -0.002499  0.000751)
 37:    971.25   0.001267    6.40  0.000407  ( 0.010577 -0.014625 -0.009021)
 38:    974.24   0.001461    7.39  0.000468  ( 0.014990  0.012648 -0.009135)
 39:    978.74   0.000919    4.64  0.000293  (-0.016006  0.002000 -0.005732)
 40:    988.25   0.000003    0.02  0.000001  (-0.000305  0.000177  0.000910)
 41:   1025.54   0.001369    6.92  0.000417  (-0.020414  0.000060 -0.000068)
 42:   1026.94   0.000158    0.80  0.000048  ( 0.000158 -0.006927 -0.000197)
 43:   1028.31   0.000036    0.18  0.000011  ( 0.000606  0.002583  0.001956)
 44:   1031.62   0.000043    0.22  0.000013  ( 0.000932 -0.002408  0.002508)
 45:   1057.60   0.000031    0.16  0.000009  ( 0.001970 -0.002154 -0.000797)
 46:   1060.48   0.000857    4.33  0.000252  (-0.012555  0.009636 -0.001292)
 47:   1061.37   0.000099    0.50  0.000029  (-0.005348  0.000748 -0.000050)
 48:   1063.34   0.001530    7.73  0.000449  ( 0.019986  0.006737  0.002067)
 49:   1094.47   0.018585   93.92  0.005299  ( 0.072532  0.000419  0.006158)
 50:   1106.47   0.000593    3.00  0.000167  (-0.003380 -0.012362  0.001768)
 51:   1111.56   0.004791   24.21  0.001345  ( 0.005288 -0.022325 -0.028613)
 52:   1114.80   0.005329   26.93  0.001492  ( 0.000537  0.035304 -0.015659)
 53:   1146.69   0.000539    2.72  0.000147  (-0.000821 -0.012029 -0.001140)
 54:   1160.85   0.000024    0.12  0.000006  ( 0.001501  0.000367  0.002006)
 55:   1163.98   0.000015    0.07  0.000004  (-0.000148  0.000861 -0.001788)
 56:   1184.47   0.000005    0.03  0.000001  (-0.000286 -0.000374  0.001100)
 57:   1189.08   0.000005    0.03  0.000001  ( 0.000880 -0.000756 -0.000281)
 58:   1264.08   0.004203   21.24  0.001037  ( 0.032208  0.000100  0.000365)
 59:   1290.21   0.013165   66.53  0.003184  ( 0.056421 -0.000075 -0.000981)
 60:   1324.20   0.000010    0.05  0.000002  ( 0.000558  0.001255 -0.000604)
 61:   1334.68   0.000424    2.14  0.000099  (-0.000453 -0.000486  0.009940)
 62:   1355.47   0.000932    4.71  0.000215  (-0.004873 -0.009003 -0.010482)
 63:   1356.55   0.001165    5.89  0.000268  ( 0.006205 -0.008223  0.012726)
 64:   1406.02   0.002121   10.72  0.000471  (-0.000526 -0.021661 -0.001165)
 65:   1428.78   0.002118   10.70  0.000463  (-0.019606  0.000854 -0.008800)
 66:   1471.53   0.000696    3.52  0.000148  ( 0.000148 -0.012140 -0.000332)
 67:   1510.07   0.001981   10.01  0.000409  (-0.004729  0.000463 -0.019666)
 68:   1514.72   0.000961    4.85  0.000198  ( 0.000528  0.014046 -0.000565)
 69:   1545.29   0.014454   73.04  0.002919  (-0.054015  0.001118  0.000133)
 70:   1562.31   0.003699   18.69  0.000739  ( 0.001500  0.027104  0.001433)
 71:   1647.41   0.079357  401.04  0.015032  ( 0.122604 -0.000138 -0.000873)
 72:   1650.09   0.000361    1.82  0.000068  ( 0.003309  0.007542  0.000608)
 73:   1700.39   0.002013   10.17  0.000369  ( 0.010578 -0.001596  0.015970)
 74:   1703.69   0.001554    7.85  0.000285  (-0.002444 -0.016629 -0.001445)
 75:   1705.36   0.006130   30.98  0.001122  ( 0.033464 -0.001349 -0.000254)
 76:   1707.35   0.000205    1.03  0.000037  (-0.002265 -0.005663 -0.000485)
 77:   3221.05   0.000066    0.33  0.000006  ( 0.002484  0.000019  0.000474)
 78:   3221.12   0.000032    0.16  0.000003  ( 0.001755 -0.000128  0.000208)
 79:   3226.46   0.000528    2.67  0.000051  (-0.001147  0.004684 -0.005276)
 80:   3226.72   0.000555    2.81  0.000054  (-0.001017 -0.004731 -0.005503)
 81:   3231.10   0.000625    3.16  0.000060  ( 0.007486  0.002036  0.000451)
 82:   3231.21   0.000599    3.03  0.000058  ( 0.007344 -0.001923  0.000449)
 83:   3237.66   0.000168    0.85  0.000016  ( 0.001515 -0.002648  0.002627)
 84:   3237.87   0.000149    0.75  0.000014  ( 0.001046  0.002512  0.002629)
 85:   3243.60   0.000766    3.87  0.000074  (-0.008399 -0.001746  0.000257)
 86:   3243.62   0.000334    1.69  0.000032  (-0.004925  0.002793  0.000264)
 87:   3299.47   0.016380   82.78  0.001549  (-0.000074 -0.039317 -0.001839)
 88:   3304.63   0.007521   38.01  0.000710  ( 0.026649  0.000001  0.000157)
 89:   3322.47   0.005220   26.38  0.000490  (-0.000111  0.022116  0.001092)

* The epsilon (eps) is given for a Dirac delta lineshape.
** The dipole moment derivative (T) already includes vibrational overlap.

The first frequency considered to be a vibration is 6
The total number of vibrations considered is 84


--------------------------
THERMOCHEMISTRY AT 298.15K
--------------------------

Temperature         ... 298.15 K
Pressure            ... 1.00 atm
Total Mass          ... 221.28 AMU

Throughout the following assumptions are being made:
  (1) The electronic state is orbitally nondegenerate
  (2) There are no thermally accessible electronically excited states
  (3) Hindered rotations indicated by low frequency modes are not
      treated as such but are treated as vibrations and this may
      cause some error
  (4) All equations used are the standard statistical mechanics
      equations for an ideal gas
  (5) All vibrations are strictly harmonic

freq.      28.15  E(vib)   ...       0.55 
freq.      43.07  E(vib)   ...       0.53 
freq.      64.72  E(vib)   ...       0.50 
freq.      88.93  E(vib)   ...       0.47 
freq.     130.60  E(vib)   ...       0.43 
freq.     145.20  E(vib)   ...       0.41 
freq.     251.93  E(vib)   ...       0.30 
freq.     308.16  E(vib)   ...       0.26 
freq.     315.14  E(vib)   ...       0.25 
freq.     410.87  E(vib)   ...       0.19 
freq.     425.02  E(vib)   ...       0.18 
freq.     427.21  E(vib)   ...       0.18 
freq.     432.52  E(vib)   ...       0.18 
freq.     449.51  E(vib)   ...       0.17 
freq.     537.89  E(vib)   ...       0.12 
freq.     571.51  E(vib)   ...       0.11 
freq.     625.27  E(vib)   ...       0.09 
freq.     626.00  E(vib)   ...       0.09 
freq.     674.73  E(vib)   ...       0.08 
freq.     675.37  E(vib)   ...       0.08 
freq.     694.28  E(vib)   ...       0.07 
freq.     721.28  E(vib)   ...       0.07 
freq.     721.92  E(vib)   ...       0.07 
freq.     724.37  E(vib)   ...       0.06 
freq.     759.70  E(vib)   ...       0.06 
freq.     799.60  E(vib)   ...       0.05 
freq.     802.95  E(vib)   ...       0.05 
freq.     872.62  E(vib)   ...       0.04 
freq.     876.99  E(vib)   ...       0.04 
freq.     896.87  E(vib)   ...       0.03 
freq.     910.43  E(vib)   ...       0.03 
freq.     971.25  E(vib)   ...       0.03 
freq.     974.24  E(vib)   ...       0.03 
freq.     978.74  E(vib)   ...       0.03 
freq.     988.25  E(vib)   ...       0.02 
freq.    1025.54  E(vib)   ...       0.02 
freq.    1026.94  E(vib)   ...       0.02 
freq.    1028.31  E(vib)   ...       0.02 
freq.    1031.62  E(vib)   ...       0.02 
freq.    1057.60  E(vib)   ...       0.02 
freq.    1060.48  E(vib)   ...       0.02 
freq.    1061.37  E(vib)   ...       0.02 
freq.    1063.34  E(vib)   ...       0.02 
freq.    1094.47  E(vib)   ...       0.02 
freq.    1106.47  E(vib)   ...       0.02 
freq.    1111.56  E(vib)   ...       0.01 
freq.    1114.80  E(vib)   ...       0.01 
freq.    1146.69  E(vib)   ...       0.01 
freq.    1160.85  E(vib)   ...       0.01 
freq.    1163.98  E(vib)   ...       0.01 
freq.    1184.47  E(vib)   ...       0.01 
freq.    1189.08  E(vib)   ...       0.01 
freq.    1264.08  E(vib)   ...       0.01 
freq.    1290.21  E(vib)   ...       0.01 
freq.    1324.20  E(vib)   ...       0.01 
freq.    1334.68  E(vib)   ...       0.01 
freq.    1355.47  E(vib)   ...       0.01 
freq.    1356.55  E(vib)   ...       0.01 
freq.    1406.02  E(vib)   ...       0.00 
freq.    1428.78  E(vib)   ...       0.00 
freq.    1471.53  E(vib)   ...       0.00 
freq.    1510.07  E(vib)   ...       0.00 
freq.    1514.72  E(vib)   ...       0.00 
freq.    1545.29  E(vib)   ...       0.00 
freq.    1562.31  E(vib)   ...       0.00 
freq.    1647.41  E(vib)   ...       0.00 
freq.    1650.09  E(vib)   ...       0.00 
freq.    1700.39  E(vib)   ...       0.00 
freq.    1703.69  E(vib)   ...       0.00 
freq.    1705.36  E(vib)   ...       0.00 
freq.    1707.35  E(vib)   ...       0.00 
freq.    3221.05  E(vib)   ...       0.00 
freq.    3221.12  E(vib)   ...       0.00 
freq.    3226.46  E(vib)   ...       0.00 
freq.    3226.72  E(vib)   ...       0.00 
freq.    3231.10  E(vib)   ...       0.00 
freq.    3231.21  E(vib)   ...       0.00 
freq.    3237.66  E(vib)   ...       0.00 
freq.    3237.87  E(vib)   ...       0.00 
freq.    3243.60  E(vib)   ...       0.00 
freq.    3243.62  E(vib)   ...       0.00 
freq.    3299.47  E(vib)   ...       0.00 
freq.    3304.63  E(vib)   ...       0.00 
freq.    3322.47  E(vib)   ...       0.00 

------------
INNER ENERGY
------------

The inner energy is: U= E(el) + E(ZPE) + E(vib) + E(rot) + E(trans)
    E(el)   - is the total energy from the electronic structure calculation
              = E(kin-el) + E(nuc-el) + E(el-el) + E(nuc-nuc)
    E(ZPE)  - the the zero temperature vibrational energy from the frequency calculation
    E(vib)  - the the finite temperature correction to E(ZPE) due to population
              of excited vibrational states
    E(rot)  - is the rotational thermal energy
    E(trans)- is the translational thermal energy

Summary of contributions to the inner energy U:
Electronic energy                ...   -688.11902063 Eh
Zero point energy                ...      0.24895364 Eh     156.22 kcal/mol
Thermal vibrational correction   ...      0.00985397 Eh       6.18 kcal/mol
Thermal rotational correction    ...      0.00141627 Eh       0.89 kcal/mol
Thermal translational correction ...      0.00141627 Eh       0.89 kcal/mol
-----------------------------------------------------------------------
Total thermal energy                   -687.85738047 Eh


Summary of corrections to the electronic energy:
(perhaps to be used in another calculation)
Total thermal correction                  0.01268652 Eh       7.96 kcal/mol
Non-thermal (ZPE) correction              0.24895364 Eh     156.22 kcal/mol
-----------------------------------------------------------------------
Total correction                          0.26164016 Eh     164.18 kcal/mol


--------
ENTHALPY
--------

The enthalpy is H = U + kB*T
                kB is Boltzmann's constant
Total free energy                 ...   -687.85738047 Eh 
Thermal Enthalpy correction       ...      0.00094421 Eh       0.59 kcal/mol
-----------------------------------------------------------------------
Total Enthalpy                    ...   -687.85643626 Eh


Note: Only C1 symmetry has been detected, increase convergence thresholds 
      if your molecule has a higher symmetry. Symmetry factor of 1.0 is   
      used for the rotational entropy correction. 
 

Note: Rotational entropy computed according to Herzberg 
Infrared and Raman Spectra, Chapter V,1, Van Nostrand Reinhold, 1945 
Point Group:  C1, Symmetry Number:   1  
Rotational constants in cm-1:     0.052778     0.006760     0.006431 

Vibrational entropy computed according to the QRRHO of S. Grimme
Chem.Eur.J. 2012 18 9955


-------
ENTROPY
-------

The entropy contributions are T*S = T*(S(el)+S(vib)+S(rot)+S(trans))
     S(el)   - electronic entropy
     S(vib)  - vibrational entropy
     S(rot)  - rotational entropy
     S(trans)- translational entropy
The entropies will be listed as multiplied by the temperature to get
units of energy

Electronic entropy                ...      0.00000000 Eh      0.00 kcal/mol
Vibrational entropy               ...      0.01691142 Eh     10.61 kcal/mol
Rotational entropy                ...      0.01564091 Eh      9.81 kcal/mol
Translational entropy             ...      0.01999615 Eh     12.55 kcal/mol
-----------------------------------------------------------------------
Final entropy term                ...      0.05254847 Eh     32.97 kcal/mol

In case the symmetry of your molecule has not been determined correctly
or in case you have a reason to use a different symmetry number we print 
out the resulting rotational entropy values for sn=1,12 :
 --------------------------------------------------------
|  sn= 1 | S(rot)=       0.01564091 Eh      9.81 kcal/mol|
|  sn= 2 | S(rot)=       0.01498645 Eh      9.40 kcal/mol|
|  sn= 3 | S(rot)=       0.01460362 Eh      9.16 kcal/mol|
|  sn= 4 | S(rot)=       0.01433200 Eh      8.99 kcal/mol|
|  sn= 5 | S(rot)=       0.01412131 Eh      8.86 kcal/mol|
|  sn= 6 | S(rot)=       0.01394916 Eh      8.75 kcal/mol|
|  sn= 7 | S(rot)=       0.01380362 Eh      8.66 kcal/mol|
|  sn= 8 | S(rot)=       0.01367754 Eh      8.58 kcal/mol|
|  sn= 9 | S(rot)=       0.01356633 Eh      8.51 kcal/mol|
|  sn=10 | S(rot)=       0.01346685 Eh      8.45 kcal/mol|
|  sn=11 | S(rot)=       0.01337686 Eh      8.39 kcal/mol|
|  sn=12 | S(rot)=       0.01329471 Eh      8.34 kcal/mol|
 --------------------------------------------------------


-------------------
GIBBS FREE ENERGY
-------------------

The Gibbs free energy is G = H - T*S

Total enthalpy                    ...   -687.85643626 Eh 
Total entropy correction          ...     -0.05254847 Eh    -32.97 kcal/mol
-----------------------------------------------------------------------
Final Gibbs free energy         ...   -687.90898473 Eh

For completeness - the Gibbs free energy minus the electronic energy
G-E(el)                           ...      0.21003589 Eh    131.80 kcal/mol


Timings for individual modules:

Sum of individual times         ...    10854.667 sec (= 180.911 min)
GTO integral calculation        ...        6.217 sec (=   0.104 min)   0.1 %
SCF iterations                  ...     6703.508 sec (= 111.725 min)  61.8 %
SCF Gradient evaluation         ...     1690.586 sec (=  28.176 min)  15.6 %
Geometry relaxation             ...        1.045 sec (=   0.017 min)   0.0 %
Analytical frequency calculation...     2453.311 sec (=  40.889 min)  22.6 %
                             ****ORCA TERMINATED NORMALLY****
TOTAL RUN TIME: 0 days 3 hours 0 minutes 56 seconds 687 msec
