
                                 *****************
                                 * O   R   C   A *
                                 *****************

                                            #,                                       
                                            ###                                      
                                            ####                                     
                                            #####                                    
                                            ######                                   
                                           ########,                                 
                                     ,,################,,,,,                         
                               ,,#################################,,                 
                          ,,##########################################,,             
                       ,#########################################, ''#####,          
                    ,#############################################,,   '####,        
                  ,##################################################,,,,####,       
                ,###########''''           ''''###############################       
              ,#####''   ,,,,##########,,,,          '''####'''          '####       
            ,##' ,,,,###########################,,,                        '##       
           ' ,,###''''                  '''############,,,                           
         ,,##''                                '''############,,,,        ,,,,,,###''
      ,#''                                            '''#######################'''  
     '                                                          ''''####''''         
             ,#######,   #######,   ,#######,      ##                                
            ,#'     '#,  ##    ##  ,#'     '#,    #''#        ######   ,####,        
            ##       ##  ##   ,#'  ##            #'  '#       #        #'  '#        
            ##       ##  #######   ##           ,######,      #####,   #    #        
            '#,     ,#'  ##    ##  '#,     ,#' ,#      #,         ##   #,  ,#        
             '#######'   ##     ##  '#######'  #'      '#     #####' # '####'        



                  #######################################################
                  #                        -***-                        #
                  #          Department of theory and spectroscopy      #
                  #    Directorship and core code : Frank Neese         #
                  #        Max Planck Institute fuer Kohlenforschung    #
                  #                Kaiser Wilhelm Platz 1               #
                  #                 D-45470 Muelheim/Ruhr               #
                  #                      Germany                        #
                  #                                                     #
                  #                  All rights reserved                #
                  #                        -***-                        #
                  #######################################################


                         Program Version 5.0.4 -  RELEASE  -


 With contributions from (in alphabetic order):
   Daniel Aravena         : Magnetic Suceptibility
   Michael Atanasov       : Ab Initio Ligand Field Theory (pilot matlab implementation)
   Alexander A. Auer      : GIAO ZORA, VPT2 properties, NMR spectrum
   Ute Becker             : Parallelization
   Giovanni Bistoni       : ED, misc. LED, open-shell LED, HFLD
   Martin Brehm           : Molecular dynamics
   Dmytro Bykov           : SCF Hessian
   Vijay G. Chilkuri      : MRCI spin determinant printing, contributions to CSF-ICE
   Dipayan Datta          : RHF DLPNO-CCSD density
   Achintya Kumar Dutta   : EOM-CC, STEOM-CC
   Dmitry Ganyushin       : Spin-Orbit,Spin-Spin,Magnetic field MRCI
   Miquel Garcia          : C-PCM and meta-GGA Hessian, CC/C-PCM, Gaussian charge scheme
   Yang Guo               : DLPNO-NEVPT2, F12-NEVPT2, CIM, IAO-localization
   Andreas Hansen         : Spin unrestricted coupled pair/coupled cluster methods
   Benjamin Helmich-Paris : MC-RPA, TRAH-SCF, COSX integrals
   Lee Huntington         : MR-EOM, pCC
   Robert Izsak           : Overlap fitted RIJCOSX, COSX-SCS-MP3, EOM
   Marcus Kettner         : VPT2
   Christian Kollmar      : KDIIS, OOCD, Brueckner-CCSD(T), CCSD density, CASPT2, CASPT2-K
   Simone Kossmann        : Meta GGA functionals, TD-DFT gradient, OOMP2, MP2 Hessian
   Martin Krupicka        : Initial AUTO-CI
   Lucas Lang             : DCDCAS
   Marvin Lechner         : AUTO-CI (C++ implementation), FIC-MRCC
   Dagmar Lenk            : GEPOL surface, SMD
   Dimitrios Liakos       : Extrapolation schemes; Compound Job, initial MDCI parallelization
   Dimitrios Manganas     : Further ROCIS development; embedding schemes
   Dimitrios Pantazis     : SARC Basis sets
   Anastasios Papadopoulos: AUTO-CI, single reference methods and gradients
   Taras Petrenko         : DFT Hessian,TD-DFT gradient, ASA, ECA, R-Raman, ABS, FL, XAS/XES, NRVS
   Peter Pinski           : DLPNO-MP2, DLPNO-MP2 Gradient
   Christoph Reimann      : Effective Core Potentials
   Marius Retegan         : Local ZFS, SOC
   Christoph Riplinger    : Optimizer, TS searches, QM/MM, DLPNO-CCSD(T), (RO)-DLPNO pert. Triples
   Tobias Risthaus        : Range-separated hybrids, TD-DFT gradient, RPA, STAB
   Michael Roemelt        : Original ROCIS implementation
   Masaaki Saitow         : Open-shell DLPNO-CCSD energy and density
   Barbara Sandhoefer     : DKH picture change effects
   Avijit Sen             : IP-ROCIS
   Kantharuban Sivalingam : CASSCF convergence, NEVPT2, FIC-MRCI
   Bernardo de Souza      : ESD, SOC TD-DFT
   Georgi Stoychev        : AutoAux, RI-MP2 NMR, DLPNO-MP2 response
   Willem Van den Heuvel  : Paramagnetic NMR
   Boris Wezisla          : Elementary symmetry handling
   Frank Wennmohs         : Technical directorship


 We gratefully acknowledge several colleagues who have allowed us to
 interface, adapt or use parts of their codes:
   Stefan Grimme, W. Hujo, H. Kruse, P. Pracht,  : VdW corrections, initial TS optimization,
                  C. Bannwarth, S. Ehlert          DFT functionals, gCP, sTDA/sTD-DF
   Ed Valeev, F. Pavosevic, A. Kumar             : LibInt (2-el integral package), F12 methods
   Garnet Chan, S. Sharma, J. Yang, R. Olivares  : DMRG
   Ulf Ekstrom                                   : XCFun DFT Library
   Mihaly Kallay                                 : mrcc  (arbitrary order and MRCC methods)
   Jiri Pittner, Ondrej Demel                    : Mk-CCSD
   Frank Weinhold                                : gennbo (NPA and NBO analysis)
   Christopher J. Cramer and Donald G. Truhlar   : smd solvation model
   Lars Goerigk                                  : TD-DFT with DH, B97 family of functionals
   V. Asgeirsson, H. Jonsson                     : NEB implementation
   FAccTs GmbH                                   : IRC, NEB, NEB-TS, DLPNO-Multilevel, CI-OPT
                                                   MM, QMMM, 2- and 3-layer-ONIOM, Crystal-QMMM,
                                                   LR-CPCM, SF, NACMEs, symmetry and pop. for TD-DFT,
                                                   nearIR, NL-DFT gradient (VV10), updates on ESD,
                                                   ML-optimized integration grids
   S Lehtola, MJT Oliveira, MAL Marques          : LibXC Library
   Liviu Ungur et al                             : ANISO software


 Your calculation uses the libint2 library for the computation of 2-el integrals
 For citations please refer to: http://libint.valeyev.net

 Your ORCA version has been built with support for libXC version: 5.1.0
 For citations please refer to: https://tddft.org/programs/libxc/

 This ORCA versions uses:
   CBLAS   interface :  Fast vector & matrix operations
   LAPACKE interface :  Fast linear algebra routines
   SCALAPACK package :  Parallel linear algebra routines
   Shared memory     :  Shared parallel matrices
   BLAS/LAPACK       :  OpenBLAS 0.3.15  USE64BITINT DYNAMIC_ARCH NO_AFFINITY SkylakeX SINGLE_THREADED
        Core in use  :  SkylakeX
   Copyright (c) 2011-2014, The OpenBLAS Project




***************************************
The coordinates will be read from file: 8_deprot_aq_3.xyz
***************************************


Your calculation utilizes the atom-pairwise dispersion correction
based on tight binding partial charges (D4)
Cite in your paper:
E.Caldeweyher, C.Bannwarth, S.Grimme, J.Chem.Phys., (2017), 147, 034112.
E.Caldeweyher, S.Ehlert, A.Hansen, H.Neugebauer, S.Grimme, J.Chem.Phys., (2018), in progress.
   

XCFun DFT library Copyright 2009-2010 Ulf Ekstrom and contributors.
See http://admol.org/xcfun for more information.
This is free software; see the source code for copying conditions.
There is ABSOLUTELY NO WARRANTY; not even for MERCHANTABILITY or FITNESS FOR A PARTICULAR PURPOSE.
For details see the documentation.
Scientific users of this library should cite U. Ekstrom, L. Visscher, R. Bast, A. J. Thorvaldsen and K. Ruud;
J.Chem.Theor.Comp. 2010, DOI: 10.1021/ct100117s
XCFun Version 0.99 

================================================================================

----- Orbital basis set information -----
Your calculation utilizes the basis: def2-SVP
   F. Weigend and R. Ahlrichs, Phys. Chem. Chem. Phys. 7, 3297 (2005).

----- AuxJ basis set information -----
Your calculation utilizes the auxiliary basis: def2/J
   F. Weigend, Phys. Chem. Chem. Phys. 8, 1057 (2006).

================================================================================
                                        WARNINGS
                       Please study these warnings very carefully!
================================================================================

WARNING: Old DensityContainer found on disk!
         Will remove this file - 
         If you want to keep old densities, please start your calculation with a different basename. 


WARNING: Geometry Optimization
  ===> : Switching off AutoStart
         For restart on a previous wavefunction, please use MOREAD

INFO   : the flag for use of the SHARK integral package has been found!

================================================================================
                                       INPUT FILE
================================================================================
NAME = 8_deprot_aq_3.inp
|  1> # ORCA 5.0.4 - /users/bwb16179/postgrad/2024_03/DFT_Crest_Conformers/Opt/deprot/8_deprot_aq_3.inp # write input file
|  2> # Basic Mode
|  3> #
|  4> ! Opt Freq wB97X Def2-SVP D4 SlowConv TightSCF Defgrid2 Def2/J RIJCOSX CPCM(Water)
|  5> 
|  6> 
|  7> 
|  8> %maxcore 4500
|  9> 
| 10> %geom
| 11> Maxiter 150
| 12> END
| 13> 
| 14> * xyzfile 0 1 8_deprot_aq_3.xyz
| 15> 
| 16>                          ****END OF INPUT****
================================================================================

                       *****************************
                       * Geometry Optimization Run *
                       *****************************

Geometry optimization settings:
Update method            Update   .... BFGS
Choice of coordinates    CoordSys .... Z-matrix Internals
Initial Hessian          InHess   .... Almoef's Model

Convergence Tolerances:
Energy Change            TolE     ....  5.0000e-06 Eh
Max. Gradient            TolMAXG  ....  3.0000e-04 Eh/bohr
RMS Gradient             TolRMSG  ....  1.0000e-04 Eh/bohr
Max. Displacement        TolMAXD  ....  4.0000e-03 bohr
RMS Displacement         TolRMSD  ....  2.0000e-03 bohr
Strict Convergence                ....  False
------------------------------------------------------------------------------
                        ORCA OPTIMIZATION COORDINATE SETUP
------------------------------------------------------------------------------

The optimization will be done in new redundant internal coordinates
Making redundant internal coordinates   ...  (new redundants) done
Evaluating the initial hessian          ...  (Almloef) done
Evaluating the coordinates              ...  done
Calculating the B-matrix                .... done
Calculating the G-matrix                .... done
Diagonalizing the G-matrix              .... done
Small eigenvalue found = 3.408e-03
Small eigenvalue found = 6.444e-03
Small eigenvalue found = 8.061e-03
Small eigenvalue found = 1.326e-02
Small eigenvalue found = 1.774e-02
The first mode is                       ....   95
The number of degrees of freedom        ....  117

    -----------------------------------------------------------------
                    Redundant Internal Coordinates


    -----------------------------------------------------------------
         Definition                    Initial Value    Approx d2E/dq
    -----------------------------------------------------------------
      1. B(C   1,N   0)                  1.3602         0.624279   
      2. B(N   2,C   1)                  1.3613         0.621790   
      3. B(C   3,N   2)                  1.3906         0.558365   
      4. B(C   4,C   3)                  1.3533         0.714942   
      5. B(C   4,N   0)                  1.3902         0.559108   
      6. B(C   5,N   0)                  1.4329         0.478007   
      7. B(C   6,N   2)                  1.4321         0.479476   
      8. B(C   7,C   5)                  1.4028         0.596014   
      9. B(C   8,C   5)                  1.4022         0.597334   
     10. B(C   9,C   6)                  1.4017         0.598491   
     11. B(C  10,C   6)                  1.4024         0.596947   
     12. B(H  11,C   3)                  1.0889         0.361573   
     13. B(H  12,C   4)                  1.0889         0.361623   
     14. B(C  13,C   8)                  1.3989         0.604793   
     15. B(C  14,C  13)                  1.3932         0.617569   
     16. B(C  15,C  14)                  1.3935         0.616789   
     17. B(C  15,C   7)                  1.3984         0.605772   
     18. B(C  16,C   9)                  1.3985         0.605692   
     19. B(C  17,C  16)                  1.3931         0.617826   
     20. B(C  18,C  17)                  1.3932         0.617476   
     21. B(C  18,C  10)                  1.3989         0.604807   
     22. B(C  19,C   7)                  1.5060         0.407993   
     23. B(C  20,C   8)                  1.5061         0.407898   
     24. B(H  21,C  13)                  1.0943         0.354470   
     25. B(H  22,C  14)                  1.0938         0.355062   
     26. B(H  23,C  15)                  1.0943         0.354465   
     27. B(C  24,C   9)                  1.5056         0.408628   
     28. B(H  25,C  18)                  1.0942         0.354562   
     29. B(C  26,C  10)                  1.5061         0.407924   
     30. B(H  27,C  16)                  1.0944         0.354335   
     31. B(H  28,C  17)                  1.0938         0.355094   
     32. B(H  29,C  20)                  1.1019         0.344731   
     33. B(H  30,C  20)                  1.0987         0.348807   
     34. B(H  31,C  20)                  1.1016         0.345094   
     35. B(H  32,C  19)                  1.0987         0.348823   
     36. B(H  33,C  19)                  1.1015         0.345196   
     37. B(H  34,C  19)                  1.1019         0.344707   
     38. B(H  35,C  26)                  1.1022         0.344283   
     39. B(H  36,C  26)                  1.0989         0.348486   
     40. B(H  37,C  26)                  1.1012         0.345645   
     41. B(H  38,C  24)                  1.1007         0.346163   
     42. B(H  39,C  24)                  1.0987         0.348729   
     43. B(H  40,C  24)                  1.1022         0.344280   
     44. A(C   4,N   0,C   5)          123.9490         0.401606   
     45. A(C   1,N   0,C   5)          123.1586         0.409505   
     46. A(C   1,N   0,C   4)          112.8921         0.421078   
     47. A(N   0,C   1,N   2)          102.3229         0.429161   
     48. A(C   1,N   2,C   6)          122.8552         0.409438   
     49. A(C   1,N   2,C   3)          112.7828         0.420678   
     50. A(C   3,N   2,C   6)          124.3053         0.401729   
     51. A(C   4,C   3,H  11)          131.3881         0.361810   
     52. A(N   2,C   3,C   4)          106.0424         0.434165   
     53. A(N   2,C   3,H  11)          122.5641         0.344844   
     54. A(C   3,C   4,H  12)          131.3993         0.361819   
     55. A(N   0,C   4,H  12)          122.6408         0.344929   
     56. A(N   0,C   4,C   3)          105.9589         0.434269   
     57. A(C   7,C   5,C   8)          122.4697         0.428127   
     58. A(N   0,C   5,C   8)          118.7755         0.408953   
     59. A(N   0,C   5,C   7)          118.7545         0.408793   
     60. A(N   2,C   6,C  10)          118.7972         0.409128   
     61. A(N   2,C   6,C   9)          118.8058         0.409316   
     62. A(C   9,C   6,C  10)          122.3950         0.428396   
     63. A(C  15,C   7,C  19)          121.3790         0.401238   
     64. A(C   5,C   7,C  19)          120.7176         0.400092   
     65. A(C   5,C   7,C  15)          117.9034         0.429206   
     66. A(C   5,C   8,C  13)          117.8859         0.429252   
     67. A(C  13,C   8,C  20)          121.3388         0.401107   
     68. A(C   5,C   8,C  20)          120.7718         0.400232   
     69. A(C   6,C   9,C  16)          117.9100         0.429515   
     70. A(C   6,C   9,C  24)          121.0102         0.400494   
     71. A(C  16,C   9,C  24)          121.0730         0.401339   
     72. A(C   6,C  10,C  18)          117.9776         0.429203   
     73. A(C  18,C  10,C  26)          121.0578         0.401113   
     74. A(C   6,C  10,C  26)          120.9567         0.400191   
     75. A(C   8,C  13,C  14)          120.7523         0.431827   
     76. A(C  14,C  13,H  21)          120.0886         0.351736   
     77. A(C   8,C  13,H  21)          119.1591         0.350495   
     78. A(C  13,C  14,C  15)          120.2551         0.433354   
     79. A(C  15,C  14,H  22)          119.8882         0.351760   
     80. A(C  13,C  14,H  22)          119.8567         0.351835   
     81. A(C   7,C  15,C  14)          120.7336         0.431854   
     82. A(C  14,C  15,H  23)          120.1397         0.351660   
     83. A(C   7,C  15,H  23)          119.1267         0.350590   
     84. A(C   9,C  16,C  17)          120.8166         0.431975   
     85. A(C  17,C  16,H  27)          120.0400         0.351738   
     86. A(C   9,C  16,H  27)          119.1433         0.350561   
     87. A(C  16,C  17,C  18)          120.1913         0.433474   
     88. A(C  18,C  17,H  28)          120.0131         0.351831   
     89. A(C  16,C  17,H  28)          119.7956         0.351865   
     90. A(C  10,C  18,C  17)          120.7091         0.431817   
     91. A(C  17,C  18,H  25)          120.2108         0.351742   
     92. A(C  10,C  18,H  25)          119.0801         0.350512   
     93. A(H  33,C  19,H  34)          106.9033         0.286951   
     94. A(H  32,C  19,H  34)          108.2589         0.287419   
     95. A(H  32,C  19,H  33)          108.5535         0.287483   
     96. A(C   7,C  19,H  33)          110.9596         0.326774   
     97. A(C   7,C  19,H  32)          110.8535         0.327337   
     98. A(C   7,C  19,H  34)          111.1700         0.326698   
     99. A(H  30,C  20,H  31)          108.2386         0.287468   
    100. A(H  29,C  20,H  31)          106.9250         0.286940   
    101. A(C   8,C  20,H  31)          111.3756         0.326746   
    102. A(H  29,C  20,H  30)          108.4287         0.287420   
    103. A(C   8,C  20,H  30)          110.8180         0.327322   
    104. A(C   8,C  20,H  29)          110.9082         0.326689   
    105. A(H  39,C  24,H  40)          108.1101         0.287352   
    106. A(H  38,C  24,H  40)          106.9024         0.287020   
    107. A(C   9,C  24,H  40)          110.6463         0.326715   
    108. A(H  38,C  24,H  39)          108.2140         0.287597   
    109. A(C   9,C  24,H  39)          110.2832         0.327407   
    110. A(C   9,C  24,H  38)          112.5181         0.327009   
    111. A(C  10,C  26,H  36)          110.7207         0.327276   
    112. A(C  10,C  26,H  35)          111.0463         0.326623   
    113. A(H  36,C  26,H  37)          108.2373         0.287498   
    114. A(H  35,C  26,H  37)          106.9876         0.286954   
    115. A(C  10,C  26,H  37)          111.5451         0.326835   
    116. A(H  35,C  26,H  36)          108.1470         0.287321   
    117. D(N   2,C   1,N   0,C   5)   -179.9326         0.028622   
    118. D(N   2,C   1,N   0,C   4)     -0.1484         0.028622   
    119. D(C   6,N   2,C   1,N   0)    177.6508         0.028377   
    120. D(C   3,N   2,C   1,N   0)      0.2828         0.028377   
    121. D(H  11,C   3,N   2,C   6)      3.1187         0.024891   
    122. D(C   4,C   3,N   2,C   1)     -0.3171         0.024891   
    123. D(C   4,C   3,N   2,C   6)   -177.6404         0.024891   
    124. D(H  11,C   3,N   2,C   1)   -179.5579         0.024891   
    125. D(H  12,C   4,C   3,N   2)   -179.4386         0.036131   
    126. D(N   0,C   4,C   3,H  11)    179.3494         0.036131   
    127. D(H  12,C   4,N   0,C   5)     -0.5735         0.024961   
    128. D(N   0,C   4,C   3,N   2)      0.2022         0.036131   
    129. D(H  12,C   4,N   0,C   1)    179.6442         0.024961   
    130. D(C   3,C   4,N   0,C   5)    179.7465         0.024961   
    131. D(H  12,C   4,C   3,H  11)     -0.2913         0.036131   
    132. D(C   3,C   4,N   0,C   1)     -0.0357         0.024961   
    133. D(C   8,C   5,N   0,C   1)     91.1212         0.018022   
    134. D(C   8,C   5,N   0,C   4)    -88.6392         0.018022   
    135. D(C   7,C   5,N   0,C   4)     91.5401         0.018022   
    136. D(C   7,C   5,N   0,C   1)    -88.6995         0.018022   
    137. D(C  10,C   6,N   2,C   3)    -92.2669         0.018135   
    138. D(C  10,C   6,N   2,C   1)     90.6710         0.018135   
    139. D(C   9,C   6,N   2,C   3)     88.2457         0.018135   
    140. D(C   9,C   6,N   2,C   1)    -88.8164         0.018135   
    141. D(C  19,C   7,C   5,C   8)   -179.9558         0.024472   
    142. D(C  19,C   7,C   5,N   0)     -0.1421         0.024472   
    143. D(C  15,C   7,C   5,C   8)     -0.0662         0.024472   
    144. D(C  15,C   7,C   5,N   0)    179.7475         0.024472   
    145. D(C  20,C   8,C   5,N   0)     -0.3849         0.024586   
    146. D(C  13,C   8,C   5,C   7)      0.1066         0.024586   
    147. D(C  13,C   8,C   5,N   0)   -179.7070         0.024586   
    148. D(C  20,C   8,C   5,C   7)    179.4287         0.024586   
    149. D(C  24,C   9,C   6,C  10)   -179.1634         0.024686   
    150. D(C  24,C   9,C   6,N   2)      0.3046         0.024686   
    151. D(C  16,C   9,C   6,C  10)     -0.1013         0.024686   
    152. D(C  16,C   9,C   6,N   2)    179.3667         0.024686   
    153. D(C  26,C  10,C   6,C   9)    179.2427         0.024552   
    154. D(C  18,C  10,C   6,C   9)      0.2566         0.024552   
    155. D(C  26,C  10,C   6,N   2)     -0.2253         0.024552   
    156. D(C  18,C  10,C   6,N   2)   -179.2114         0.024552   
    157. D(H  21,C  13,C   8,C  20)      0.5287         0.025238   
    158. D(H  21,C  13,C   8,C   5)    179.8467         0.025238   
    159. D(C  14,C  13,C   8,C  20)   -179.4218         0.025238   
    160. D(C  14,C  13,C   8,C   5)     -0.1038         0.025238   
    161. D(H  22,C  14,C  13,H  21)      0.1052         0.026379   
    162. D(H  22,C  14,C  13,C   8)   -179.9447         0.026379   
    163. D(C  15,C  14,C  13,H  21)   -179.8862         0.026379   
    164. D(C  15,C  14,C  13,C   8)      0.0638         0.026379   
    165. D(H  23,C  15,C  14,H  22)      0.0968         0.026308   
    166. D(C   7,C  15,C  14,H  22)    179.9870         0.026308   
    167. D(C   7,C  15,C  14,C  13)     -0.0215         0.026308   
    168. D(H  23,C  15,C   7,C  19)     -0.1979         0.025324   
    169. D(H  23,C  15,C   7,C   5)    179.9133         0.025324   
    170. D(H  23,C  15,C  14,C  13)   -179.9118         0.026308   
    171. D(C  14,C  15,C   7,C  19)    179.9107         0.025324   
    172. D(C  14,C  15,C   7,C   5)      0.0219         0.025324   
    173. D(H  27,C  16,C   9,C  24)     -1.0783         0.025317   
    174. D(H  27,C  16,C   9,C   6)    179.8601         0.025317   
    175. D(C  17,C  16,C   9,C  24)    178.9744         0.025317   
    176. D(C  17,C  16,C   9,C   6)     -0.0872         0.025317   
    177. D(H  28,C  17,C  16,C   9)   -179.9246         0.026402   
    178. D(C  18,C  17,C  16,H  27)   -179.8335         0.026402   
    179. D(C  18,C  17,C  16,C   9)      0.1134         0.026402   
    180. D(H  28,C  17,C  16,H  27)      0.1285         0.026402   
    181. D(H  25,C  18,C  17,H  28)     -0.0154         0.026370   
    182. D(H  25,C  18,C  17,C  16)    179.9465         0.026370   
    183. D(C  10,C  18,C  17,H  28)   -179.9129         0.026370   
    184. D(C  10,C  18,C  17,C  16)      0.0490         0.026370   
    185. D(H  25,C  18,C  10,C  26)      0.8889         0.025239   
    186. D(H  25,C  18,C  10,C   6)    179.8739         0.025239   
    187. D(C  17,C  18,C  10,C  26)   -179.2124         0.025239   
    188. D(C  17,C  18,C  10,C   6)     -0.2274         0.025239   
    189. D(H  34,C  19,C   7,C  15)    119.4316         0.012333   
    190. D(H  34,C  19,C   7,C   5)    -60.6827         0.012333   
    191. D(H  33,C  19,C   7,C  15)   -121.7366         0.012333   
    192. D(H  33,C  19,C   7,C   5)     58.1491         0.012333   
    193. D(H  32,C  19,C   7,C  15)     -1.0368         0.012333   
    194. D(H  32,C  19,C   7,C   5)    178.8488         0.012333   
    195. D(H  31,C  20,C   8,C  13)   -121.4760         0.012328   
    196. D(H  31,C  20,C   8,C   5)     59.2255         0.012328   
    197. D(H  30,C  20,C   8,C  13)     -0.9193         0.012328   
    198. D(H  30,C  20,C   8,C   5)    179.7822         0.012328   
    199. D(H  29,C  20,C   8,C  13)    119.5648         0.012328   
    200. D(H  29,C  20,C   8,C   5)    -59.7337         0.012328   
    201. D(H  40,C  24,C   9,C  16)   -111.3995         0.012370   
    202. D(H  40,C  24,C   9,C   6)     67.6329         0.012370   
    203. D(H  39,C  24,C   9,C  16)      8.1644         0.012370   
    204. D(H  39,C  24,C   9,C   6)   -172.8032         0.012370   
    205. D(H  38,C  24,C   9,C  16)    129.0920         0.012370   
    206. D(H  38,C  24,C   9,C   6)    -51.8756         0.012370   
    207. D(H  37,C  26,C  10,C  18)   -128.0824         0.012329   
    208. D(H  37,C  26,C  10,C   6)     52.9628         0.012329   
    209. D(H  36,C  26,C  10,C  18)     -7.4797         0.012329   
    210. D(H  36,C  26,C  10,C   6)    173.5656         0.012329   
    211. D(H  35,C  26,C  10,C  18)    112.6763         0.012329   
    212. D(H  35,C  26,C  10,C   6)    -66.2784         0.012329   
    -----------------------------------------------------------------

Number of atoms                         .... 41
Number of degrees of freedom            .... 212

         *************************************************************
         *                GEOMETRY OPTIMIZATION CYCLE   1            *
         *************************************************************
---------------------------------
CARTESIAN COORDINATES (ANGSTROEM)
---------------------------------
  N     -1.059444    0.068827    0.475114
  C      0.007729    0.064768   -0.368294
  N      1.059407    0.006563    0.494120
  C      0.662016   -0.030842    1.826205
  C     -0.690569    0.011910    1.814313
  C     -2.417350    0.121473    0.020674
  C      2.420590   -0.068365    0.055519
  C     -3.013151    1.375287   -0.181626
  C     -3.099508   -1.081973   -0.208769
  C      2.987207   -1.329404   -0.175810
  C      3.134757    1.123072   -0.137364
  H      1.373801   -0.071723    2.649230
  H     -1.418125    0.012373    2.624411
  C     -4.422225   -1.008880   -0.658079
  C     -5.036609    0.223975   -0.866687
  C     -4.337235    1.405896   -0.630443
  C      4.313398   -1.380264   -0.616610
  C      5.043297   -0.211229   -0.819602
  C      4.457782    1.030466   -0.582129
  C     -2.243098    2.643556    0.076400
  C     -2.418273   -2.407425    0.008833
  H     -4.973373   -1.935326   -0.846240
  H     -6.071919    0.264048   -1.217403
  H     -4.822129    2.373241   -0.793543
  C      2.185777   -2.588272    0.023566
  H      5.031088    1.948895   -0.740634
  C      2.488413    2.461618    0.104987
  H      4.776654   -2.354418   -0.801310
  H      6.079163   -0.270432   -1.165864
  H     -1.529638   -2.503304   -0.635574
  H     -3.100909   -3.238694   -0.214960
  H     -2.073033   -2.515383    1.049336
  H     -2.855500    3.526436   -0.152820
  H     -1.329491    2.681670   -0.537753
  H     -1.924360    2.708367    1.129192
  H      1.681871    2.649242   -0.622469
  H      3.225776    3.271445    0.014924
  H      2.036588    2.516894    1.107651
  H      1.704415   -2.629354    1.012627
  H      2.831173   -3.471280   -0.081214
  H      1.382036   -2.660312   -0.727247

----------------------------
CARTESIAN COORDINATES (A.U.)
----------------------------
  NO LB      ZA    FRAG     MASS         X           Y           Z
   0 N     7.0000    0    14.007   -2.002059    0.130064    0.897836
   1 C     6.0000    0    12.011    0.014606    0.122394   -0.695976
   2 N     7.0000    0    14.007    2.001989    0.012402    0.933752
   3 C     6.0000    0    12.011    1.251030   -0.058283    3.451027
   4 C     6.0000    0    12.011   -1.304985    0.022506    3.428555
   5 C     6.0000    0    12.011   -4.568130    0.229551    0.039068
   6 C     6.0000    0    12.011    4.574252   -0.129191    0.104916
   7 C     6.0000    0    12.011   -5.694031    2.598916   -0.343224
   8 C     6.0000    0    12.011   -5.857221   -2.044632   -0.394516
   9 C     6.0000    0    12.011    5.645003   -2.512209   -0.332234
  10 C     6.0000    0    12.011    5.923833    2.122298   -0.259580
  11 H     1.0000    0     1.008    2.596107   -0.135537    5.006320
  12 H     1.0000    0     1.008   -2.679867    0.023381    4.959419
  13 C     6.0000    0    12.011   -8.356795   -1.906507   -1.243589
  14 C     6.0000    0    12.011   -9.517811    0.423250   -1.637801
  15 C     6.0000    0    12.011   -8.196187    2.656759   -1.191364
  16 C     6.0000    0    12.011    8.151140   -2.608320   -1.165224
  17 C     6.0000    0    12.011    9.530450   -0.399166   -1.548823
  18 C     6.0000    0    12.011    8.423987    1.947299   -1.100065
  19 C     6.0000    0    12.011   -4.238840    4.995596    0.144376
  20 C     6.0000    0    12.011   -4.569874   -4.549374    0.016691
  21 H     1.0000    0     1.008   -9.398313   -3.657236   -1.599162
  22 H     1.0000    0     1.008  -11.474264    0.498979   -2.300559
  23 H     1.0000    0     1.008   -9.112503    4.484775   -1.499578
  24 C     6.0000    0    12.011    4.130520   -4.891125    0.044533
  25 H     1.0000    0     1.008    9.507379    3.682878   -1.399595
  26 C     6.0000    0    12.011    4.702419    4.651785    0.198396
  27 H     1.0000    0     1.008    9.026568   -4.449205   -1.514256
  28 H     1.0000    0     1.008   11.487953   -0.511042   -2.203163
  29 H     1.0000    0     1.008   -2.890596   -4.730560   -1.201060
  30 H     1.0000    0     1.008   -5.859869   -6.120245   -0.406215
  31 H     1.0000    0     1.008   -3.917464   -4.753384    1.982958
  32 H     1.0000    0     1.008   -5.396113    6.663998   -0.288788
  33 H     1.0000    0     1.008   -2.512373    5.067622   -1.016206
  34 H     1.0000    0     1.008   -3.636513    5.118072    2.133864
  35 H     1.0000    0     1.008    3.178275    5.006342   -1.176296
  36 H     1.0000    0     1.008    6.095833    6.182134    0.028202
  37 H     1.0000    0     1.008    3.848593    4.756240    2.093156
  38 H     1.0000    0     1.008    3.220877   -4.968760    1.913588
  39 H     1.0000    0     1.008    5.350142   -6.559768   -0.153472
  40 H     1.0000    0     1.008    2.611670   -5.027262   -1.374298

--------------------------------
INTERNAL COORDINATES (ANGSTROEM)
--------------------------------
 N      0   0   0     0.000000000000     0.00000000     0.00000000
 C      1   0   0     1.360225470309     0.00000000     0.00000000
 N      2   1   0     1.361312863023   102.32292136     0.00000000
 C      3   2   1     1.390599795775   112.78281741     0.28275676
 C      4   3   2     1.353312646072   106.04237934   359.68294112
 C      1   2   3     1.432898143536   123.15855080   180.06737834
 C      3   2   1     1.432062847615   122.85521350   177.65076526
 C      6   1   2     1.402837929777   118.75446428   271.30050745
 C      6   1   2     1.402235854139   118.77554775    91.12118457
 C      7   3   2     1.401708873752   118.80576913   271.18359540
 C      7   3   2     1.402412231831   118.79717498    90.67096458
 H      4   3   2     1.088888908506   122.56411678   180.44206296
 H      5   4   3     1.088851405727   131.39933969   180.56144309
 C      9   6   1     1.398857845923   117.88585677   180.29295615
 C     14   9   6     1.393167272545   120.75231950   359.89622627
 C     15  14   9     1.393511130343   120.25506921     0.06381407
 C     10   7   3     1.398453303992   117.90995949   179.36671799
 C     17  10   7     1.393054053180   120.81663054   359.91283274
 C     18  17  10     1.393208022759   120.19127428     0.11338475
 C      8   6   1     1.506009796371   120.71757499   359.85789219
 C      9   6   1     1.506072791003   120.77176278   359.61506936
 H     14   9   6     1.094289593516   119.15906597   179.84673186
 H     15  14   9     1.093835116958   119.85669583   180.05526992
 H     16  15  14     1.094293718068   120.13968944   180.08821785
 C     10   7   3     1.505586372924   121.01022553     0.30457764
 H     19  18  17     1.094219238080   120.21076911   179.94649535
 C     11   7   3     1.506055319725   120.95674430   359.77466213
 H     17  10   7     1.094393551360   119.14332312   179.86014242
 H     18  17  10     1.093810365446   119.79561003   180.07537860
 H     21   9   6     1.101873358359   110.90819607   300.26627853
 H     21   9   6     1.098673108930   110.81797724   179.78217659
 H     21   9   6     1.101586585313   111.37555602    59.22552331
 H     20   8   6     1.098661136884   110.85349509   178.84883148
 H     20   8   6     1.101505892085   110.95963366    58.14905446
 H     20   8   6     1.101891888511   111.17004496   299.31725307
 H     27  11   7     1.102227328237   111.04627093   293.72156644
 H     27  11   7     1.098923760694   110.72066102   173.56560852
 H     27  11   7     1.101152253739   111.54512440    52.96281713
 H     25  10   7     1.100744758569   112.51806277   308.12435901
 H     25  10   7     1.098734443921   110.28321001   187.19679269
 H     25  10   7     1.102229327845   110.64629346    67.63293133

---------------------------
INTERNAL COORDINATES (A.U.)
---------------------------
 N      0   0   0     0.000000000000     0.00000000     0.00000000
 C      1   0   0     2.570453619268     0.00000000     0.00000000
 N      2   1   0     2.572508493699   102.32292136     0.00000000
 C      3   2   1     2.627852775902   112.78281741     0.28275676
 C      4   3   2     2.557390274648   106.04237934   359.68294112
 C      1   2   3     2.707785069087   123.15855080   180.06737834
 C      3   2   1     2.706206588556   122.85521350   177.65076526
 C      6   1   2     2.650979497556   118.75446428   271.30050745
 C      6   1   2     2.649841739488   118.77554775    91.12118457
 C      7   3   2     2.648845890879   118.80576913   271.18359540
 C      7   3   2     2.650175045022   118.79717498    90.67096458
 H      4   3   2     2.057701827341   122.56411678   180.44206296
 H      5   4   3     2.057630957360   131.39933969   180.56144309
 C      9   6   1     2.643458229081   117.88585677   180.29295615
 C     14   9   6     2.632704603853   120.75231950   359.89622627
 C     15  14   9     2.633354400920   120.25506921     0.06381407
 C     10   7   3     2.642693755623   117.90995949   179.36671799
 C     17  10   7     2.632490650260   120.81663054   359.91283274
 C     18  17  10     2.632781610597   120.19127428     0.11338475
 C      8   6   1     2.845946070143   120.71757499   359.85789219
 C      9   6   1     2.846065112746   120.77176278   359.61506936
 H     14   9   6     2.067907642946   119.15906597   179.84673186
 H     15  14   9     2.067048806716   119.85669583   180.05526992
 H     16  15  14     2.067915437220   120.13968944   180.08821785
 C     10   7   3     2.845145915791   121.01022553     0.30457764
 H     19  18  17     2.067774690440   120.21076911   179.94649535
 C     11   7   3     2.846032096816   120.95674430   359.77466213
 H     17  10   7     2.068104094800   119.14332312   179.86014242
 H     18  17  10     2.067002033137   119.79561003   180.07537860
 H     21   9   6     2.082238881562   110.90819607   300.26627853
 H     21   9   6     2.076191286581   110.81797724   179.78217659
 H     21   9   6     2.081696959044   111.37555602    59.22552331
 H     20   8   6     2.076168662694   110.85349509   178.84883148
 H     20   8   6     2.081544470941   110.95963366    58.14905446
 H     20   8   6     2.082273898475   111.17004496   299.31725307
 H     27  11   7     2.082907787692   111.04627093   293.72156644
 H     27  11   7     2.076664949771   110.72066102   173.56560852
 H     27  11   7     2.080876191317   111.54512440    52.96281713
 H     25  10   7     2.080106137044   112.51806277   308.12435901
 H     25  10   7     2.076307192918   110.28321001   187.19679269
 H     25  10   7     2.082911566403   110.64629346    67.63293133

---------------------
BASIS SET INFORMATION
---------------------
There are 3 groups of distinct atoms

 Group   1 Type N   : 7s4p1d contracted to 3s2p1d pattern {511/31/1}
 Group   2 Type C   : 7s4p1d contracted to 3s2p1d pattern {511/31/1}
 Group   3 Type H   : 4s1p contracted to 2s1p pattern {31/1}

Atom   0N    basis set group =>   1
Atom   1C    basis set group =>   2
Atom   2N    basis set group =>   1
Atom   3C    basis set group =>   2
Atom   4C    basis set group =>   2
Atom   5C    basis set group =>   2
Atom   6C    basis set group =>   2
Atom   7C    basis set group =>   2
Atom   8C    basis set group =>   2
Atom   9C    basis set group =>   2
Atom  10C    basis set group =>   2
Atom  11H    basis set group =>   3
Atom  12H    basis set group =>   3
Atom  13C    basis set group =>   2
Atom  14C    basis set group =>   2
Atom  15C    basis set group =>   2
Atom  16C    basis set group =>   2
Atom  17C    basis set group =>   2
Atom  18C    basis set group =>   2
Atom  19C    basis set group =>   2
Atom  20C    basis set group =>   2
Atom  21H    basis set group =>   3
Atom  22H    basis set group =>   3
Atom  23H    basis set group =>   3
Atom  24C    basis set group =>   2
Atom  25H    basis set group =>   3
Atom  26C    basis set group =>   2
Atom  27H    basis set group =>   3
Atom  28H    basis set group =>   3
Atom  29H    basis set group =>   3
Atom  30H    basis set group =>   3
Atom  31H    basis set group =>   3
Atom  32H    basis set group =>   3
Atom  33H    basis set group =>   3
Atom  34H    basis set group =>   3
Atom  35H    basis set group =>   3
Atom  36H    basis set group =>   3
Atom  37H    basis set group =>   3
Atom  38H    basis set group =>   3
Atom  39H    basis set group =>   3
Atom  40H    basis set group =>   3
---------------------------------
AUXILIARY/J BASIS SET INFORMATION
---------------------------------
There are 3 groups of distinct atoms

 Group   1 Type N   : 12s5p4d2f1g contracted to 6s4p3d1f1g pattern {711111/2111/211/2/1}
 Group   2 Type C   : 12s5p4d2f1g contracted to 6s4p3d1f1g pattern {711111/2111/211/2/1}
 Group   3 Type H   : 5s2p1d contracted to 3s1p1d pattern {311/2/1}

Atom   0N    basis set group =>   1
Atom   1C    basis set group =>   2
Atom   2N    basis set group =>   1
Atom   3C    basis set group =>   2
Atom   4C    basis set group =>   2
Atom   5C    basis set group =>   2
Atom   6C    basis set group =>   2
Atom   7C    basis set group =>   2
Atom   8C    basis set group =>   2
Atom   9C    basis set group =>   2
Atom  10C    basis set group =>   2
Atom  11H    basis set group =>   3
Atom  12H    basis set group =>   3
Atom  13C    basis set group =>   2
Atom  14C    basis set group =>   2
Atom  15C    basis set group =>   2
Atom  16C    basis set group =>   2
Atom  17C    basis set group =>   2
Atom  18C    basis set group =>   2
Atom  19C    basis set group =>   2
Atom  20C    basis set group =>   2
Atom  21H    basis set group =>   3
Atom  22H    basis set group =>   3
Atom  23H    basis set group =>   3
Atom  24C    basis set group =>   2
Atom  25H    basis set group =>   3
Atom  26C    basis set group =>   2
Atom  27H    basis set group =>   3
Atom  28H    basis set group =>   3
Atom  29H    basis set group =>   3
Atom  30H    basis set group =>   3
Atom  31H    basis set group =>   3
Atom  32H    basis set group =>   3
Atom  33H    basis set group =>   3
Atom  34H    basis set group =>   3
Atom  35H    basis set group =>   3
Atom  36H    basis set group =>   3
Atom  37H    basis set group =>   3
Atom  38H    basis set group =>   3
Atom  39H    basis set group =>   3
Atom  40H    basis set group =>   3
------------------------------------------------------------------------------
                           ORCA GTO INTEGRAL CALCULATION
                           -- RI-GTO INTEGRALS CHOSEN --
------------------------------------------------------------------------------
------------------------------------------------------------------------------
                   ___                                                        
                  /   \      - P O W E R E D   B Y -                         
                 /     \                                                     
                 |  |  |   _    _      __       _____    __    __             
                 |  |  |  | |  | |    /  \     |  _  \  |  |  /  |          
                  \  \/   | |  | |   /    \    | | | |  |  | /  /          
                 / \  \   | |__| |  /  /\  \   | |_| |  |  |/  /          
                |  |  |   |  __  | /  /__\  \  |    /   |      \           
                |  |  |   | |  | | |   __   |  |    \   |  |\   \          
                \     /   | |  | | |  |  |  |  | |\  \  |  | \   \       
                 \___/    |_|  |_| |__|  |__|  |_| \__\ |__|  \__/        
                                                                              
                      - O R C A' S   B I G   F R I E N D -                    
                                      &                                       
                       - I N T E G R A L  F E E D E R -                       
                                                                              
 v1 FN, 2020, v2 2021                                                         
------------------------------------------------------------------------------


Reading SHARK input file 8_deprot_aq_3.SHARKINP.tmp ... ok
----------------------
SHARK INTEGRAL PACKAGE
----------------------

Number of atoms                             ...     41
Number of basis functions                   ...    394
Number of shells                            ...    186
Maximum angular momentum                    ...      2
Integral batch strategy                     ... SHARK/LIBINT Hybrid
RI-J (if used) integral strategy            ... SPLIT-RIJ (Revised 2003 algorithm where possible)
Printlevel                                  ...      1
Contraction scheme used                     ... SEGMENTED contraction
Coulomb Range Separation                    ... NOT USED
Exchange Range Separation                   ... Long Range
   Mu parameter                             ...  0.300000
   Scaling (regular/separated)              ...  0.157706  0.842294
Finite Nucleus Model                        ... NOT USED
Auxiliary Coulomb fitting basis             ... AVAILABLE
   # of basis functions in Aux-J            ...   1249
   # of shells in Aux-J                     ...    415
   Maximum angular momentum in Aux-J        ...      4
Auxiliary J/K fitting basis                 ... NOT available
Auxiliary Correlation fitting basis         ... NOT available
Auxiliary 'external' fitting basis          ... NOT available
Integral threshold                          ...     2.500000e-11
Primitive cut-off                           ...     2.500000e-12
Primitive pair pre-selection threshold      ...     2.500000e-12

Calculating pre-screening integrals         ... done (  0.1 sec) Dimension = 186
Organizing shell pair data                  ... done (  0.1 sec)
Shell pair information
Total number of shell pairs                 ...     17391
Shell pairs after pre-screening             ...     13197
Total number of primitive shell pairs       ...     62461
Primitive shell pairs kept                  ...     30416
          la=0 lb=0:   4172 shell pairs
          la=1 lb=0:   4923 shell pairs
          la=1 lb=1:   1491 shell pairs
          la=2 lb=0:   1544 shell pairs
          la=2 lb=1:    915 shell pairs
          la=2 lb=2:    152 shell pairs

Calculating one electron integrals          ... done (  0.1 sec)
Calculating RI/J V-Matrix + Cholesky decomp.... done (  0.1 sec)
Calculating Nuclear repulsion               ... done (  0.0 sec) ENN=   1591.667205440513 Eh

SHARK setup successfully completed in   0.6 seconds

Maximum memory used throughout the entire GTOINT-calculation: 79.8 MB
-------------------------------------------------------------------------------
                                 ORCA SCF
-------------------------------------------------------------------------------

------------
SCF SETTINGS
------------
Hamiltonian:
 Density Functional     Method          .... DFT(GTOs)
 Exchange Functional    Exchange        .... WB97X
 Correlation Functional Correlation     .... WB97X
 Gradients option       PostSCFGGA      .... off
 Hybrid DFT is turned on
   Fraction HF Exchange ScalHFX         ....  0.157706
   Scaling of DF-GGA-X  ScalDFX         ....  0.000000
   Scaling of DF-GGA-C  ScalDFC         ....  1.000000
   Scaling of DF-LDA-C  ScalLDAC        ....  1.000000
   Perturbative correction              ....  0.000000
   Density functional embedding theory  .... OFF
 Long-range corrected/Screened/Range-Separated Hybrid DFT is turned on
   Amount of maximum screened exact exchange              ....  0.842294
   Range separation parameter mu (erf(mu*r12)/r12)        ....  0.300000
 RI-approximation to the Coulomb term is turned on
   Number of AuxJ basis functions       .... 1249
   RIJ-COSX (HFX calculated with COS-X)).... on


General Settings:
 Integral files         IntName         .... 8_deprot_aq_3
 Hartree-Fock type      HFTyp           .... RHF
 Total Charge           Charge          ....    0
 Multiplicity           Mult            ....    1
 Number of Electrons    NEL             ....  148
 Basis Dimension        Dim             ....  394
 Nuclear Repulsion      ENuc            ....   1591.6672054405 Eh

Convergence Acceleration:
 DIIS                   CNVDIIS         .... on
   Start iteration      DIISMaxIt       ....     0
   Startup error        DIISStart       ....  0.200000
   # of expansion vecs  DIISMaxEq       ....     5
   Bias factor          DIISBfac        ....   1.050
   Max. coefficient     DIISMaxC        ....  10.000
 Trust-Rad. Augm. Hess. CNVTRAH         .... auto
   Auto Start mean grad. ratio tolernc. ....  1.125000
   Auto Start start iteration           ....    20
   Auto Start num. interpolation iter.  ....    10
   Max. Number of Micro iterations      ....    16
   Max. Number of Macro iterations      .... Maxiter - #DIIS iter
   Number of Davidson start vectors     ....     2
   Converg. threshold I  (grad. norm)   ....   1.000e-05
   Converg. threshold II (energy diff.) ....   1.000e-08
   Grad. Scal. Fac. for Micro threshold ....   0.100
   Minimum threshold for Micro iter.    ....   0.010
   NR start threshold (gradient norm)   ....   0.001
   Initial trust radius                 ....   0.400
   Minimum AH scaling param. (alpha)    ....   1.000
   Maximum AH scaling param. (alpha)    .... 1000.000
   Orbital update algorithm             .... Taylor
   White noise on init. David. guess    .... on
   Maximum white noise                  ....   0.010
   Quad. conv. algorithm                .... NR
 SOSCF                  CNVSOSCF        .... on
   Start iteration      SOSCFMaxIt      ....   150
   Startup grad/error   SOSCFStart      ....  0.001000
 Level Shifting         CNVShift        .... on
   Level shift para.    LevelShift      ....    0.2500
   Turn off err/grad.   ShiftErr        ....    0.0000
 Zerner damping         CNVZerner       .... off
 Static damping         CNVDamp         .... on
   Fraction old density DampFac         ....    0.8500
   Max. Damping (<1)    DampMax         ....    0.9800
   Min. Damping (>=0)   DampMin         ....    0.0000
   Turn off err/grad.   DampErr         ....    0.0300
 Fernandez-Rico         CNVRico         .... off

SCF Procedure:
 Maximum # iterations   MaxIter         ....   125
 SCF integral mode      SCFMode         .... Direct
   Integral package                     .... SHARK and LIBINT hybrid scheme
 Reset frequency        DirectResetFreq ....    20
 Integral Threshold     Thresh          ....  2.500e-11 Eh
 Primitive CutOff       TCut            ....  2.500e-12 Eh

Convergence Tolerance:
 Convergence Check Mode ConvCheckMode   .... Total+1el-Energy
 Convergence forced     ConvForced      .... 0
 Energy Change          TolE            ....  1.000e-08 Eh
 1-El. energy change                    ....  1.000e-05 Eh
 Orbital Gradient       TolG            ....  1.000e-05
 Orbital Rotation angle TolX            ....  1.000e-05
 DIIS Error             TolErr          ....  5.000e-07


Diagonalization of the overlap matrix:
Smallest eigenvalue                        ... 2.041e-04
Time for diagonalization                   ...    0.029 sec
Threshold for overlap eigenvalues          ... 1.000e-08
Number of eigenvalues below threshold      ... 0
Time for construction of square roots      ...    0.015 sec
Total time needed                          ...    0.045 sec

Time for model grid setup =    1.175 sec

------------------------------
INITIAL GUESS: MODEL POTENTIAL
------------------------------
Loading Hartree-Fock densities                     ... done
Calculating cut-offs                               ... done
Initializing the effective Hamiltonian             ... done
Setting up the integral package (SHARK)            ... done
Starting the Coulomb interaction                   ... done (   1.6 sec)
Reading the grid                                   ... done
Mapping shells                                     ... done
Starting the XC term evaluation                    ... done (   1.2 sec)
  promolecular density results
     # of electrons  =    148.006643070
     EX              =   -116.171850376
     EC              =     -4.929384373
     EX+EC           =   -121.101234749
Transforming the Hamiltonian                       ... done (   0.0 sec)
Diagonalizing the Hamiltonian                      ... done (   0.0 sec)
Back transforming the eigenvectors                 ... done (   0.0 sec)
Now organizing SCF variables                       ... done
                      ------------------
                      INITIAL GUESS DONE (   4.0 sec)
                      ------------------
-------------------
DFT GRID GENERATION
-------------------

General Integration Accuracy     IntAcc      ... 4.388
Radial Grid Type                 RadialGrid  ... OptM3 with GC (2021)
Angular Grid (max. ang.)         AngularGrid ... 4 (Lebedev-302)
Angular grid pruning method      GridPruning ... 4 (adaptive)
Weight generation scheme         WeightScheme... Becke
Basis function cutoff            BFCut       ... 1.0000e-11
Integration weight cutoff        WCut        ... 1.0000e-14
Angular grids for H and He will be reduced by one unit
Partially contracted basis set               ... off
Rotationally invariant grid construction     ... off

Total number of grid points                  ...   188713
Total number of batches                      ...     2971
Average number of points per batch           ...       63
Average number of grid points per atom       ...     4603
Time for grid setup =    4.031 sec

--------------------
COSX GRID GENERATION
--------------------

GRIDX 1
-------
General Integration Accuracy     IntAcc      ... 3.816
Radial Grid Type                 RadialGrid  ... OptM3 with GC (2021)
Angular Grid (max. ang.)         AngularGrid ... 1 (Lebedev-50)
Angular grid pruning method      GridPruning ... 4 (adaptive)
Weight generation scheme         WeightScheme... Becke
Basis function cutoff            BFCut       ... 1.0000e-11
Integration weight cutoff        WCut        ... 1.0000e-14
Angular grids for H and He will be reduced by one unit
Partially contracted basis set               ... on
Rotationally invariant grid construction     ... off

Total number of grid points                  ...    24031
Total number of batches                      ...      391
Average number of points per batch           ...       61
Average number of grid points per atom       ...      586
UseSFitting                                  ... on

GRIDX 2
-------
General Integration Accuracy     IntAcc      ... 4.020
Radial Grid Type                 RadialGrid  ... OptM3 with GC (2021)
Angular Grid (max. ang.)         AngularGrid ... 2 (Lebedev-110)
Angular grid pruning method      GridPruning ... 4 (adaptive)
Weight generation scheme         WeightScheme... Becke
Basis function cutoff            BFCut       ... 1.0000e-11
Integration weight cutoff        WCut        ... 1.0000e-14
Angular grids for H and He will be reduced by one unit
Partially contracted basis set               ... on
Rotationally invariant grid construction     ... off

Total number of grid points                  ...    51437
Total number of batches                      ...      821
Average number of points per batch           ...       62
Average number of grid points per atom       ...     1255
UseSFitting                                  ... on

GRIDX 3
-------
General Integration Accuracy     IntAcc      ... 4.338
Radial Grid Type                 RadialGrid  ... OptM3 with GC (2021)
Angular Grid (max. ang.)         AngularGrid ... 3 (Lebedev-194)
Angular grid pruning method      GridPruning ... 4 (adaptive)
Weight generation scheme         WeightScheme... Becke
Basis function cutoff            BFCut       ... 1.0000e-11
Integration weight cutoff        WCut        ... 1.0000e-14
Angular grids for H and He will be reduced by one unit
Partially contracted basis set               ... on
Rotationally invariant grid construction     ... off

Total number of grid points                  ...   112059
Total number of batches                      ...     1774
Average number of points per batch           ...       63
Average number of grid points per atom       ...     2733
UseSFitting                                  ... on

Time for X-Grid setup             =    5.454 sec


--------------------
CPCM SOLVATION MODEL
--------------------
CPCM parameters:
  Epsilon                                         ...      80.4000
  Refrac                                          ...       1.3300
  Rsolv                                           ...       1.3000
  Surface type                                    ... GAUSSIAN VDW
  Epsilon function type                           ...         CPCM
Radii:
 Radius for N  used is    3.5149 Bohr (=   1.8600 Ang.)
 Radius for C  used is    3.8550 Bohr (=   2.0400 Ang.)
 Radius for H  used is    2.4944 Bohr (=   1.3200 Ang.)
Calculating surface                               ...        done! (  0.0s)
GEPOL surface points                              ...         2171
GEPOL Volume                                      ...    2397.9643
GEPOL Surface-area                                ...    1216.7573
Calculating surface distance matrix               ...        done! (  0.0s)
Performing Cholesky decomposition & store         ...        done! (  0.2s)
Overall time for CPCM initialization              ...                 0.2s
--------------
SCF ITERATIONS
--------------
ITER       Energy         Delta-E        Max-DP      RMS-DP      [F,P]     Damp
               ***  Starting incremental Fock matrix formation  ***
  0   -844.3661879292   0.000000000000 0.03131293  0.00064411  0.1476657 0.8500
  1   -844.4401125057  -0.073924576496 0.02821696  0.00059559  0.1197947 0.8500
                               ***Turning on DIIS***
  2   -844.4976249375  -0.057512431828 0.02364001  0.00049246  0.0928411 0.8500
  3   -844.5411926734  -0.043567735881 0.01925772  0.00037465  0.0711274 0.8500
  4   -844.5752000222  -0.034007348849 0.01577784  0.00029934  0.0569357 0.8500
  5   -844.6021981582  -0.026998135969 0.01310858  0.00024962  0.0472024 0.8500
  6   -844.6242047302  -0.022006571965 0.01099625  0.00021162  0.0397544 0.8500
  7   -844.6424275745  -0.018222844362 0.00928481  0.00018151  0.0336906 0.8500
  8   -844.6576625016  -0.015234927034 0.05271163  0.00103750  0.0285045 0.0000
  9   -844.7396956147  -0.082033113179 0.00136072  0.00002826  0.0011062 0.0000
                      *** Initiating the SOSCF procedure ***
                           *** Shutting down DIIS ***
                      *** Re-Reading the Fockian *** 
                      *** Removing any level shift *** 
ITER      Energy       Delta-E        Grad      Rot      Max-DP    RMS-DP
 10   -844.73972720  -0.0000315868  0.000423  0.000423  0.000564  0.000014
               *** Restarting incremental Fock matrix formation ***
 11   -844.73966780   0.0000594046  0.000168  0.000387  0.000491  0.000014
 12   -844.73966976  -0.0000019628  0.000143  0.000579  0.000339  0.000010
 13   -844.73967025  -0.0000004863  0.000047  0.000100  0.000163  0.000004
 14   -844.73967035  -0.0000000998  0.000006  0.000015  0.000031  0.000001
 15   -844.73967036  -0.0000000094  0.000005  0.000015  0.000015  0.000000
                  ***Gradient check signals convergence***
              ***Rediagonalizing the Fockian in SOSCF/NRSCF***

               *****************************************************
               *                     SUCCESS                       *
               *           SCF CONVERGED AFTER  16 CYCLES          *
               *****************************************************

Old exchange energy                            =    -38.151503825 Eh
New exchange energy                            =    -38.151555855 Eh
Exchange energy change after final integration =     -0.000052030 Eh
Total energy after final integration           =   -844.739722427 Eh
Final COS-X integration done in                =   184.090 sec

----------------
TOTAL SCF ENERGY
----------------

Total Energy       :         -844.73972243 Eh          -22986.53646 eV

Components:
Nuclear Repulsion  :         1591.66720544 Eh           43311.46657 eV
Electronic Energy  :        -2436.40692787 Eh          -66298.00303 eV
One Electron Energy:        -4303.05515602 Eh         -117092.08364 eV
Two Electron Energy:         1866.64822815 Eh           50794.08061 eV
Max COSX asymmetry :            0.00000338 Eh               0.00009 eV
CPCM Dielectric    :           -0.02079278 Eh              -0.56580 eV

Virial components:
Potential Energy   :        -1679.50813658 Eh          -45701.73983 eV
Kinetic Energy     :          834.76841415 Eh           22715.20337 eV
Virial Ratio       :            2.01194500


DFT components:
N(Alpha)           :       73.999986741813 electrons
N(Beta)            :       73.999986741813 electrons
N(Total)           :      147.999973483626 electrons
E(XC)              :      -85.853945109362 Eh       
DFET-embed. en.    :        0.000000000000 Eh       
CPCM Solvation Model Properties:
Surface-charge          :           -0.03005087
Charge-correction       :           -0.00037796 Eh              -0.01028 eV
Free-energy (cav+disp)  :  This term is not implemented in the current solvation scheme

---------------
SCF CONVERGENCE
---------------

  Last Energy change         ...   -4.1259e-08  Tolerance :   1.0000e-08
  Last MAX-Density change    ...    3.9968e-15  Tolerance :   1.0000e-07
  Last RMS-Density change    ...    3.7129e-17  Tolerance :   5.0000e-09
  Last Orbital Gradient      ...    9.6014e-07  Tolerance :   1.0000e-05
  Last Orbital Rotation      ...    2.6603e-06  Tolerance :   1.0000e-05

             **** THE GBW FILE WAS UPDATED (8_deprot_aq_3.gbw) ****
             **** DENSITY 8_deprot_aq_3.scfp WAS UPDATED ****
             **** ENERGY FILE WAS UPDATED (8_deprot_aq_3.en.tmp) ****
             **** THE GBW FILE WAS UPDATED (8_deprot_aq_3.gbw) ****
             **** DENSITY 8_deprot_aq_3.scfp WAS UPDATED ****
----------------
ORBITAL ENERGIES
----------------

  NO   OCC          E(Eh)            E(eV) 
   0   2.0000     -14.459256      -393.4564 
   1   2.0000     -14.459200      -393.4548 
   2   2.0000     -10.310892      -280.5736 
   3   2.0000     -10.310819      -280.5717 
   4   2.0000     -10.303796      -280.3806 
   5   2.0000     -10.303199      -280.3643 
   6   2.0000     -10.289080      -279.9801 
   7   2.0000     -10.289043      -279.9791 
   8   2.0000     -10.288955      -279.9767 
   9   2.0000     -10.288924      -279.9759 
  10   2.0000     -10.288893      -279.9750 
  11   2.0000     -10.278190      -279.6838 
  12   2.0000     -10.278164      -279.6831 
  13   2.0000     -10.274018      -279.5702 
  14   2.0000     -10.273984      -279.5693 
  15   2.0000     -10.273977      -279.5691 
  16   2.0000     -10.273919      -279.5675 
  17   2.0000     -10.269246      -279.4404 
  18   2.0000     -10.269197      -279.4391 
  19   2.0000     -10.269165      -279.4382 
  20   2.0000     -10.269002      -279.4338 
  21   2.0000      -1.159824       -31.5604 
  22   2.0000      -1.060226       -28.8502 
  23   2.0000      -0.997853       -27.1530 
  24   2.0000      -0.976853       -26.5815 
  25   2.0000      -0.913053       -24.8454 
  26   2.0000      -0.912679       -24.8353 
  27   2.0000      -0.907212       -24.6865 
  28   2.0000      -0.873197       -23.7609 
  29   2.0000      -0.869722       -23.6663 
  30   2.0000      -0.829189       -22.5634 
  31   2.0000      -0.811321       -22.0772 
  32   2.0000      -0.801183       -21.8013 
  33   2.0000      -0.800223       -21.7752 
  34   2.0000      -0.761675       -20.7262 
  35   2.0000      -0.737108       -20.0577 
  36   2.0000      -0.698506       -19.0073 
  37   2.0000      -0.696887       -18.9632 
  38   2.0000      -0.696070       -18.9410 
  39   2.0000      -0.678933       -18.4747 
  40   2.0000      -0.650489       -17.7007 
  41   2.0000      -0.617867       -16.8130 
  42   2.0000      -0.612014       -16.6537 
  43   2.0000      -0.598391       -16.2830 
  44   2.0000      -0.591811       -16.1040 
  45   2.0000      -0.562688       -15.3115 
  46   2.0000      -0.554820       -15.0974 
  47   2.0000      -0.551214       -14.9993 
  48   2.0000      -0.536845       -14.6083 
  49   2.0000      -0.535253       -14.5650 
  50   2.0000      -0.529249       -14.4016 
  51   2.0000      -0.525354       -14.2956 
  52   2.0000      -0.524346       -14.2682 
  53   2.0000      -0.521832       -14.1998 
  54   2.0000      -0.518432       -14.1073 
  55   2.0000      -0.513720       -13.9790 
  56   2.0000      -0.513612       -13.9761 
  57   2.0000      -0.508917       -13.8483 
  58   2.0000      -0.506337       -13.7781 
  59   2.0000      -0.478378       -13.0173 
  60   2.0000      -0.476215       -12.9585 
  61   2.0000      -0.462208       -12.5773 
  62   2.0000      -0.459356       -12.4997 
  63   2.0000      -0.456184       -12.4134 
  64   2.0000      -0.451644       -12.2899 
  65   2.0000      -0.445869       -12.1327 
  66   2.0000      -0.445057       -12.1106 
  67   2.0000      -0.390228       -10.6186 
  68   2.0000      -0.349266        -9.5040 
  69   2.0000      -0.343665        -9.3516 
  70   2.0000      -0.339170        -9.2293 
  71   2.0000      -0.337257        -9.1772 
  72   2.0000      -0.333476        -9.0743 
  73   2.0000      -0.333077        -9.0635 
  74   0.0000       0.061009         1.6601 
  75   0.0000       0.067529         1.8376 
  76   0.0000       0.071859         1.9554 
  77   0.0000       0.073624         2.0034 
  78   0.0000       0.106011         2.8847 
  79   0.0000       0.114824         3.1245 
  80   0.0000       0.141944         3.8625 
  81   0.0000       0.164738         4.4828 
  82   0.0000       0.166878         4.5410 
  83   0.0000       0.172774         4.7014 
  84   0.0000       0.186276         5.0688 
  85   0.0000       0.190474         5.1831 
  86   0.0000       0.194253         5.2859 
  87   0.0000       0.203323         5.5327 
  88   0.0000       0.204159         5.5554 
  89   0.0000       0.215842         5.8733 
  90   0.0000       0.224290         6.1033 
  91   0.0000       0.225385         6.1330 
  92   0.0000       0.236557         6.4370 
  93   0.0000       0.239998         6.5307 
  94   0.0000       0.246820         6.7163 
  95   0.0000       0.249265         6.7829 
  96   0.0000       0.252099         6.8600 
  97   0.0000       0.259709         7.0670 
  98   0.0000       0.260935         7.1004 
  99   0.0000       0.263651         7.1743 
 100   0.0000       0.285417         7.7666 
 101   0.0000       0.288170         7.8415 
 102   0.0000       0.298750         8.1294 
 103   0.0000       0.300416         8.1747 
 104   0.0000       0.314635         8.5617 
 105   0.0000       0.319938         8.7059 
 106   0.0000       0.331977         9.0336 
 107   0.0000       0.338624         9.2144 
 108   0.0000       0.357610         9.7311 
 109   0.0000       0.362083         9.8528 
 110   0.0000       0.365178         9.9370 
 111   0.0000       0.395075        10.7505 
 112   0.0000       0.398324        10.8389 
 113   0.0000       0.405350        11.0301 
 114   0.0000       0.407640        11.0924 
 115   0.0000       0.427401        11.6302 
 116   0.0000       0.428212        11.6523 
 117   0.0000       0.431668        11.7463 
 118   0.0000       0.438519        11.9327 
 119   0.0000       0.444015        12.0823 
 120   0.0000       0.445032        12.1099 
 121   0.0000       0.461476        12.5574 
 122   0.0000       0.465672        12.6716 
 123   0.0000       0.492001        13.3880 
 124   0.0000       0.498921        13.5763 
 125   0.0000       0.501680        13.6514 
 126   0.0000       0.503854        13.7106 
 127   0.0000       0.508625        13.8404 
 128   0.0000       0.523500        14.2452 
 129   0.0000       0.524571        14.2743 
 130   0.0000       0.528795        14.3893 
 131   0.0000       0.537058        14.6141 
 132   0.0000       0.539459        14.6794 
 133   0.0000       0.547970        14.9110 
 134   0.0000       0.550176        14.9710 
 135   0.0000       0.551385        15.0039 
 136   0.0000       0.565973        15.4009 
 137   0.0000       0.579031        15.7562 
 138   0.0000       0.585187        15.9238 
 139   0.0000       0.586644        15.9634 
 140   0.0000       0.591080        16.0841 
 141   0.0000       0.595545        16.2056 
 142   0.0000       0.597906        16.2699 
 143   0.0000       0.603730        16.4283 
 144   0.0000       0.607822        16.5397 
 145   0.0000       0.641863        17.4660 
 146   0.0000       0.646874        17.6023 
 147   0.0000       0.661379        17.9970 
 148   0.0000       0.666112        18.1258 
 149   0.0000       0.676258        18.4019 
 150   0.0000       0.678811        18.4714 
 151   0.0000       0.684869        18.6362 
 152   0.0000       0.692742        18.8505 
 153   0.0000       0.702518        19.1165 
 154   0.0000       0.707219        19.2444 
 155   0.0000       0.710549        19.3350 
 156   0.0000       0.718892        19.5620 
 157   0.0000       0.722322        19.6554 
 158   0.0000       0.726038        19.7565 
 159   0.0000       0.734512        19.9871 
 160   0.0000       0.748806        20.3761 
 161   0.0000       0.749224        20.3874 
 162   0.0000       0.751161        20.4401 
 163   0.0000       0.751890        20.4600 
 164   0.0000       0.761476        20.7208 
 165   0.0000       0.762909        20.7598 
 166   0.0000       0.766820        20.8662 
 167   0.0000       0.767186        20.8762 
 168   0.0000       0.777632        21.1604 
 169   0.0000       0.784657        21.3516 
 170   0.0000       0.788074        21.4446 
 171   0.0000       0.788576        21.4582 
 172   0.0000       0.790955        21.5230 
 173   0.0000       0.793898        21.6031 
 174   0.0000       0.795886        21.6572 
 175   0.0000       0.796634        21.6775 
 176   0.0000       0.796781        21.6815 
 177   0.0000       0.801398        21.8071 
 178   0.0000       0.810612        22.0579 
 179   0.0000       0.819362        22.2960 
 180   0.0000       0.825638        22.4667 
 181   0.0000       0.826891        22.5008 
 182   0.0000       0.834099        22.6970 
 183   0.0000       0.849855        23.1257 
 184   0.0000       0.854835        23.2612 
 185   0.0000       0.861504        23.4427 
 186   0.0000       0.863338        23.4926 
 187   0.0000       0.868638        23.6368 
 188   0.0000       0.878079        23.8937 
 189   0.0000       0.879933        23.9442 
 190   0.0000       0.881225        23.9793 
 191   0.0000       0.896591        24.3975 
 192   0.0000       0.899896        24.4874 
 193   0.0000       0.905060        24.6279 
 194   0.0000       0.916776        24.9467 
 195   0.0000       0.918729        24.9999 
 196   0.0000       0.927140        25.2288 
 197   0.0000       0.938721        25.5439 
 198   0.0000       0.942187        25.6382 
 199   0.0000       0.947184        25.7742 
 200   0.0000       0.949105        25.8264 
 201   0.0000       0.962024        26.1780 
 202   0.0000       0.986115        26.8336 
 203   0.0000       1.024328        27.8734 
 204   0.0000       1.026597        27.9351 
 205   0.0000       1.034133        28.1402 
 206   0.0000       1.040345        28.3092 
 207   0.0000       1.066997        29.0345 
 208   0.0000       1.087921        29.6038 
 209   0.0000       1.134164        30.8622 
 210   0.0000       1.145117        31.1602 
 211   0.0000       1.158929        31.5361 
 212   0.0000       1.215147        33.0658 
 213   0.0000       1.244859        33.8743 
 214   0.0000       1.255701        34.1694 
 215   0.0000       1.257347        34.2142 
 216   0.0000       1.266141        34.4534 
 217   0.0000       1.270995        34.5855 
 218   0.0000       1.272854        34.6361 
 219   0.0000       1.276939        34.7473 
 220   0.0000       1.287279        35.0287 
 221   0.0000       1.313024        35.7292 
 222   0.0000       1.317123        35.8407 
 223   0.0000       1.336315        36.3630 
 224   0.0000       1.341990        36.5174 
 225   0.0000       1.342724        36.5374 
 226   0.0000       1.346469        36.6393 
 227   0.0000       1.351682        36.7812 
 228   0.0000       1.355600        36.8878 
 229   0.0000       1.363965        37.1154 
 230   0.0000       1.369123        37.2557 
 231   0.0000       1.395952        37.9858 
 232   0.0000       1.397367        38.0243 
 233   0.0000       1.445479        39.3335 
 234   0.0000       1.459309        39.7098 
 235   0.0000       1.466151        39.8960 
 236   0.0000       1.492793        40.6210 
 237   0.0000       1.534141        41.7461 
 238   0.0000       1.567032        42.6411 
 239   0.0000       1.601194        43.5707 
 240   0.0000       1.604825        43.6695 
 241   0.0000       1.617032        44.0017 
 242   0.0000       1.630466        44.3672 
 243   0.0000       1.636228        44.5240 
 244   0.0000       1.637517        44.5591 
 245   0.0000       1.643265        44.7155 
 246   0.0000       1.653149        44.9845 
 247   0.0000       1.657944        45.1149 
 248   0.0000       1.660352        45.1805 
 249   0.0000       1.665788        45.3284 
 250   0.0000       1.674636        45.5692 
 251   0.0000       1.679875        45.7117 
 252   0.0000       1.699136        46.2358 
 253   0.0000       1.721804        46.8527 
 254   0.0000       1.735417        47.2231 
 255   0.0000       1.764214        48.0067 
 256   0.0000       1.766062        48.0570 
 257   0.0000       1.768810        48.1318 
 258   0.0000       1.799463        48.9659 
 259   0.0000       1.810791        49.2741 
 260   0.0000       1.812529        49.3214 
 261   0.0000       1.814589        49.3775 
 262   0.0000       1.815603        49.4051 
 263   0.0000       1.817637        49.4604 
 264   0.0000       1.822034        49.5801 
 265   0.0000       1.846331        50.2412 
 266   0.0000       1.846875        50.2560 
 267   0.0000       1.862773        50.6886 
 268   0.0000       1.863472        50.7076 
 269   0.0000       1.868725        50.8506 
 270   0.0000       1.875063        51.0230 
 271   0.0000       1.887007        51.3481 
 272   0.0000       1.895165        51.5701 
 273   0.0000       1.899213        51.6802 
 274   0.0000       1.904224        51.8166 
 275   0.0000       1.910196        51.9791 
 276   0.0000       1.919600        52.2350 
 277   0.0000       1.921953        52.2990 
 278   0.0000       1.927852        52.4595 
 279   0.0000       1.929620        52.5076 
 280   0.0000       1.931764        52.5660 
 281   0.0000       1.935575        52.6697 
 282   0.0000       1.937828        52.7310 
 283   0.0000       1.958981        53.3066 
 284   0.0000       1.970898        53.6309 
 285   0.0000       1.986481        54.0549 
 286   0.0000       2.002357        54.4869 
 287   0.0000       2.007926        54.6385 
 288   0.0000       2.014257        54.8107 
 289   0.0000       2.020945        54.9927 
 290   0.0000       2.036124        55.4058 
 291   0.0000       2.036793        55.4239 
 292   0.0000       2.039579        55.4998 
 293   0.0000       2.044292        55.6280 
 294   0.0000       2.062226        56.1160 
 295   0.0000       2.064161        56.1687 
 296   0.0000       2.078197        56.5506 
 297   0.0000       2.086387        56.7735 
 298   0.0000       2.103449        57.2377 
 299   0.0000       2.107654        57.3522 
 300   0.0000       2.126013        57.8518 
 301   0.0000       2.138756        58.1985 
 302   0.0000       2.139828        58.2277 
 303   0.0000       2.158806        58.7441 
 304   0.0000       2.160129        58.7801 
 305   0.0000       2.162828        58.8536 
 306   0.0000       2.171628        59.0930 
 307   0.0000       2.180176        59.3256 
 308   0.0000       2.203516        59.9607 
 309   0.0000       2.210994        60.1642 
 310   0.0000       2.212766        60.2124 
 311   0.0000       2.215539        60.2879 
 312   0.0000       2.235250        60.8242 
 313   0.0000       2.239213        60.9321 
 314   0.0000       2.256539        61.4035 
 315   0.0000       2.256816        61.4111 
 316   0.0000       2.262364        61.5621 
 317   0.0000       2.316642        63.0390 
 318   0.0000       2.318999        63.1032 
 319   0.0000       2.340487        63.6879 
 320   0.0000       2.352919        64.0262 
 321   0.0000       2.356042        64.1112 
 322   0.0000       2.358688        64.1832 
 323   0.0000       2.370845        64.5140 
 324   0.0000       2.385350        64.9087 
 325   0.0000       2.391694        65.0813 
 326   0.0000       2.395030        65.1721 
 327   0.0000       2.401781        65.3558 
 328   0.0000       2.403636        65.4063 
 329   0.0000       2.412185        65.6389 
 330   0.0000       2.420565        65.8669 
 331   0.0000       2.443953        66.5033 
 332   0.0000       2.482965        67.5649 
 333   0.0000       2.520533        68.5872 
 334   0.0000       2.534123        68.9570 
 335   0.0000       2.536709        69.0274 
 336   0.0000       2.538996        69.0896 
 337   0.0000       2.540898        69.1413 
 338   0.0000       2.555937        69.5506 
 339   0.0000       2.557783        69.6008 
 340   0.0000       2.559270        69.6413 
 341   0.0000       2.570492        69.9466 
 342   0.0000       2.584457        70.3266 
 343   0.0000       2.606868        70.9365 
 344   0.0000       2.641851        71.8884 
 345   0.0000       2.649978        72.1096 
 346   0.0000       2.657320        72.3094 
 347   0.0000       2.663047        72.4652 
 348   0.0000       2.683890        73.0324 
 349   0.0000       2.692137        73.2568 
 350   0.0000       2.703918        73.5774 
 351   0.0000       2.706832        73.6566 
 352   0.0000       2.729101        74.2626 
 353   0.0000       2.736319        74.4590 
 354   0.0000       2.738314        74.5133 
 355   0.0000       2.765472        75.2523 
 356   0.0000       2.789283        75.9002 
 357   0.0000       2.795072        76.0578 
 358   0.0000       2.829121        76.9843 
 359   0.0000       2.839389        77.2637 
 360   0.0000       2.846093        77.4461 
 361   0.0000       2.861512        77.8657 
 362   0.0000       2.863876        77.9300 
 363   0.0000       2.866279        77.9954 
 364   0.0000       2.898628        78.8757 
 365   0.0000       2.943026        80.0838 
 366   0.0000       2.957726        80.4838 
 367   0.0000       2.966161        80.7133 
 368   0.0000       2.976766        81.0019 
 369   0.0000       3.003899        81.7402 
 370   0.0000       3.005963        81.7964 
 371   0.0000       3.042156        82.7813 
 372   0.0000       3.051103        83.0247 
 373   0.0000       3.055913        83.1556 
 374   0.0000       3.062001        83.3213 
 375   0.0000       3.064429        83.3874 
 376   0.0000       3.073381        83.6309 
 377   0.0000       3.078553        83.7717 
 378   0.0000       3.085156        83.9514 
 379   0.0000       3.087905        84.0262 
 380   0.0000       3.116504        84.8044 
 381   0.0000       3.139359        85.4263 
 382   0.0000       3.156220        85.8851 
 383   0.0000       3.174193        86.3742 
 384   0.0000       3.177166        86.4551 
 385   0.0000       3.195116        86.9435 
 386   0.0000       3.215169        87.4892 
 387   0.0000       3.374294        91.8192 
 388   0.0000       3.379695        91.9662 
 389   0.0000       3.398963        92.4905 
 390   0.0000       3.419186        93.0408 
 391   0.0000       3.608991        98.2057 
 392   0.0000       3.704120       100.7942 
 393   0.0000       3.719745       101.2194 

                    ********************************
                    * MULLIKEN POPULATION ANALYSIS *
                    ********************************

-----------------------
MULLIKEN ATOMIC CHARGES
-----------------------
   0 N :   -0.212913
   1 C :   -0.138441
   2 N :   -0.214081
   3 C :    0.048302
   4 C :    0.043215
   5 C :    0.046901
   6 C :    0.048123
   7 C :   -0.100469
   8 C :   -0.100344
   9 C :   -0.099001
  10 C :   -0.100871
  11 H :    0.070969
[...]
 10:     84.47   0.000066    0.33  0.000245  (-0.001753 -0.012702  0.008955)
 11:     94.83   0.000079    0.40  0.000261  ( 0.016009  0.001248 -0.001685)
 12:    117.57   0.000258    1.30  0.000684  (-0.001486  0.021957 -0.014129)
 13:    132.58   0.000746    3.77  0.001757  ( 0.000093  0.005678 -0.041527)
 14:    137.20   0.000323    1.63  0.000735  ( 0.000545 -0.008316 -0.025790)
 15:    145.00   0.000250    1.26  0.000538  ( 0.008047  0.016597  0.014061)
 16:    151.78   0.000117    0.59  0.000240  ( 0.012767  0.007531 -0.004509)
 17:    196.77   0.002157   10.90  0.003421  (-0.058436 -0.002426 -0.000138)
 18:    209.62   0.000672    3.39  0.001000  ( 0.000498  0.000781 -0.031608)
 19:    236.61   0.000008    0.04  0.000011  (-0.001112 -0.002684 -0.001488)
 20:    238.01   0.000029    0.14  0.000037  (-0.002268 -0.005553  0.001209)
 21:    283.23   0.000829    4.19  0.000913  (-0.029962  0.003873 -0.000489)
 22:    306.27   0.003374   17.05  0.003438  ( 0.004463  0.058457  0.000647)
 23:    336.71   0.001861    9.40  0.001725  ( 0.000352  0.000813 -0.041518)
 24:    357.85   0.000670    3.39  0.000584  ( 0.000086  0.000469 -0.024171)
 25:    360.82   0.000443    2.24  0.000384  ( 0.000537 -0.000146 -0.019576)
 26:    398.97   0.000688    3.47  0.000538  (-0.022931  0.003436 -0.000354)
 27:    437.12   0.000028    0.14  0.000020  ( 0.004045 -0.001958 -0.000110)
 28:    484.91   0.000135    0.68  0.000087  (-0.000892 -0.009282 -0.000071)
 29:    494.22   0.000000    0.00  0.000000  (-0.000173 -0.000041  0.000464)
 30:    537.34   0.000037    0.19  0.000022  (-0.000720  0.004583  0.000451)
 31:    537.84   0.000015    0.07  0.000009  ( 0.000596 -0.002850  0.000155)
 32:    543.20   0.000099    0.50  0.000057  (-0.000030 -0.007558 -0.000080)
 33:    546.98   0.000003    0.01  0.000002  (-0.000168 -0.000320 -0.001227)
 34:    579.62   0.000312    1.57  0.000168  ( 0.000014 -0.000152  0.012950)
 35:    595.01   0.000049    0.25  0.000026  ( 0.000150  0.000127 -0.005050)
 36:    604.24   0.000031    0.16  0.000016  (-0.003730  0.001414  0.000133)
 37:    628.21   0.002085   10.53  0.001035  (-0.032124  0.001880 -0.000087)
 38:    685.05   0.000032    0.16  0.000015  (-0.000043 -0.003085 -0.002273)
 39:    687.33   0.002625   13.26  0.001192  ( 0.001523 -0.034486 -0.000345)
 40:    751.52   0.013867   70.08  0.005758  (-0.003078 -0.075819 -0.000365)
 41:    768.48   0.000063    0.32  0.000026  (-0.000050  0.000205  0.005059)
 42:    779.69   0.001084    5.48  0.000434  (-0.020787  0.001295  0.000021)
 43:    786.86   0.000313    1.58  0.000124  ( 0.000350 -0.000404 -0.011121)
 44:    795.73   0.001386    7.00  0.000544  (-0.023224  0.002037  0.000228)
 45:    809.49   0.018828   95.15  0.007258  ( 0.004465  0.002016 -0.085054)
 46:    810.52   0.003810   19.25  0.001467  (-0.036759 -0.004095 -0.009936)
 47:    885.86   0.000001    0.01  0.000000  (-0.000002  0.000670 -0.000153)
 48:    941.94   0.001175    5.94  0.000389  ( 0.000767 -0.019682  0.001183)
 49:    942.11   0.000608    3.07  0.000202  (-0.000177  0.014093  0.001706)
 50:    943.29   0.000253    1.28  0.000084  ( 0.000752  0.009099 -0.000679)
 51:    944.50   0.000322    1.63  0.000106  ( 0.000618  0.010033  0.002311)
 52:    963.92   0.009066   45.82  0.002935  ( 0.054136 -0.002076  0.000098)
 53:    973.15   0.000840    4.25  0.000269  ( 0.000045 -0.000090  0.016413)
 54:   1006.16   0.001594    8.06  0.000494  (-0.022038  0.000978  0.002791)
 55:   1007.09   0.000732    3.70  0.000227  ( 0.014437 -0.000943  0.004190)
 56:   1035.32   0.000059    0.30  0.000018  (-0.000197  0.001932  0.003759)
 57:   1035.83   0.000334    1.69  0.000101  (-0.000569  0.000058 -0.010020)
 58:   1056.58   0.000642    3.25  0.000190  (-0.002598  0.002605  0.013274)
 59:   1056.85   0.000098    0.50  0.000029  ( 0.001633 -0.004935 -0.001381)
 60:   1058.20   0.001990   10.06  0.000587  ( 0.006925  0.000041  0.023213)
 61:   1059.97   0.002737   13.83  0.000806  (-0.004741 -0.000620  0.027980)
 62:   1061.44   0.000413    2.09  0.000122  (-0.000446  0.011015 -0.000044)
 63:   1062.00   0.000398    2.01  0.000117  ( 0.001515 -0.010540 -0.001915)
 64:   1087.31   0.005664   28.62  0.001626  ( 0.000117  0.000566 -0.040315)
 65:   1097.20   0.000022    0.11  0.000006  ( 0.002376 -0.000656  0.000531)
 66:   1100.95   0.000085    0.43  0.000024  ( 0.000323 -0.000021 -0.004898)
 67:   1127.69   0.007597   38.39  0.002102  ( 0.045831 -0.001284  0.000308)
 68:   1139.78   0.000208    1.05  0.000057  ( 0.000917 -0.000172  0.007488)
 69:   1173.55   0.000524    2.65  0.000139  (-0.000029 -0.011784 -0.000641)
 70:   1173.57   0.000679    3.43  0.000181  (-0.000352  0.013435 -0.000226)
 71:   1267.05   0.009252   46.76  0.002279  (-0.047688  0.002109 -0.000253)
 72:   1279.19   0.000066    0.33  0.000016  ( 0.001316  0.003732 -0.000703)
 73:   1279.61   0.000115    0.58  0.000028  ( 0.001925  0.004898  0.000478)
 74:   1296.96   0.000017    0.09  0.000004  (-0.000374 -0.000115  0.001980)
 75:   1302.31   0.001288    6.51  0.000309  (-0.017548  0.000862 -0.000101)
 76:   1330.49   0.000094    0.47  0.000022  ( 0.001747  0.004327  0.000503)
 77:   1330.56   0.002797   14.13  0.000656  (-0.005435 -0.025026 -0.000148)
 78:   1336.87   0.002245   11.34  0.000524  ( 0.021899 -0.006665  0.000026)
 79:   1380.09   0.001090    5.51  0.000247  ( 0.000248 -0.000270 -0.015697)
 80:   1391.60   0.000046    0.23  0.000010  (-0.000289  0.001686 -0.002716)
 81:   1392.19   0.000085    0.43  0.000019  ( 0.003101  0.002705  0.001417)
 82:   1395.93   0.000062    0.31  0.000014  (-0.003676 -0.000444 -0.000431)
 83:   1399.69   0.001968    9.95  0.000439  (-0.020756  0.002721  0.000784)
 84:   1419.02   0.000571    2.89  0.000126  ( 0.000015 -0.000039 -0.011210)
 85:   1433.02   0.006637   33.54  0.001445  ( 0.037755  0.003645 -0.002569)
 86:   1441.25   0.002201   11.13  0.000477  ( 0.008574 -0.004443  0.019581)
 87:   1443.41   0.005436   27.47  0.001175  ( 0.007737  0.004822  0.033047)
 88:   1444.63   0.006032   30.49  0.001303  (-0.032348  0.013188  0.009098)
 89:   1444.96   0.003033   15.33  0.000655  (-0.001515  0.006695 -0.024655)
 90:   1450.33   0.001155    5.84  0.000248  ( 0.002168  0.008954  0.012790)
 91:   1451.09   0.002269   11.47  0.000488  ( 0.010560  0.017682 -0.007993)
 92:   1456.08   0.000103    0.52  0.000022  (-0.000673 -0.000613  0.004620)
 93:   1471.11   0.002208   11.16  0.000468  ( 0.021640 -0.000196 -0.000165)
 94:   1533.31   0.000997    5.04  0.000203  (-0.000914 -0.014013 -0.002410)
 95:   1533.56   0.009614   48.58  0.001956  (-0.001152 -0.044215 -0.000076)
 96:   1555.25   0.058154  293.89  0.011669  (-0.107901  0.005067 -0.000576)
 97:   1561.61   0.002342   11.83  0.000468  (-0.000787  0.000410 -0.021615)
 98:   1651.28   0.000355    1.80  0.000067  (-0.000112 -0.000208  0.008191)
 99:   1698.19   0.000078    0.40  0.000014  ( 0.003732  0.000683  0.000004)
100:   1699.89   0.000022    0.11  0.000004  (-0.000036  0.000057 -0.001993)
101:   1702.97   0.000065    0.33  0.000012  ( 0.000155 -0.002817 -0.002009)
102:   1703.43   0.005117   25.86  0.000937  (-0.000380 -0.030615 -0.000320)
103:   3065.65   0.010983   55.50  0.001118  ( 0.002961  0.033267 -0.001588)
104:   3066.21   0.001852    9.36  0.000189  (-0.003146  0.011299  0.007138)
105:   3066.47   0.000429    2.17  0.000044  (-0.002023 -0.006230 -0.000884)
106:   3066.96   0.003421   17.29  0.000348  (-0.018309  0.003307 -0.001388)
107:   3153.74   0.002207   11.15  0.000218  ( 0.002512 -0.000906  0.014534)
108:   3154.46   0.002345   11.85  0.000232  (-0.002310 -0.000081  0.015053)
109:   3155.20   0.000607    3.07  0.000060  (-0.004236 -0.002027 -0.006166)
110:   3155.57   0.000952    4.81  0.000094  (-0.003552 -0.002754  0.008600)
111:   3185.13   0.004029   20.36  0.000395  (-0.012924 -0.014578 -0.003899)
112:   3185.29   0.002069   10.46  0.000203  ( 0.008721  0.009995 -0.005174)
113:   3186.05   0.003683   18.61  0.000361  ( 0.014394 -0.012001  0.003081)
114:   3186.21   0.002581   13.04  0.000253  (-0.011883  0.009820  0.003895)
115:   3206.37   0.000001    0.00  0.000000  ( 0.000096 -0.000195  0.000121)
116:   3206.41   0.000000    0.00  0.000000  ( 0.000164  0.000028 -0.000138)
117:   3213.45   0.002900   14.65  0.000282  ( 0.000525  0.016739  0.001054)
118:   3213.50   0.002904   14.68  0.000282  ( 0.000523  0.016776 -0.000565)
119:   3227.53   0.003514   17.76  0.000340  ( 0.017890 -0.000916 -0.004340)
120:   3227.63   0.002528   12.78  0.000244  ( 0.014607 -0.000890  0.005503)
121:   3285.36   0.003149   15.91  0.000299  ( 0.017280 -0.000705  0.000171)
122:   3306.60   0.000682    3.44  0.000064  (-0.000022 -0.000074  0.008020)

* The epsilon (eps) is given for a Dirac delta lineshape.
** The dipole moment derivative (T) already includes vibrational overlap.

The first frequency considered to be a vibration is 6
The total number of vibrations considered is 117


--------------------------
THERMOCHEMISTRY AT 298.15K
--------------------------

Temperature         ... 298.15 K
Pressure            ... 1.00 atm
Total Mass          ... 276.38 AMU

Throughout the following assumptions are being made:
  (1) The electronic state is orbitally nondegenerate
  (2) There are no thermally accessible electronically excited states
  (3) Hindered rotations indicated by low frequency modes are not
      treated as such but are treated as vibrations and this may
      cause some error
  (4) All equations used are the standard statistical mechanics
      equations for an ideal gas
  (5) All vibrations are strictly harmonic

freq.      18.92  E(vib)   ...       0.57 
freq.      22.07  E(vib)   ...       0.56 
freq.      52.17  E(vib)   ...       0.52 
freq.      58.63  E(vib)   ...       0.51 
freq.      84.47  E(vib)   ...       0.48 
freq.      94.83  E(vib)   ...       0.47 
freq.     117.57  E(vib)   ...       0.44 
freq.     132.58  E(vib)   ...       0.42 
freq.     137.20  E(vib)   ...       0.42 
freq.     145.00  E(vib)   ...       0.41 
freq.     151.78  E(vib)   ...       0.40 
freq.     196.77  E(vib)   ...       0.36 
freq.     209.62  E(vib)   ...       0.34 
freq.     236.61  E(vib)   ...       0.32 
freq.     238.01  E(vib)   ...       0.32 
freq.     283.23  E(vib)   ...       0.28 
freq.     306.27  E(vib)   ...       0.26 
freq.     336.71  E(vib)   ...       0.24 
freq.     357.85  E(vib)   ...       0.22 
freq.     360.82  E(vib)   ...       0.22 
freq.     398.97  E(vib)   ...       0.19 
freq.     437.12  E(vib)   ...       0.17 
freq.     484.91  E(vib)   ...       0.15 
freq.     494.22  E(vib)   ...       0.14 
freq.     537.34  E(vib)   ...       0.12 
freq.     537.84  E(vib)   ...       0.12 
freq.     543.20  E(vib)   ...       0.12 
freq.     546.98  E(vib)   ...       0.12 
freq.     579.62  E(vib)   ...       0.11 
freq.     595.01  E(vib)   ...       0.10 
freq.     604.24  E(vib)   ...       0.10 
freq.     628.21  E(vib)   ...       0.09 
freq.     685.05  E(vib)   ...       0.07 
freq.     687.33  E(vib)   ...       0.07 
freq.     751.52  E(vib)   ...       0.06 
freq.     768.48  E(vib)   ...       0.06 
freq.     779.69  E(vib)   ...       0.05 
freq.     786.86  E(vib)   ...       0.05 
freq.     795.73  E(vib)   ...       0.05 
freq.     809.49  E(vib)   ...       0.05 
freq.     810.52  E(vib)   ...       0.05 
freq.     885.86  E(vib)   ...       0.04 
freq.     941.94  E(vib)   ...       0.03 
freq.     942.11  E(vib)   ...       0.03 
freq.     943.29  E(vib)   ...       0.03 
freq.     944.50  E(vib)   ...       0.03 
freq.     963.92  E(vib)   ...       0.03 
freq.     973.15  E(vib)   ...       0.03 
freq.    1006.16  E(vib)   ...       0.02 
freq.    1007.09  E(vib)   ...       0.02 
freq.    1035.32  E(vib)   ...       0.02 
freq.    1035.83  E(vib)   ...       0.02 
freq.    1056.58  E(vib)   ...       0.02 
freq.    1056.85  E(vib)   ...       0.02 
freq.    1058.20  E(vib)   ...       0.02 
freq.    1059.97  E(vib)   ...       0.02 
freq.    1061.44  E(vib)   ...       0.02 
freq.    1062.00  E(vib)   ...       0.02 
freq.    1087.31  E(vib)   ...       0.02 
freq.    1097.20  E(vib)   ...       0.02 
freq.    1100.95  E(vib)   ...       0.02 
freq.    1127.69  E(vib)   ...       0.01 
freq.    1139.78  E(vib)   ...       0.01 
freq.    1173.55  E(vib)   ...       0.01 
freq.    1173.57  E(vib)   ...       0.01 
freq.    1267.05  E(vib)   ...       0.01 
freq.    1279.19  E(vib)   ...       0.01 
freq.    1279.61  E(vib)   ...       0.01 
freq.    1296.96  E(vib)   ...       0.01 
freq.    1302.31  E(vib)   ...       0.01 
freq.    1330.49  E(vib)   ...       0.01 
freq.    1330.56  E(vib)   ...       0.01 
freq.    1336.87  E(vib)   ...       0.01 
freq.    1380.09  E(vib)   ...       0.01 
freq.    1391.60  E(vib)   ...       0.00 
freq.    1392.19  E(vib)   ...       0.00 
freq.    1395.93  E(vib)   ...       0.00 
freq.    1399.69  E(vib)   ...       0.00 
freq.    1419.02  E(vib)   ...       0.00 
freq.    1433.02  E(vib)   ...       0.00 
freq.    1441.25  E(vib)   ...       0.00 
freq.    1443.41  E(vib)   ...       0.00 
freq.    1444.63  E(vib)   ...       0.00 
freq.    1444.96  E(vib)   ...       0.00 
freq.    1450.33  E(vib)   ...       0.00 
freq.    1451.09  E(vib)   ...       0.00 
freq.    1456.08  E(vib)   ...       0.00 
freq.    1471.11  E(vib)   ...       0.00 
freq.    1533.31  E(vib)   ...       0.00 
freq.    1533.56  E(vib)   ...       0.00 
freq.    1555.25  E(vib)   ...       0.00 
freq.    1561.61  E(vib)   ...       0.00 
freq.    1651.28  E(vib)   ...       0.00 
freq.    1698.19  E(vib)   ...       0.00 
freq.    1699.89  E(vib)   ...       0.00 
freq.    1702.97  E(vib)   ...       0.00 
freq.    1703.43  E(vib)   ...       0.00 
freq.    3065.65  E(vib)   ...       0.00 
freq.    3066.21  E(vib)   ...       0.00 
freq.    3066.47  E(vib)   ...       0.00 
freq.    3066.96  E(vib)   ...       0.00 
freq.    3153.74  E(vib)   ...       0.00 
freq.    3154.46  E(vib)   ...       0.00 
freq.    3155.20  E(vib)   ...       0.00 
freq.    3155.57  E(vib)   ...       0.00 
freq.    3185.13  E(vib)   ...       0.00 
freq.    3185.29  E(vib)   ...       0.00 
freq.    3186.05  E(vib)   ...       0.00 
freq.    3186.21  E(vib)   ...       0.00 
freq.    3206.37  E(vib)   ...       0.00 
freq.    3206.41  E(vib)   ...       0.00 
freq.    3213.45  E(vib)   ...       0.00 
freq.    3213.50  E(vib)   ...       0.00 
freq.    3227.53  E(vib)   ...       0.00 
freq.    3227.63  E(vib)   ...       0.00 
freq.    3285.36  E(vib)   ...       0.00 
freq.    3306.60  E(vib)   ...       0.00 

------------
INNER ENERGY
------------

The inner energy is: U= E(el) + E(ZPE) + E(vib) + E(rot) + E(trans)
    E(el)   - is the total energy from the electronic structure calculation
              = E(kin-el) + E(nuc-el) + E(el-el) + E(nuc-nuc)
    E(ZPE)  - the the zero temperature vibrational energy from the frequency calculation
    E(vib)  - the the finite temperature correction to E(ZPE) due to population
              of excited vibrational states
    E(rot)  - is the rotational thermal energy
    E(trans)- is the translational thermal energy

Summary of contributions to the inner energy U:
Electronic energy                ...   -844.74956819 Eh
Zero point energy                ...      0.34566278 Eh     216.91 kcal/mol
Thermal vibrational correction   ...      0.01663283 Eh      10.44 kcal/mol
Thermal rotational correction    ...      0.00141627 Eh       0.89 kcal/mol
Thermal translational correction ...      0.00141627 Eh       0.89 kcal/mol
-----------------------------------------------------------------------
Total thermal energy                   -844.38444003 Eh


Summary of corrections to the electronic energy:
(perhaps to be used in another calculation)
Total thermal correction                  0.01946537 Eh      12.21 kcal/mol
Non-thermal (ZPE) correction              0.34566278 Eh     216.91 kcal/mol
-----------------------------------------------------------------------
Total correction                          0.36512815 Eh     229.12 kcal/mol


--------
ENTHALPY
--------

The enthalpy is H = U + kB*T
                kB is Boltzmann's constant
Total free energy                 ...   -844.38444003 Eh 
Thermal Enthalpy correction       ...      0.00094421 Eh       0.59 kcal/mol
-----------------------------------------------------------------------
Total Enthalpy                    ...   -844.38349582 Eh


Note: Only C1 symmetry has been detected, increase convergence thresholds 
      if your molecule has a higher symmetry. Symmetry factor of 1.0 is   
      used for the rotational entropy correction. 
 

Note: Rotational entropy computed according to Herzberg 
Infrared and Raman Spectra, Chapter V,1, Van Nostrand Reinhold, 1945 
Point Group:  C1, Symmetry Number:   1  
Rotational constants in cm-1:     0.023544     0.005967     0.005196 

Vibrational entropy computed according to the QRRHO of S. Grimme
Chem.Eur.J. 2012 18 9955


-------
ENTROPY
-------

The entropy contributions are T*S = T*(S(el)+S(vib)+S(rot)+S(trans))
     S(el)   - electronic entropy
     S(vib)  - vibrational entropy
     S(rot)  - rotational entropy
     S(trans)- translational entropy
The entropies will be listed as multiplied by the temperature to get
units of energy

Electronic entropy                ...      0.00000000 Eh      0.00 kcal/mol
Vibrational entropy               ...      0.02971651 Eh     18.65 kcal/mol
Rotational entropy                ...      0.01618157 Eh     10.15 kcal/mol
Translational entropy             ...      0.02031105 Eh     12.75 kcal/mol
-----------------------------------------------------------------------
Final entropy term                ...      0.06620912 Eh     41.55 kcal/mol

In case the symmetry of your molecule has not been determined correctly
or in case you have a reason to use a different symmetry number we print 
out the resulting rotational entropy values for sn=1,12 :
 --------------------------------------------------------
|  sn= 1 | S(rot)=       0.01618157 Eh     10.15 kcal/mol|
|  sn= 2 | S(rot)=       0.01552711 Eh      9.74 kcal/mol|
|  sn= 3 | S(rot)=       0.01514428 Eh      9.50 kcal/mol|
|  sn= 4 | S(rot)=       0.01487266 Eh      9.33 kcal/mol|
|  sn= 5 | S(rot)=       0.01466197 Eh      9.20 kcal/mol|
|  sn= 6 | S(rot)=       0.01448982 Eh      9.09 kcal/mol|
|  sn= 7 | S(rot)=       0.01434428 Eh      9.00 kcal/mol|
|  sn= 8 | S(rot)=       0.01421820 Eh      8.92 kcal/mol|
|  sn= 9 | S(rot)=       0.01410699 Eh      8.85 kcal/mol|
|  sn=10 | S(rot)=       0.01400751 Eh      8.79 kcal/mol|
|  sn=11 | S(rot)=       0.01391752 Eh      8.73 kcal/mol|
|  sn=12 | S(rot)=       0.01383537 Eh      8.68 kcal/mol|
 --------------------------------------------------------


-------------------
GIBBS FREE ENERGY
-------------------

The Gibbs free energy is G = H - T*S

Total enthalpy                    ...   -844.38349582 Eh 
Total entropy correction          ...     -0.06620912 Eh    -41.55 kcal/mol
-----------------------------------------------------------------------
Final Gibbs free energy         ...   -844.44970495 Eh

For completeness - the Gibbs free energy minus the electronic energy
G-E(el)                           ...      0.29986324 Eh    188.17 kcal/mol


Timings for individual modules:

Sum of individual times         ...    17793.699 sec (= 296.562 min)
GTO integral calculation        ...        7.636 sec (=   0.127 min)   0.0 %
SCF iterations                  ...     9704.089 sec (= 161.735 min)  54.5 %
SCF Gradient evaluation         ...     2744.617 sec (=  45.744 min)  15.4 %
Geometry relaxation             ...        1.408 sec (=   0.023 min)   0.0 %
Analytical frequency calculation...     5335.949 sec (=  88.932 min)  30.0 %
                             ****ORCA TERMINATED NORMALLY****
TOTAL RUN TIME: 0 days 4 hours 56 minutes 35 seconds 940 msec
