
                                 *****************
                                 * O   R   C   A *
                                 *****************

                                            #,                                       
                                            ###                                      
                                            ####                                     
                                            #####                                    
                                            ######                                   
                                           ########,                                 
                                     ,,################,,,,,                         
                               ,,#################################,,                 
                          ,,##########################################,,             
                       ,#########################################, ''#####,          
                    ,#############################################,,   '####,        
                  ,##################################################,,,,####,       
                ,###########''''           ''''###############################       
              ,#####''   ,,,,##########,,,,          '''####'''          '####       
            ,##' ,,,,###########################,,,                        '##       
           ' ,,###''''                  '''############,,,                           
         ,,##''                                '''############,,,,        ,,,,,,###''
      ,#''                                            '''#######################'''  
     '                                                          ''''####''''         
             ,#######,   #######,   ,#######,      ##                                
            ,#'     '#,  ##    ##  ,#'     '#,    #''#        ######   ,####,        
            ##       ##  ##   ,#'  ##            #'  '#       #        #'  '#        
            ##       ##  #######   ##           ,######,      #####,   #    #        
            '#,     ,#'  ##    ##  '#,     ,#' ,#      #,         ##   #,  ,#        
             '#######'   ##     ##  '#######'  #'      '#     #####' # '####'        



                  #######################################################
                  #                        -***-                        #
                  #          Department of theory and spectroscopy      #
                  #    Directorship and core code : Frank Neese         #
                  #        Max Planck Institute fuer Kohlenforschung    #
                  #                Kaiser Wilhelm Platz 1               #
                  #                 D-45470 Muelheim/Ruhr               #
                  #                      Germany                        #
                  #                                                     #
                  #                  All rights reserved                #
                  #                        -***-                        #
                  #######################################################


                         Program Version 5.0.4 -  RELEASE  -


 With contributions from (in alphabetic order):
   Daniel Aravena         : Magnetic Suceptibility
   Michael Atanasov       : Ab Initio Ligand Field Theory (pilot matlab implementation)
   Alexander A. Auer      : GIAO ZORA, VPT2 properties, NMR spectrum
   Ute Becker             : Parallelization
   Giovanni Bistoni       : ED, misc. LED, open-shell LED, HFLD
   Martin Brehm           : Molecular dynamics
   Dmytro Bykov           : SCF Hessian
   Vijay G. Chilkuri      : MRCI spin determinant printing, contributions to CSF-ICE
   Dipayan Datta          : RHF DLPNO-CCSD density
   Achintya Kumar Dutta   : EOM-CC, STEOM-CC
   Dmitry Ganyushin       : Spin-Orbit,Spin-Spin,Magnetic field MRCI
   Miquel Garcia          : C-PCM and meta-GGA Hessian, CC/C-PCM, Gaussian charge scheme
   Yang Guo               : DLPNO-NEVPT2, F12-NEVPT2, CIM, IAO-localization
   Andreas Hansen         : Spin unrestricted coupled pair/coupled cluster methods
   Benjamin Helmich-Paris : MC-RPA, TRAH-SCF, COSX integrals
   Lee Huntington         : MR-EOM, pCC
   Robert Izsak           : Overlap fitted RIJCOSX, COSX-SCS-MP3, EOM
   Marcus Kettner         : VPT2
   Christian Kollmar      : KDIIS, OOCD, Brueckner-CCSD(T), CCSD density, CASPT2, CASPT2-K
   Simone Kossmann        : Meta GGA functionals, TD-DFT gradient, OOMP2, MP2 Hessian
   Martin Krupicka        : Initial AUTO-CI
   Lucas Lang             : DCDCAS
   Marvin Lechner         : AUTO-CI (C++ implementation), FIC-MRCC
   Dagmar Lenk            : GEPOL surface, SMD
   Dimitrios Liakos       : Extrapolation schemes; Compound Job, initial MDCI parallelization
   Dimitrios Manganas     : Further ROCIS development; embedding schemes
   Dimitrios Pantazis     : SARC Basis sets
   Anastasios Papadopoulos: AUTO-CI, single reference methods and gradients
   Taras Petrenko         : DFT Hessian,TD-DFT gradient, ASA, ECA, R-Raman, ABS, FL, XAS/XES, NRVS
   Peter Pinski           : DLPNO-MP2, DLPNO-MP2 Gradient
   Christoph Reimann      : Effective Core Potentials
   Marius Retegan         : Local ZFS, SOC
   Christoph Riplinger    : Optimizer, TS searches, QM/MM, DLPNO-CCSD(T), (RO)-DLPNO pert. Triples
   Tobias Risthaus        : Range-separated hybrids, TD-DFT gradient, RPA, STAB
   Michael Roemelt        : Original ROCIS implementation
   Masaaki Saitow         : Open-shell DLPNO-CCSD energy and density
   Barbara Sandhoefer     : DKH picture change effects
   Avijit Sen             : IP-ROCIS
   Kantharuban Sivalingam : CASSCF convergence, NEVPT2, FIC-MRCI
   Bernardo de Souza      : ESD, SOC TD-DFT
   Georgi Stoychev        : AutoAux, RI-MP2 NMR, DLPNO-MP2 response
   Willem Van den Heuvel  : Paramagnetic NMR
   Boris Wezisla          : Elementary symmetry handling
   Frank Wennmohs         : Technical directorship


 We gratefully acknowledge several colleagues who have allowed us to
 interface, adapt or use parts of their codes:
   Stefan Grimme, W. Hujo, H. Kruse, P. Pracht,  : VdW corrections, initial TS optimization,
                  C. Bannwarth, S. Ehlert          DFT functionals, gCP, sTDA/sTD-DF
   Ed Valeev, F. Pavosevic, A. Kumar             : LibInt (2-el integral package), F12 methods
   Garnet Chan, S. Sharma, J. Yang, R. Olivares  : DMRG
   Ulf Ekstrom                                   : XCFun DFT Library
   Mihaly Kallay                                 : mrcc  (arbitrary order and MRCC methods)
   Jiri Pittner, Ondrej Demel                    : Mk-CCSD
   Frank Weinhold                                : gennbo (NPA and NBO analysis)
   Christopher J. Cramer and Donald G. Truhlar   : smd solvation model
   Lars Goerigk                                  : TD-DFT with DH, B97 family of functionals
   V. Asgeirsson, H. Jonsson                     : NEB implementation
   FAccTs GmbH                                   : IRC, NEB, NEB-TS, DLPNO-Multilevel, CI-OPT
                                                   MM, QMMM, 2- and 3-layer-ONIOM, Crystal-QMMM,
                                                   LR-CPCM, SF, NACMEs, symmetry and pop. for TD-DFT,
                                                   nearIR, NL-DFT gradient (VV10), updates on ESD,
                                                   ML-optimized integration grids
   S Lehtola, MJT Oliveira, MAL Marques          : LibXC Library
   Liviu Ungur et al                             : ANISO software


 Your calculation uses the libint2 library for the computation of 2-el integrals
 For citations please refer to: http://libint.valeyev.net

 Your ORCA version has been built with support for libXC version: 5.1.0
 For citations please refer to: https://tddft.org/programs/libxc/

 This ORCA versions uses:
   CBLAS   interface :  Fast vector & matrix operations
   LAPACKE interface :  Fast linear algebra routines
   SCALAPACK package :  Parallel linear algebra routines
   Shared memory     :  Shared parallel matrices
   BLAS/LAPACK       :  OpenBLAS 0.3.15  USE64BITINT DYNAMIC_ARCH NO_AFFINITY SkylakeX SINGLE_THREADED
        Core in use  :  SkylakeX
   Copyright (c) 2011-2014, The OpenBLAS Project




***************************************
The coordinates will be read from file: 8_deprot_aq_1.xyz
***************************************


Your calculation utilizes the atom-pairwise dispersion correction
based on tight binding partial charges (D4)
Cite in your paper:
E.Caldeweyher, C.Bannwarth, S.Grimme, J.Chem.Phys., (2017), 147, 034112.
E.Caldeweyher, S.Ehlert, A.Hansen, H.Neugebauer, S.Grimme, J.Chem.Phys., (2018), in progress.
   

XCFun DFT library Copyright 2009-2010 Ulf Ekstrom and contributors.
See http://admol.org/xcfun for more information.
This is free software; see the source code for copying conditions.
There is ABSOLUTELY NO WARRANTY; not even for MERCHANTABILITY or FITNESS FOR A PARTICULAR PURPOSE.
For details see the documentation.
Scientific users of this library should cite U. Ekstrom, L. Visscher, R. Bast, A. J. Thorvaldsen and K. Ruud;
J.Chem.Theor.Comp. 2010, DOI: 10.1021/ct100117s
XCFun Version 0.99 

================================================================================

----- Orbital basis set information -----
Your calculation utilizes the basis: def2-SVP
   F. Weigend and R. Ahlrichs, Phys. Chem. Chem. Phys. 7, 3297 (2005).

----- AuxJ basis set information -----
Your calculation utilizes the auxiliary basis: def2/J
   F. Weigend, Phys. Chem. Chem. Phys. 8, 1057 (2006).

================================================================================
                                        WARNINGS
                       Please study these warnings very carefully!
================================================================================

WARNING: Old DensityContainer found on disk!
         Will remove this file - 
         If you want to keep old densities, please start your calculation with a different basename. 


WARNING: Geometry Optimization
  ===> : Switching off AutoStart
         For restart on a previous wavefunction, please use MOREAD

INFO   : the flag for use of the SHARK integral package has been found!

================================================================================
                                       INPUT FILE
================================================================================
NAME = 8_deprot_aq_1.inp
|  1> # ORCA 5.0.4 - /users/bwb16179/postgrad/2024_03/DFT_Crest_Conformers/Opt/deprot/8_deprot_aq_1.inp # write input file
|  2> # Basic Mode
|  3> #
|  4> ! Opt Freq wB97X Def2-SVP D4 SlowConv TightSCF Defgrid2 Def2/J RIJCOSX CPCM(Water)
|  5> 
|  6> 
|  7> 
|  8> %maxcore 4500
|  9> 
| 10> %geom
| 11> Maxiter 150
| 12> END
| 13> 
| 14> * xyzfile 0 1 8_deprot_aq_1.xyz
| 15> 
| 16>                          ****END OF INPUT****
================================================================================

                       *****************************
                       * Geometry Optimization Run *
                       *****************************

Geometry optimization settings:
Update method            Update   .... BFGS
Choice of coordinates    CoordSys .... Z-matrix Internals
Initial Hessian          InHess   .... Almoef's Model

Convergence Tolerances:
Energy Change            TolE     ....  5.0000e-06 Eh
Max. Gradient            TolMAXG  ....  3.0000e-04 Eh/bohr
RMS Gradient             TolRMSG  ....  1.0000e-04 Eh/bohr
Max. Displacement        TolMAXD  ....  4.0000e-03 bohr
RMS Displacement         TolRMSD  ....  2.0000e-03 bohr
Strict Convergence                ....  False
------------------------------------------------------------------------------
                        ORCA OPTIMIZATION COORDINATE SETUP
------------------------------------------------------------------------------

The optimization will be done in new redundant internal coordinates
Making redundant internal coordinates   ...  (new redundants) done
Evaluating the initial hessian          ...  (Almloef) done
Evaluating the coordinates              ...  done
Calculating the B-matrix                .... done
Calculating the G-matrix                .... done
Diagonalizing the G-matrix              .... done
Small eigenvalue found = 3.397e-03
Small eigenvalue found = 6.295e-03
Small eigenvalue found = 8.354e-03
Small eigenvalue found = 1.320e-02
Small eigenvalue found = 1.760e-02
The first mode is                       ....   95
The number of degrees of freedom        ....  117

    -----------------------------------------------------------------
                    Redundant Internal Coordinates


    -----------------------------------------------------------------
         Definition                    Initial Value    Approx d2E/dq
    -----------------------------------------------------------------
      1. B(C   1,N   0)                  1.3606         0.623399   
      2. B(N   2,C   1)                  1.3606         0.623396   
      3. B(C   3,N   2)                  1.3900         0.559558   
      4. B(C   4,C   3)                  1.3534         0.714730   
      5. B(C   4,N   0)                  1.3900         0.559551   
      6. B(C   5,N   0)                  1.4332         0.477445   
      7. B(C   6,N   2)                  1.4332         0.477447   
      8. B(C   7,C   5)                  1.4023         0.597234   
      9. B(C   8,C   5)                  1.4027         0.596412   
     10. B(C   9,C   6)                  1.4023         0.597223   
     11. B(C  10,C   6)                  1.4026         0.596426   
     12. B(H  11,C   3)                  1.0887         0.361759   
     13. B(H  12,C   4)                  1.0887         0.361759   
     14. B(C  13,C   8)                  1.3985         0.605643   
     15. B(C  14,C  13)                  1.3935         0.616900   
     16. B(C  15,C  14)                  1.3929         0.618231   
     17. B(C  15,C   7)                  1.3991         0.604193   
     18. B(C  16,C   9)                  1.3991         0.604193   
     19. B(C  17,C  16)                  1.3929         0.618229   
     20. B(C  18,C  17)                  1.3935         0.616907   
     21. B(C  18,C  10)                  1.3985         0.605641   
     22. B(C  19,C   7)                  1.5058         0.408311   
     23. B(C  20,C   8)                  1.5057         0.408388   
     24. B(H  21,C  13)                  1.0943         0.354520   
     25. B(H  22,C  14)                  1.0938         0.355082   
     26. B(H  23,C  15)                  1.0943         0.354488   
     27. B(C  24,C   9)                  1.5058         0.408315   
     28. B(H  25,C  18)                  1.0943         0.354521   
     29. B(C  26,C  10)                  1.5057         0.408387   
     30. B(H  27,C  16)                  1.0943         0.354488   
     31. B(H  28,C  17)                  1.0938         0.355082   
     32. B(H  29,C  20)                  1.1016         0.345090   
     33. B(H  30,C  20)                  1.1017         0.344956   
     34. B(H  31,C  20)                  1.0987         0.348804   
     35. B(H  32,C  19)                  1.1013         0.345511   
     36. B(H  33,C  19)                  1.0987         0.348754   
     37. B(H  34,C  19)                  1.1019         0.344664   
     38. B(H  35,C  26)                  1.0987         0.348805   
     39. B(H  36,C  26)                  1.1016         0.345087   
     40. B(H  37,C  26)                  1.1017         0.344960   
     41. B(H  38,C  24)                  1.1019         0.344663   
     42. B(H  39,C  24)                  1.1013         0.345509   
     43. B(H  40,C  24)                  1.0987         0.348753   
     44. A(C   4,N   0,C   5)          123.5716         0.401579   
     45. A(C   1,N   0,C   5)          123.5091         0.409317   
     46. A(C   1,N   0,C   4)          112.9193         0.421031   
     47. A(N   0,C   1,N   2)          102.2263         0.429251   
     48. A(C   1,N   2,C   6)          123.5082         0.409317   
     49. A(C   1,N   2,C   3)          112.9193         0.421032   
     50. A(C   3,N   2,C   6)          123.5725         0.401580   
     51. A(C   4,C   3,H  11)          131.4159         0.361824   
     52. A(N   2,C   3,C   4)          105.9676         0.434309   
     53. A(N   2,C   3,H  11)          122.6164         0.344997   
     54. A(C   3,C   4,H  12)          131.4166         0.361824   
     55. A(N   0,C   4,H  12)          122.6158         0.344996   
     56. A(N   0,C   4,C   3)          105.9675         0.434308   
     57. A(C   7,C   5,C   8)          122.5978         0.428166   
     58. A(N   0,C   5,C   8)          118.6983         0.408756   
     59. A(N   0,C   5,C   7)          118.7039         0.408856   
     60. A(N   2,C   6,C  10)          118.6975         0.408758   
     61. A(N   2,C   6,C   9)          118.7050         0.408855   
     62. A(C   9,C   6,C  10)          122.5974         0.428166   
     63. A(C  15,C   7,C  19)          121.2855         0.401109   
     64. A(C   5,C   7,C  19)          120.9143         0.400291   
     65. A(C   5,C   7,C  15)          117.7944         0.429162   
     66. A(C   5,C   8,C  13)          117.8275         0.429241   
     67. A(C  13,C   8,C  20)          121.3577         0.401291   
     68. A(C   5,C   8,C  20)          120.8106         0.400208   
     69. A(C   6,C   9,C  16)          117.7945         0.429161   
     70. A(C   6,C   9,C  24)          120.9150         0.400291   
     71. A(C  16,C   9,C  24)          121.2848         0.401109   
     72. A(C   6,C  10,C  18)          117.8279         0.429242   
     73. A(C  18,C  10,C  26)          121.3583         0.401291   
     74. A(C   6,C  10,C  26)          120.8098         0.400209   
     75. A(C   8,C  13,C  14)          120.7200         0.431852   
     76. A(C  14,C  13,H  21)          120.1442         0.351680   
     77. A(C   8,C  13,H  21)          119.1358         0.350587   
     78. A(C  13,C  14,C  15)          120.3148         0.433452   
     79. A(C  15,C  14,H  22)          119.8626         0.351902   
     80. A(C  13,C  14,H  22)          119.8226         0.351774   
     81. A(C   7,C  15,C  14)          120.7452         0.431833   
     82. A(C  14,C  15,H  23)          120.1268         0.351802   
     83. A(C   7,C  15,H  23)          119.1278         0.350440   
     84. A(C   9,C  16,C  17)          120.7453         0.431833   
     85. A(C  17,C  16,H  27)          120.1271         0.351802   
     86. A(C   9,C  16,H  27)          119.1274         0.350440   
     87. A(C  16,C  17,C  18)          120.3144         0.433453   
     88. A(C  18,C  17,H  28)          119.8225         0.351774   
     89. A(C  16,C  17,H  28)          119.8630         0.351902   
     90. A(C  10,C  18,C  17)          120.7202         0.431852   
     91. A(C  17,C  18,H  25)          120.1440         0.351680   
     92. A(C  10,C  18,H  25)          119.1358         0.350587   
     93. A(H  33,C  19,H  34)          108.2491         0.287405   
     94. A(H  32,C  19,H  34)          106.7904         0.286986   
     95. A(H  32,C  19,H  33)          108.5045         0.287515   
     96. A(C   7,C  19,H  33)          110.7950         0.327369   
     97. A(C   7,C  19,H  32)          111.4820         0.326865   
     98. A(C   7,C  19,H  34)          110.8686         0.326733   
     99. A(H  30,C  20,H  31)          108.4404         0.287449   
    100. A(H  29,C  20,H  31)          108.2321         0.287467   
    101. A(C   8,C  20,H  31)          110.7427         0.327387   
    102. A(H  29,C  20,H  30)          106.8389         0.286969   
    103. A(C   8,C  20,H  30)          110.8966         0.326789   
    104. A(C   8,C  20,H  29)          111.5403         0.326810   
    105. A(H  39,C  24,H  40)          108.5038         0.287515   
    106. A(H  38,C  24,H  40)          108.2494         0.287405   
    107. A(C   9,C  24,H  40)          110.7947         0.327369   
    108. A(H  38,C  24,H  39)          106.7898         0.286986   
    109. A(C   9,C  24,H  39)          111.4817         0.326866   
    110. A(C   9,C  24,H  38)          110.8701         0.326734   
    111. A(C  10,C  26,H  36)          111.5380         0.326809   
    112. A(C  10,C  26,H  35)          110.7450         0.327387   
    113. A(H  36,C  26,H  37)          106.8388         0.286969   
    114. A(H  35,C  26,H  37)          108.4411         0.287450   
    115. A(C  10,C  26,H  37)          110.8963         0.326789   
    116. A(H  35,C  26,H  36)          108.2317         0.287466   
    117. D(N   2,C   1,N   0,C   5)    179.9290         0.028535   
    118. D(N   2,C   1,N   0,C   4)      0.0068         0.028535   
    119. D(C   6,N   2,C   1,N   0)    179.9116         0.028535   
    120. D(C   3,N   2,C   1,N   0)     -0.0176         0.028535   
    121. D(H  11,C   3,N   2,C   6)      0.0057         0.025003   
    122. D(C   4,C   3,N   2,C   1)      0.0221         0.025003   
    123. D(C   4,C   3,N   2,C   6)   -179.9071         0.025003   
    124. D(H  11,C   3,N   2,C   1)    179.9349         0.025003   
    125. D(H  12,C   4,C   3,N   2)   -179.9178         0.036108   
    126. D(N   0,C   4,C   3,H  11)   -179.9182         0.036108   
    127. D(H  12,C   4,N   0,C   5)     -0.0035         0.025003   
    128. D(N   0,C   4,C   3,N   2)     -0.0161         0.036108   
    129. D(H  12,C   4,N   0,C   1)    179.9186         0.025003   
    130. D(C   3,C   4,N   0,C   5)   -179.9160         0.025003   
    131. D(H  12,C   4,C   3,H  11)      0.1802         0.036108   
    132. D(C   3,C   4,N   0,C   1)      0.0061         0.025003   
    133. D(C   8,C   5,N   0,C   1)     94.6661         0.017978   
    134. D(C   8,C   5,N   0,C   4)    -85.4199         0.017978   
    135. D(C   7,C   5,N   0,C   4)     94.4726         0.017978   
    136. D(C   7,C   5,N   0,C   1)    -85.4413         0.017978   
    137. D(C  10,C   6,N   2,C   3)    -85.4148         0.017979   
    138. D(C  10,C   6,N   2,C   1)     94.6635         0.017979   
    139. D(C   9,C   6,N   2,C   3)     94.4750         0.017979   
    140. D(C   9,C   6,N   2,C   1)    -85.4467         0.017979   
    141. D(C  19,C   7,C   5,C   8)   -179.0170         0.024577   
    142. D(C  19,C   7,C   5,N   0)      1.0948         0.024577   
    143. D(C  15,C   7,C   5,C   8)      0.1207         0.024577   
    144. D(C  15,C   7,C   5,N   0)   -179.7674         0.024577   
    145. D(C  20,C   8,C   5,N   0)     -1.0079         0.024506   
    146. D(C  13,C   8,C   5,C   7)     -0.1675         0.024506   
    147. D(C  13,C   8,C   5,N   0)    179.7207         0.024506   
    148. D(C  20,C   8,C   5,C   7)    179.1040         0.024506   
    149. D(C  24,C   9,C   6,C  10)   -179.0172         0.024576   
    150. D(C  24,C   9,C   6,N   2)      1.0975         0.024576   
    151. D(C  16,C   9,C   6,C  10)      0.1202         0.024576   
    152. D(C  16,C   9,C   6,N   2)   -179.7650         0.024576   
    153. D(C  26,C  10,C   6,C   9)    179.1070         0.024507   
    154. D(C  18,C  10,C   6,C   9)     -0.1662         0.024507   
    155. D(C  26,C  10,C   6,N   2)     -1.0077         0.024507   
    156. D(C  18,C  10,C   6,N   2)    179.7190         0.024507   
    157. D(H  21,C  13,C   8,C  20)      0.7075         0.025313   
    158. D(H  21,C  13,C   8,C   5)    179.9747         0.025313   
    159. D(C  14,C  13,C   8,C  20)   -179.2108         0.025313   
    160. D(C  14,C  13,C   8,C   5)      0.0565         0.025313   
    161. D(H  22,C  14,C  13,H  21)      0.1991         0.026318   
    162. D(H  22,C  14,C  13,C   8)   -179.8835         0.026318   
    163. D(C  15,C  14,C  13,H  21)   -179.8212         0.026318   
    164. D(C  15,C  14,C  13,C   8)      0.0963         0.026318   
    165. D(H  23,C  15,C  14,H  22)     -0.0173         0.026439   
    166. D(C   7,C  15,C  14,H  22)    179.8346         0.026439   
    167. D(C   7,C  15,C  14,C  13)     -0.1452         0.026439   
    168. D(H  23,C  15,C   7,C  19)     -0.9741         0.025185   
    169. D(H  23,C  15,C   7,C   5)    179.8915         0.025185   
    170. D(H  23,C  15,C  14,C  13)   -179.9971         0.026439   
    171. D(C  14,C  15,C   7,C  19)    179.1726         0.025185   
    172. D(C  14,C  15,C   7,C   5)      0.0382         0.025185   
    173. D(H  27,C  16,C   9,C  24)     -0.9771         0.025185   
    174. D(H  27,C  16,C   9,C   6)    179.8888         0.025185   
    175. D(C  17,C  16,C   9,C  24)    179.1721         0.025185   
    176. D(C  17,C  16,C   9,C   6)      0.0380         0.025185   
    177. D(H  28,C  17,C  16,C   9)    179.8347         0.026439   
    178. D(C  18,C  17,C  16,H  27)   -179.9945         0.026439   
    179. D(C  18,C  17,C  16,C   9)     -0.1452         0.026439   
    180. D(H  28,C  17,C  16,H  27)     -0.0146         0.026439   
    181. D(H  25,C  18,C  17,H  28)      0.2001         0.026319   
    182. D(H  25,C  18,C  17,C  16)   -179.8200         0.026319   
    183. D(C  10,C  18,C  17,H  28)   -179.8829         0.026319   
    184. D(C  10,C  18,C  17,C  16)      0.0970         0.026319   
    185. D(H  25,C  18,C  10,C  26)      0.7039         0.025312   
    186. D(H  25,C  18,C  10,C   6)    179.9729         0.025312   
    187. D(C  17,C  18,C  10,C  26)   -179.2139         0.025312   
    188. D(C  17,C  18,C  10,C   6)      0.0551         0.025312   
    189. D(H  34,C  19,C   7,C  15)   -111.1266         0.012352   
    190. D(H  34,C  19,C   7,C   5)     67.9809         0.012352   
    191. D(H  33,C  19,C   7,C  15)      9.0897         0.012352   
    192. D(H  33,C  19,C   7,C   5)   -171.8028         0.012352   
    193. D(H  32,C  19,C   7,C  15)    130.0400         0.012352   
    194. D(H  32,C  19,C   7,C   5)    -50.8525         0.012352   
    195. D(H  31,C  20,C   8,C  13)      0.9992         0.012356   
    196. D(H  31,C  20,C   8,C   5)   -178.2463         0.012356   
    197. D(H  30,C  20,C   8,C  13)    121.4401         0.012356   
    198. D(H  30,C  20,C   8,C   5)    -57.8054         0.012356   
    199. D(H  29,C  20,C   8,C  13)   -119.6089         0.012356   
    200. D(H  29,C  20,C   8,C   5)     61.1457         0.012356   
    201. D(H  40,C  24,C   9,C  16)      9.0979         0.012352   
    202. D(H  40,C  24,C   9,C   6)   -171.7950         0.012352   
    203. D(H  39,C  24,C   9,C  16)    130.0469         0.012352   
    204. D(H  39,C  24,C   9,C   6)    -50.8460         0.012352   
    205. D(H  38,C  24,C   9,C  16)   -111.1196         0.012352   
    206. D(H  38,C  24,C   9,C   6)     67.9875         0.012352   
    207. D(H  37,C  26,C  10,C  18)    121.4518         0.012356   
    208. D(H  37,C  26,C  10,C   6)    -57.7955         0.012356   
    209. D(H  36,C  26,C  10,C  18)   -119.5990         0.012356   
    210. D(H  36,C  26,C  10,C   6)     61.1536         0.012356   
    211. D(H  35,C  26,C  10,C  18)      1.0086         0.012356   
    212. D(H  35,C  26,C  10,C   6)   -178.2388         0.012356   
    -----------------------------------------------------------------

Number of atoms                         .... 41
Number of degrees of freedom            .... 212

         *************************************************************
         *                GEOMETRY OPTIMIZATION CYCLE   1            *
         *************************************************************
---------------------------------
CARTESIAN COORDINATES (ANGSTROEM)
---------------------------------
  N     -1.057509    0.057119    0.466583
  C      0.000041    0.000121   -0.387582
  N      1.057607   -0.056464    0.466593
  C      0.675806   -0.035244    1.802980
  C     -0.675653    0.037089    1.802976
  C     -2.421567    0.131747    0.033118
  C      2.421630   -0.131663    0.033120
  C     -2.966334    1.389529   -0.262867
  C     -3.159555   -1.056063   -0.076078
  C      2.966206   -1.389764   -0.261883
  C      3.159804    1.055938   -0.077011
  H      1.394954   -0.074652    2.619464
  H     -1.394777    0.077231    2.619446
  C     -4.490495   -0.961552   -0.494885
  C     -5.056718    0.276266   -0.793101
  C     -4.300998    1.440779   -0.679525
  C      4.300857   -1.441546   -0.678516
  C      5.056755   -0.277239   -0.793022
  C      4.490721    0.960896   -0.495776
  C     -2.132766    2.638782   -0.153519
  C     -2.528043   -2.387581    0.232996
  H     -5.085893   -1.874918   -0.587885
  H     -6.099741    0.333350   -1.117580
  H     -4.748770    2.411216   -0.914453
  C      2.132463   -2.638811   -0.151555
  H      5.086251    1.874099   -0.589522
  C      2.528507    2.387783    0.231090
  H      4.748484   -2.412244   -0.912641
  H      6.099765   -0.334732   -1.117471
  H     -2.185382   -2.439725    1.278636
  H     -1.644063   -2.559982   -0.401504
  H     -3.241950   -3.205429    0.064029
  H     -1.624654    2.700503    0.821562
  H     -2.755209    3.535334   -0.279748
  H     -1.345406    2.654023   -0.924280
  H      3.242455    3.205436    0.061358
  H      2.186044    2.440777    1.276756
  H      1.644423    2.559756   -0.403376
  H      1.345161   -2.654624   -0.922365
  H      1.624258   -2.699637    0.823534
  H      2.754806   -3.535551   -0.276950

----------------------------
CARTESIAN COORDINATES (A.U.)
----------------------------
  NO LB      ZA    FRAG     MASS         X           Y           Z
   0 N     7.0000    0    14.007   -1.998402    0.107939    0.881714
   1 C     6.0000    0    12.011    0.000078    0.000228   -0.732424
   2 N     7.0000    0    14.007    1.998588   -0.106701    0.881732
   3 C     6.0000    0    12.011    1.277088   -0.066601    3.407138
   4 C     6.0000    0    12.011   -1.276799    0.070089    3.407131
   5 C     6.0000    0    12.011   -4.576098    0.248967    0.062584
   6 C     6.0000    0    12.011    4.576217   -0.248808    0.062587
   7 C     6.0000    0    12.011   -5.605560    2.625830   -0.496746
   8 C     6.0000    0    12.011   -5.970693   -1.995670   -0.143766
   9 C     6.0000    0    12.011    5.605316   -2.626273   -0.494887
  10 C     6.0000    0    12.011    5.971165    1.995433   -0.145530
  11 H     1.0000    0     1.008    2.636082   -0.141072    4.950069
  12 H     1.0000    0     1.008   -2.635747    0.145946    4.950035
  13 C     6.0000    0    12.011   -8.485805   -1.817071   -0.935198
  14 C     6.0000    0    12.011   -9.555812    0.522068   -1.498744
  15 C     6.0000    0    12.011   -8.127709    2.722678   -1.284116
  16 C     6.0000    0    12.011    8.127441   -2.724127   -1.282209
  17 C     6.0000    0    12.011    9.555882   -0.523906   -1.498595
  18 C     6.0000    0    12.011    8.486233    1.815830   -0.936881
  19 C     6.0000    0    12.011   -4.030343    4.986576   -0.290108
  20 C     6.0000    0    12.011   -4.777309   -4.511873    0.440298
  21 H     1.0000    0     1.008   -9.610945   -3.543081   -1.110941
  22 H     1.0000    0     1.008  -11.526839    0.629940   -2.111921
  23 H     1.0000    0     1.008   -8.973875    4.556539   -1.728065
  24 C     6.0000    0    12.011    4.029771   -4.986631   -0.286398
  25 H     1.0000    0     1.008    9.611621    3.541533   -1.114035
  26 C     6.0000    0    12.011    4.778186    4.512256    0.436697
  27 H     1.0000    0     1.008    8.973334   -4.558481   -1.724641
  28 H     1.0000    0     1.008   11.526885   -0.632552   -2.111714
  29 H     1.0000    0     1.008   -4.129773   -4.610412    2.416272
  30 H     1.0000    0     1.008   -3.106829   -4.837664   -0.758732
  31 H     1.0000    0     1.008   -6.126398   -6.057384    0.120997
  32 H     1.0000    0     1.008   -3.070151    5.103212    1.552527
  33 H     1.0000    0     1.008   -5.206590    6.680813   -0.528647
  34 H     1.0000    0     1.008   -2.542448    5.015376   -1.746636
  35 H     1.0000    0     1.008    6.127352    6.057397    0.115951
  36 H     1.0000    0     1.008    4.131025    4.612399    2.412719
  37 H     1.0000    0     1.008    3.107509    4.837238   -0.762270
  38 H     1.0000    0     1.008    2.541985   -5.016513   -1.743017
  39 H     1.0000    0     1.008    3.069403   -5.101575    1.556254
  40 H     1.0000    0     1.008    5.205830   -6.681222   -0.523360

--------------------------------
INTERNAL COORDINATES (ANGSTROEM)
--------------------------------
 N      0   0   0     0.000000000000     0.00000000     0.00000000
 C      1   0   0     1.360609543589     0.00000000     0.00000000
 N      2   1   0     1.360610828258   102.22630809     0.00000000
 C      3   2   1     1.390019131403   112.91931814     0.00000000
 C      4   3   2     1.353393244991   105.96760223     0.00000000
 C      1   2   3     1.433218582327   123.50906628   179.92897522
 C      3   2   1     1.433217368197   123.50817929   179.91162190
 C      6   1   2     1.402281521822   118.70385702   274.55866735
 C      6   1   2     1.402656186037   118.69826112    94.66611965
 C      7   3   2     1.402286167236   118.70500279   274.55325033
 C      7   3   2     1.402649967724   118.69752946    94.66345927
 H      4   3   2     1.088748453715   122.61641862   179.93486143
 H      5   4   3     1.088748646183   131.41663678   180.08221219
 C      9   6   1     1.398475371401   117.82753782   179.72065781
 C     14   9   6     1.393462070748   120.72000615     0.05645299
 C     15  14   9     1.392875498263   120.31478846     0.09625624
 C     10   7   3     1.399127705982   117.79449365   180.23496791
 C     17  10   7     1.392876336139   120.74533990     0.03802466
 C     18  17  10     1.393459151502   120.31444175   359.85484985
 C      8   6   1     1.505797630636   120.91429256     1.09483549
 C      9   6   1     1.505746117712   120.81061264   358.99209873
 H     14   9   6     1.094250736710   119.13577425   179.97469280
 H     15  14   9     1.093819842525   119.82259657   180.11646997
 H     16  15  14     1.094275337085   120.12683096   180.00292841
 C     10   7   3     1.505794923819   120.91497851     1.09753268
 H     19  18  17     1.094250210515   120.14398643   180.17999948
 C     11   7   3     1.505746957952   120.80976094   358.99229293
 H     17  10   7     1.094275842467   119.12742389   179.88883445
 H     18  17  10     1.093819863856   119.86301284   179.83473232
 H     21   9   6     1.101589858098   111.54025312    61.14566566
 H     21   9   6     1.101695491306   110.89663190   302.19464333
 H     21   9   6     1.098676151708   110.74269561   181.75371297
 H     20   8   6     1.101258095192   111.48203825   309.14747706
 H     20   8   6     1.098714887668   110.79498831   188.19716731
 H     20   8   6     1.101926296178   110.86856297    67.98086881
 H     27  11   7     1.098675281428   110.74504872   181.76121163
 H     27  11   7     1.101592405255   111.53799860    61.15362103
 H     27  11   7     1.101692362242   110.89628620   302.20446104
 H     25  10   7     1.101926658196   110.87007671    67.98748886
 H     25  10   7     1.101259173148   111.48170812   309.15397729
 H     25  10   7     1.098715791058   110.79471520   188.20498546

---------------------------
INTERNAL COORDINATES (A.U.)
---------------------------
 N      0   0   0     0.000000000000     0.00000000     0.00000000
 C      1   0   0     2.571179412583     0.00000000     0.00000000
 N      2   1   0     2.571181840256   102.22630809     0.00000000
 C      3   2   1     2.626755479263   112.91931814     0.00000000
 C      4   3   2     2.557542584532   105.96760223     0.00000000
 C      1   2   3     2.708390610645   123.50906628   179.92897522
 C      3   2   1     2.708388316272   123.50817929   179.91162190
 C      6   1   2     2.649928038902   118.70385702   274.55866735
 C      6   1   2     2.650636051660   118.69826112    94.66611965
 C      7   3   2     2.649936817462   118.70500279   274.55325033
 C      7   3   2     2.650624300752   118.69752946    94.66345927
 H      4   3   2     2.057436406252   122.61641862   179.93486143
 H      5   4   3     2.057436769964   131.41663678   180.08221219
 C      9   6   1     2.642735456982   117.82753782   179.72065781
 C     14   9   6     2.633261691721   120.72000615     0.05645299
 C     15  14   9     2.632153230366   120.31478846     0.09625624
 C     10   7   3     2.643968190687   117.79449365   180.23496791
 C     17  10   7     2.632154813723   120.74533990     0.03802466
 C     18  17  10     2.633256175145   120.31444175   359.85484985
 C      8   6   1     2.845545135010   120.91429256     1.09483549
 C      9   6   1     2.845447789691   120.81061264   358.99209873
 H     14   9   6     2.067834214224   119.13577425   179.97469280
 H     15  14   9     2.067019942221   119.82259657   180.11646997
 H     16  15  14     2.067880702194   120.12683096   180.00292841
 C     10   7   3     2.845540019866   120.91497851     1.09753268
 H     19  18  17     2.067833219858   120.14398643   180.17999948
 C     11   7   3     2.845449377514   120.80976094   358.99229293
 H     17  10   7     2.067881657229   119.12742389   179.88883445
 H     18  17  10     2.067019982531   119.86301284   179.83473232
 H     21   9   6     2.081703143711   111.54025312    61.14566566
 H     21   9   6     2.081902761543   110.89663190   302.19464333
 H     21   9   6     2.076197036599   110.74269561   181.75371297
 H     20   8   6     2.081076202677   111.48203825   309.14747706
 H     20   8   6     2.076270236955   110.79498831   188.19716731
 H     20   8   6     2.082338919543   110.86856297    67.98086881
 H     27  11   7     2.076195392009   110.74504872   181.76121163
 H     27  11   7     2.081707957139   111.53799860    61.15362103
 H     27  11   7     2.081896848470   110.89628620   302.20446104
 H     25  10   7     2.082339603658   110.87007671    67.98748886
 H     25  10   7     2.081078239719   111.48170812   309.15397729
 H     25  10   7     2.076271944113   110.79471520   188.20498546

---------------------
BASIS SET INFORMATION
---------------------
There are 3 groups of distinct atoms

 Group   1 Type N   : 7s4p1d contracted to 3s2p1d pattern {511/31/1}
 Group   2 Type C   : 7s4p1d contracted to 3s2p1d pattern {511/31/1}
 Group   3 Type H   : 4s1p contracted to 2s1p pattern {31/1}

Atom   0N    basis set group =>   1
Atom   1C    basis set group =>   2
Atom   2N    basis set group =>   1
Atom   3C    basis set group =>   2
Atom   4C    basis set group =>   2
Atom   5C    basis set group =>   2
Atom   6C    basis set group =>   2
Atom   7C    basis set group =>   2
Atom   8C    basis set group =>   2
Atom   9C    basis set group =>   2
Atom  10C    basis set group =>   2
Atom  11H    basis set group =>   3
Atom  12H    basis set group =>   3
Atom  13C    basis set group =>   2
Atom  14C    basis set group =>   2
Atom  15C    basis set group =>   2
Atom  16C    basis set group =>   2
Atom  17C    basis set group =>   2
Atom  18C    basis set group =>   2
Atom  19C    basis set group =>   2
Atom  20C    basis set group =>   2
Atom  21H    basis set group =>   3
Atom  22H    basis set group =>   3
Atom  23H    basis set group =>   3
Atom  24C    basis set group =>   2
Atom  25H    basis set group =>   3
Atom  26C    basis set group =>   2
Atom  27H    basis set group =>   3
Atom  28H    basis set group =>   3
Atom  29H    basis set group =>   3
Atom  30H    basis set group =>   3
Atom  31H    basis set group =>   3
Atom  32H    basis set group =>   3
Atom  33H    basis set group =>   3
Atom  34H    basis set group =>   3
Atom  35H    basis set group =>   3
Atom  36H    basis set group =>   3
Atom  37H    basis set group =>   3
Atom  38H    basis set group =>   3
Atom  39H    basis set group =>   3
Atom  40H    basis set group =>   3
---------------------------------
AUXILIARY/J BASIS SET INFORMATION
---------------------------------
There are 3 groups of distinct atoms

 Group   1 Type N   : 12s5p4d2f1g contracted to 6s4p3d1f1g pattern {711111/2111/211/2/1}
 Group   2 Type C   : 12s5p4d2f1g contracted to 6s4p3d1f1g pattern {711111/2111/211/2/1}
 Group   3 Type H   : 5s2p1d contracted to 3s1p1d pattern {311/2/1}

Atom   0N    basis set group =>   1
Atom   1C    basis set group =>   2
Atom   2N    basis set group =>   1
Atom   3C    basis set group =>   2
Atom   4C    basis set group =>   2
Atom   5C    basis set group =>   2
Atom   6C    basis set group =>   2
Atom   7C    basis set group =>   2
Atom   8C    basis set group =>   2
Atom   9C    basis set group =>   2
Atom  10C    basis set group =>   2
Atom  11H    basis set group =>   3
Atom  12H    basis set group =>   3
Atom  13C    basis set group =>   2
Atom  14C    basis set group =>   2
Atom  15C    basis set group =>   2
Atom  16C    basis set group =>   2
Atom  17C    basis set group =>   2
Atom  18C    basis set group =>   2
Atom  19C    basis set group =>   2
Atom  20C    basis set group =>   2
Atom  21H    basis set group =>   3
Atom  22H    basis set group =>   3
Atom  23H    basis set group =>   3
Atom  24C    basis set group =>   2
Atom  25H    basis set group =>   3
Atom  26C    basis set group =>   2
Atom  27H    basis set group =>   3
Atom  28H    basis set group =>   3
Atom  29H    basis set group =>   3
Atom  30H    basis set group =>   3
Atom  31H    basis set group =>   3
Atom  32H    basis set group =>   3
Atom  33H    basis set group =>   3
Atom  34H    basis set group =>   3
Atom  35H    basis set group =>   3
Atom  36H    basis set group =>   3
Atom  37H    basis set group =>   3
Atom  38H    basis set group =>   3
Atom  39H    basis set group =>   3
Atom  40H    basis set group =>   3
------------------------------------------------------------------------------
                           ORCA GTO INTEGRAL CALCULATION
                           -- RI-GTO INTEGRALS CHOSEN --
------------------------------------------------------------------------------
------------------------------------------------------------------------------
                   ___                                                        
                  /   \      - P O W E R E D   B Y -                         
                 /     \                                                     
                 |  |  |   _    _      __       _____    __    __             
                 |  |  |  | |  | |    /  \     |  _  \  |  |  /  |          
                  \  \/   | |  | |   /    \    | | | |  |  | /  /          
                 / \  \   | |__| |  /  /\  \   | |_| |  |  |/  /          
                |  |  |   |  __  | /  /__\  \  |    /   |      \           
                |  |  |   | |  | | |   __   |  |    \   |  |\   \          
                \     /   | |  | | |  |  |  |  | |\  \  |  | \   \       
                 \___/    |_|  |_| |__|  |__|  |_| \__\ |__|  \__/        
                                                                              
                      - O R C A' S   B I G   F R I E N D -                    
                                      &                                       
                       - I N T E G R A L  F E E D E R -                       
                                                                              
 v1 FN, 2020, v2 2021                                                         
------------------------------------------------------------------------------


Reading SHARK input file 8_deprot_aq_1.SHARKINP.tmp ... ok
----------------------
SHARK INTEGRAL PACKAGE
----------------------

Number of atoms                             ...     41
Number of basis functions                   ...    394
Number of shells                            ...    186
Maximum angular momentum                    ...      2
Integral batch strategy                     ... SHARK/LIBINT Hybrid
RI-J (if used) integral strategy            ... SPLIT-RIJ (Revised 2003 algorithm where possible)
Printlevel                                  ...      1
Contraction scheme used                     ... SEGMENTED contraction
Coulomb Range Separation                    ... NOT USED
Exchange Range Separation                   ... Long Range
   Mu parameter                             ...  0.300000
   Scaling (regular/separated)              ...  0.157706  0.842294
Finite Nucleus Model                        ... NOT USED
Auxiliary Coulomb fitting basis             ... AVAILABLE
   # of basis functions in Aux-J            ...   1249
   # of shells in Aux-J                     ...    415
   Maximum angular momentum in Aux-J        ...      4
Auxiliary J/K fitting basis                 ... NOT available
Auxiliary Correlation fitting basis         ... NOT available
Auxiliary 'external' fitting basis          ... NOT available
Integral threshold                          ...     2.500000e-11
Primitive cut-off                           ...     2.500000e-12
Primitive pair pre-selection threshold      ...     2.500000e-12

Calculating pre-screening integrals         ... done (  0.1 sec) Dimension = 186
Organizing shell pair data                  ... done (  0.1 sec)
Shell pair information
Total number of shell pairs                 ...     17391
Shell pairs after pre-screening             ...     13180
Total number of primitive shell pairs       ...     62461
Primitive shell pairs kept                  ...     30349
          la=0 lb=0:   4166 shell pairs
          la=1 lb=0:   4920 shell pairs
          la=1 lb=1:   1493 shell pairs
          la=2 lb=0:   1537 shell pairs
          la=2 lb=1:    912 shell pairs
          la=2 lb=2:    152 shell pairs

Calculating one electron integrals          ... done (  0.1 sec)
Calculating RI/J V-Matrix + Cholesky decomp.... done (  0.1 sec)
Calculating Nuclear repulsion               ... done (  0.0 sec) ENN=   1591.578476213094 Eh

SHARK setup successfully completed in   0.6 seconds

Maximum memory used throughout the entire GTOINT-calculation: 79.7 MB
-------------------------------------------------------------------------------
                                 ORCA SCF
-------------------------------------------------------------------------------

------------
SCF SETTINGS
------------
Hamiltonian:
 Density Functional     Method          .... DFT(GTOs)
 Exchange Functional    Exchange        .... WB97X
 Correlation Functional Correlation     .... WB97X
 Gradients option       PostSCFGGA      .... off
 Hybrid DFT is turned on
   Fraction HF Exchange ScalHFX         ....  0.157706
   Scaling of DF-GGA-X  ScalDFX         ....  0.000000
   Scaling of DF-GGA-C  ScalDFC         ....  1.000000
   Scaling of DF-LDA-C  ScalLDAC        ....  1.000000
   Perturbative correction              ....  0.000000
   Density functional embedding theory  .... OFF
 Long-range corrected/Screened/Range-Separated Hybrid DFT is turned on
   Amount of maximum screened exact exchange              ....  0.842294
   Range separation parameter mu (erf(mu*r12)/r12)        ....  0.300000
 RI-approximation to the Coulomb term is turned on
   Number of AuxJ basis functions       .... 1249
   RIJ-COSX (HFX calculated with COS-X)).... on


General Settings:
 Integral files         IntName         .... 8_deprot_aq_1
 Hartree-Fock type      HFTyp           .... RHF
 Total Charge           Charge          ....    0
 Multiplicity           Mult            ....    1
 Number of Electrons    NEL             ....  148
 Basis Dimension        Dim             ....  394
 Nuclear Repulsion      ENuc            ....   1591.5784762131 Eh

Convergence Acceleration:
 DIIS                   CNVDIIS         .... on
   Start iteration      DIISMaxIt       ....     0
   Startup error        DIISStart       ....  0.200000
   # of expansion vecs  DIISMaxEq       ....     5
   Bias factor          DIISBfac        ....   1.050
   Max. coefficient     DIISMaxC        ....  10.000
 Trust-Rad. Augm. Hess. CNVTRAH         .... auto
   Auto Start mean grad. ratio tolernc. ....  1.125000
   Auto Start start iteration           ....    20
   Auto Start num. interpolation iter.  ....    10
   Max. Number of Micro iterations      ....    16
   Max. Number of Macro iterations      .... Maxiter - #DIIS iter
   Number of Davidson start vectors     ....     2
   Converg. threshold I  (grad. norm)   ....   1.000e-05
   Converg. threshold II (energy diff.) ....   1.000e-08
   Grad. Scal. Fac. for Micro threshold ....   0.100
   Minimum threshold for Micro iter.    ....   0.010
   NR start threshold (gradient norm)   ....   0.001
   Initial trust radius                 ....   0.400
   Minimum AH scaling param. (alpha)    ....   1.000
   Maximum AH scaling param. (alpha)    .... 1000.000
   Orbital update algorithm             .... Taylor
   White noise on init. David. guess    .... on
   Maximum white noise                  ....   0.010
   Quad. conv. algorithm                .... NR
 SOSCF                  CNVSOSCF        .... on
   Start iteration      SOSCFMaxIt      ....   150
   Startup grad/error   SOSCFStart      ....  0.001000
 Level Shifting         CNVShift        .... on
   Level shift para.    LevelShift      ....    0.2500
   Turn off err/grad.   ShiftErr        ....    0.0000
 Zerner damping         CNVZerner       .... off
 Static damping         CNVDamp         .... on
   Fraction old density DampFac         ....    0.8500
   Max. Damping (<1)    DampMax         ....    0.9800
   Min. Damping (>=0)   DampMin         ....    0.0000
   Turn off err/grad.   DampErr         ....    0.0300
 Fernandez-Rico         CNVRico         .... off

SCF Procedure:
 Maximum # iterations   MaxIter         ....   125
 SCF integral mode      SCFMode         .... Direct
   Integral package                     .... SHARK and LIBINT hybrid scheme
 Reset frequency        DirectResetFreq ....    20
 Integral Threshold     Thresh          ....  2.500e-11 Eh
 Primitive CutOff       TCut            ....  2.500e-12 Eh

Convergence Tolerance:
 Convergence Check Mode ConvCheckMode   .... Total+1el-Energy
 Convergence forced     ConvForced      .... 0
 Energy Change          TolE            ....  1.000e-08 Eh
 1-El. energy change                    ....  1.000e-05 Eh
 Orbital Gradient       TolG            ....  1.000e-05
 Orbital Rotation angle TolX            ....  1.000e-05
 DIIS Error             TolErr          ....  5.000e-07


Diagonalization of the overlap matrix:
Smallest eigenvalue                        ... 2.051e-04
Time for diagonalization                   ...    0.027 sec
Threshold for overlap eigenvalues          ... 1.000e-08
Number of eigenvalues below threshold      ... 0
Time for construction of square roots      ...    0.035 sec
Total time needed                          ...    0.063 sec

Time for model grid setup =    1.167 sec

------------------------------
INITIAL GUESS: MODEL POTENTIAL
------------------------------
Loading Hartree-Fock densities                     ... done
Calculating cut-offs                               ... done
Initializing the effective Hamiltonian             ... done
Setting up the integral package (SHARK)            ... done
Starting the Coulomb interaction                   ... done (   1.6 sec)
Reading the grid                                   ... done
Mapping shells                                     ... done
Starting the XC term evaluation                    ... done (   1.2 sec)
  promolecular density results
     # of electrons  =    148.009104282
     EX              =   -116.172693577
     EC              =     -4.929754160
     EX+EC           =   -121.102447737
Transforming the Hamiltonian                       ... done (   0.0 sec)
Diagonalizing the Hamiltonian                      ... done (   0.0 sec)
Back transforming the eigenvectors                 ... done (   0.0 sec)
Now organizing SCF variables                       ... done
                      ------------------
                      INITIAL GUESS DONE (   4.0 sec)
                      ------------------
-------------------
DFT GRID GENERATION
-------------------

General Integration Accuracy     IntAcc      ... 4.388
Radial Grid Type                 RadialGrid  ... OptM3 with GC (2021)
Angular Grid (max. ang.)         AngularGrid ... 4 (Lebedev-302)
Angular grid pruning method      GridPruning ... 4 (adaptive)
Weight generation scheme         WeightScheme... Becke
Basis function cutoff            BFCut       ... 1.0000e-11
Integration weight cutoff        WCut        ... 1.0000e-14
Angular grids for H and He will be reduced by one unit
Partially contracted basis set               ... off
Rotationally invariant grid construction     ... off

Total number of grid points                  ...   188762
Total number of batches                      ...     2972
Average number of points per batch           ...       63
Average number of grid points per atom       ...     4604
Time for grid setup =    4.046 sec

--------------------
COSX GRID GENERATION
--------------------

GRIDX 1
-------
General Integration Accuracy     IntAcc      ... 3.816
Radial Grid Type                 RadialGrid  ... OptM3 with GC (2021)
Angular Grid (max. ang.)         AngularGrid ... 1 (Lebedev-50)
Angular grid pruning method      GridPruning ... 4 (adaptive)
Weight generation scheme         WeightScheme... Becke
Basis function cutoff            BFCut       ... 1.0000e-11
Integration weight cutoff        WCut        ... 1.0000e-14
Angular grids for H and He will be reduced by one unit
Partially contracted basis set               ... on
Rotationally invariant grid construction     ... off

Total number of grid points                  ...    24029
Total number of batches                      ...      392
Average number of points per batch           ...       61
Average number of grid points per atom       ...      586
UseSFitting                                  ... on

GRIDX 2
-------
General Integration Accuracy     IntAcc      ... 4.020
Radial Grid Type                 RadialGrid  ... OptM3 with GC (2021)
Angular Grid (max. ang.)         AngularGrid ... 2 (Lebedev-110)
Angular grid pruning method      GridPruning ... 4 (adaptive)
Weight generation scheme         WeightScheme... Becke
Basis function cutoff            BFCut       ... 1.0000e-11
Integration weight cutoff        WCut        ... 1.0000e-14
Angular grids for H and He will be reduced by one unit
Partially contracted basis set               ... on
Rotationally invariant grid construction     ... off

Total number of grid points                  ...    51428
Total number of batches                      ...      823
Average number of points per batch           ...       62
Average number of grid points per atom       ...     1254
UseSFitting                                  ... on

GRIDX 3
-------
General Integration Accuracy     IntAcc      ... 4.338
Radial Grid Type                 RadialGrid  ... OptM3 with GC (2021)
Angular Grid (max. ang.)         AngularGrid ... 3 (Lebedev-194)
Angular grid pruning method      GridPruning ... 4 (adaptive)
Weight generation scheme         WeightScheme... Becke
Basis function cutoff            BFCut       ... 1.0000e-11
Integration weight cutoff        WCut        ... 1.0000e-14
Angular grids for H and He will be reduced by one unit
Partially contracted basis set               ... on
Rotationally invariant grid construction     ... off

Total number of grid points                  ...   112053
Total number of batches                      ...     1775
Average number of points per batch           ...       63
Average number of grid points per atom       ...     2733
UseSFitting                                  ... on

Time for X-Grid setup             =    5.433 sec


--------------------
CPCM SOLVATION MODEL
--------------------
CPCM parameters:
  Epsilon                                         ...      80.4000
  Refrac                                          ...       1.3300
  Rsolv                                           ...       1.3000
  Surface type                                    ... GAUSSIAN VDW
  Epsilon function type                           ...         CPCM
Radii:
 Radius for N  used is    3.5149 Bohr (=   1.8600 Ang.)
 Radius for C  used is    3.8550 Bohr (=   2.0400 Ang.)
 Radius for H  used is    2.4944 Bohr (=   1.3200 Ang.)
Calculating surface                               ...        done! (  0.0s)
GEPOL surface points                              ...         2167
GEPOL Volume                                      ...    2404.2524
GEPOL Surface-area                                ...    1221.1736
Calculating surface distance matrix               ...        done! (  0.0s)
Performing Cholesky decomposition & store         ...        done! (  0.2s)
Overall time for CPCM initialization              ...                 0.2s
--------------
SCF ITERATIONS
--------------
ITER       Energy         Delta-E        Max-DP      RMS-DP      [F,P]     Damp
               ***  Starting incremental Fock matrix formation  ***
  0   -844.3663070071   0.000000000000 0.03126005  0.00064508  0.1481157 0.8500
  1   -844.4402381342  -0.073931127127 0.02816602  0.00059647  0.1201643 0.8500
                               ***Turning on DIIS***
  2   -844.4977569522  -0.057518818048 0.02373298  0.00049326  0.0931286 0.8500
  3   -844.5413303956  -0.043573443417 0.01935701  0.00037548  0.0713468 0.8500
  4   -844.5753433560  -0.034012960346 0.01587493  0.00030015  0.0571086 0.8500
  5   -844.6023467041  -0.027003348071 0.01319764  0.00025035  0.0473433 0.8500
  6   -844.6243579209  -0.022011216882 0.01107570  0.00021227  0.0398717 0.8500
  7   -844.6425848217  -0.018226900729 0.00935535  0.00018208  0.0337892 0.8500
  8   -844.6578232323  -0.015238410600 0.05312431  0.00104081  0.0285879 0.0000
  9   -844.7398775763  -0.082054344037 0.00136162  0.00002832  0.0011038 0.0000
                      *** Initiating the SOSCF procedure ***
                           *** Shutting down DIIS ***
                      *** Re-Reading the Fockian *** 
                      *** Removing any level shift *** 
ITER      Energy       Delta-E        Grad      Rot      Max-DP    RMS-DP
 10   -844.73990943  -0.0000318569  0.000412  0.000412  0.000565  0.000014
               *** Restarting incremental Fock matrix formation ***
 11   -844.73984638   0.0000630519  0.000219  0.000497  0.000499  0.000014
 12   -844.73984827  -0.0000018853  0.000138  0.000552  0.000340  0.000009
 13   -844.73984873  -0.0000004617  0.000044  0.000095  0.000182  0.000004
 14   -844.73984883  -0.0000000974  0.000006  0.000015  0.000034  0.000001
 15   -844.73984884  -0.0000000096  0.000005  0.000016  0.000016  0.000000
                  ***Gradient check signals convergence***
              ***Rediagonalizing the Fockian in SOSCF/NRSCF***

               *****************************************************
               *                     SUCCESS                       *
               *           SCF CONVERGED AFTER  16 CYCLES          *
               *****************************************************

Old exchange energy                            =    -38.151474488 Eh
New exchange energy                            =    -38.151475606 Eh
Exchange energy change after final integration =     -0.000001118 Eh
Total energy after final integration           =   -844.739849996 Eh
Final COS-X integration done in                =   188.101 sec

----------------
TOTAL SCF ENERGY
----------------

Total Energy       :         -844.73985000 Eh          -22986.53993 eV

Components:
Nuclear Repulsion  :         1591.57847621 Eh           43309.05213 eV
Electronic Energy  :        -2436.31832621 Eh          -66295.59206 eV
One Electron Energy:        -4302.85781598 Eh         -117086.71375 eV
Two Electron Energy:         1866.53948977 Eh           50791.12169 eV
Max COSX asymmetry :            0.00000332 Eh               0.00009 eV
CPCM Dielectric    :           -0.02071143 Eh              -0.56359 eV

Virial components:
Potential Energy   :        -1679.50827923 Eh          -45701.74371 eV
Kinetic Energy     :          834.76842923 Eh           22715.20378 eV
Virial Ratio       :            2.01194513


DFT components:
N(Alpha)           :       73.999790566908 electrons
N(Beta)            :       73.999790566908 electrons
N(Total)           :      147.999581133815 electrons
E(XC)              :      -85.853958420153 Eh       
DFET-embed. en.    :        0.000000000000 Eh       
CPCM Solvation Model Properties:
Surface-charge          :           -0.02995305
Charge-correction       :           -0.00038264 Eh              -0.01041 eV
Free-energy (cav+disp)  :  This term is not implemented in the current solvation scheme

---------------
SCF CONVERGENCE
---------------

  Last Energy change         ...   -4.2480e-08  Tolerance :   1.0000e-08
  Last MAX-Density change    ...    5.3291e-15  Tolerance :   1.0000e-07
  Last RMS-Density change    ...    3.9307e-17  Tolerance :   5.0000e-09
  Last Orbital Gradient      ...    9.2572e-07  Tolerance :   1.0000e-05
  Last Orbital Rotation      ...    2.3455e-06  Tolerance :   1.0000e-05

             **** THE GBW FILE WAS UPDATED (8_deprot_aq_1.gbw) ****
             **** DENSITY 8_deprot_aq_1.scfp WAS UPDATED ****
             **** ENERGY FILE WAS UPDATED (8_deprot_aq_1.en.tmp) ****
             **** THE GBW FILE WAS UPDATED (8_deprot_aq_1.gbw) ****
             **** DENSITY 8_deprot_aq_1.scfp WAS UPDATED ****
----------------
ORBITAL ENERGIES
----------------

  NO   OCC          E(Eh)            E(eV) 
   0   2.0000     -14.459268      -393.4567 
   1   2.0000     -14.459261      -393.4565 
   2   2.0000     -10.310959      -280.5755 
   3   2.0000     -10.310909      -280.5741 
   4   2.0000     -10.303588      -280.3749 
   5   2.0000     -10.302989      -280.3586 
   6   2.0000     -10.289302      -279.9861 
   7   2.0000     -10.289096      -279.9805 
   8   2.0000     -10.289093      -279.9805 
   9   2.0000     -10.289076      -279.9800 
  10   2.0000     -10.289069      -279.9798 
  11   2.0000     -10.278169      -279.6832 
  12   2.0000     -10.278168      -279.6832 
  13   2.0000     -10.274084      -279.5720 
  14   2.0000     -10.274082      -279.5720 
  15   2.0000     -10.274045      -279.5710 
  16   2.0000     -10.274044      -279.5709 
  17   2.0000     -10.269428      -279.4453 
  18   2.0000     -10.269425      -279.4453 
  19   2.0000     -10.269041      -279.4348 
  20   2.0000     -10.269036      -279.4347 
  21   2.0000      -1.160014       -31.5656 
  22   2.0000      -1.060259       -28.8511 
  23   2.0000      -0.997877       -27.1536 
  24   2.0000      -0.976830       -26.5809 
  25   2.0000      -0.913157       -24.8483 
  26   2.0000      -0.912833       -24.8395 
  27   2.0000      -0.906952       -24.6794 
  28   2.0000      -0.873181       -23.7605 
  29   2.0000      -0.869925       -23.6719 
  30   2.0000      -0.829470       -22.5710 
  31   2.0000      -0.811216       -22.0743 
  32   2.0000      -0.801379       -21.8066 
  33   2.0000      -0.800468       -21.7818 
  34   2.0000      -0.761756       -20.7284 
  35   2.0000      -0.736818       -20.0498 
  36   2.0000      -0.698862       -19.0170 
  37   2.0000      -0.696990       -18.9661 
  38   2.0000      -0.695944       -18.9376 
  39   2.0000      -0.678813       -18.4714 
  40   2.0000      -0.650282       -17.6951 
  41   2.0000      -0.617954       -16.8154 
  42   2.0000      -0.612160       -16.6577 
  43   2.0000      -0.598444       -16.2845 
  44   2.0000      -0.591755       -16.1025 
  45   2.0000      -0.562662       -15.3108 
  46   2.0000      -0.554678       -15.0936 
  47   2.0000      -0.551281       -15.0011 
  48   2.0000      -0.536924       -14.6104 
  49   2.0000      -0.535152       -14.5622 
  50   2.0000      -0.529641       -14.4123 
  51   2.0000      -0.525229       -14.2922 
  52   2.0000      -0.524189       -14.2639 
  53   2.0000      -0.521289       -14.1850 
  54   2.0000      -0.518617       -14.1123 
  55   2.0000      -0.513855       -13.9827 
  56   2.0000      -0.513794       -13.9810 
  57   2.0000      -0.509249       -13.8574 
  58   2.0000      -0.506702       -13.7881 
  59   2.0000      -0.478698       -13.0260 
  60   2.0000      -0.476584       -12.9685 
  61   2.0000      -0.462045       -12.5729 
  62   2.0000      -0.459518       -12.5041 
  63   2.0000      -0.456346       -12.4178 
  64   2.0000      -0.451618       -12.2891 
  65   2.0000      -0.445715       -12.1285 
  66   2.0000      -0.445248       -12.1158 
  67   2.0000      -0.390689       -10.6312 
  68   2.0000      -0.348626        -9.4866 
  69   2.0000      -0.344112        -9.3638 
  70   2.0000      -0.339062        -9.2263 
  71   2.0000      -0.337399        -9.1811 
  72   2.0000      -0.333553        -9.0764 
  73   2.0000      -0.333159        -9.0657 
  74   0.0000       0.061213         1.6657 
  75   0.0000       0.067203         1.8287 
  76   0.0000       0.071907         1.9567 
  77   0.0000       0.073206         1.9920 
  78   0.0000       0.106566         2.8998 
  79   0.0000       0.115014         3.1297 
  80   0.0000       0.141609         3.8534 
  81   0.0000       0.164861         4.4861 
  82   0.0000       0.166978         4.5437 
  83   0.0000       0.172534         4.6949 
  84   0.0000       0.188039         5.1168 
  85   0.0000       0.189457         5.1554 
  86   0.0000       0.194559         5.2942 
  87   0.0000       0.202995         5.5238 
  88   0.0000       0.204015         5.5515 
  89   0.0000       0.215722         5.8701 
  90   0.0000       0.224473         6.1082 
  91   0.0000       0.226688         6.1685 
  92   0.0000       0.236782         6.4432 
  93   0.0000       0.237718         6.4686 
  94   0.0000       0.247926         6.7464 
  95   0.0000       0.247959         6.7473 
  96   0.0000       0.252158         6.8616 
  97   0.0000       0.259189         7.0529 
  98   0.0000       0.260798         7.0967 
  99   0.0000       0.264139         7.1876 
 100   0.0000       0.282632         7.6908 
 101   0.0000       0.287452         7.8220 
 102   0.0000       0.289683         7.8827 
 103   0.0000       0.302813         8.2399 
 104   0.0000       0.313412         8.5284 
 105   0.0000       0.314913         8.5692 
 106   0.0000       0.333595         9.0776 
 107   0.0000       0.338168         9.2020 
 108   0.0000       0.356326         9.6961 
 109   0.0000       0.364570         9.9205 
 110   0.0000       0.367525        10.0009 
 111   0.0000       0.395122        10.7518 
 112   0.0000       0.400043        10.8857 
 113   0.0000       0.405217        11.0265 
 114   0.0000       0.407225        11.0812 
 115   0.0000       0.425037        11.5659 
 116   0.0000       0.429240        11.6802 
 117   0.0000       0.430381        11.7113 
 118   0.0000       0.438759        11.9392 
 119   0.0000       0.441067        12.0020 
 120   0.0000       0.448630        12.2078 
 121   0.0000       0.460850        12.5404 
 122   0.0000       0.464316        12.6347 
 123   0.0000       0.491888        13.3850 
 124   0.0000       0.499146        13.5825 
 125   0.0000       0.499572        13.5941 
 126   0.0000       0.504499        13.7281 
 127   0.0000       0.508972        13.8498 
 128   0.0000       0.522659        14.2223 
 129   0.0000       0.524192        14.2640 
 130   0.0000       0.527316        14.3490 
 131   0.0000       0.537503        14.6262 
 132   0.0000       0.538448        14.6519 
 133   0.0000       0.547783        14.9059 
 134   0.0000       0.549823        14.9614 
 135   0.0000       0.552308        15.0291 
 136   0.0000       0.564873        15.3710 
 137   0.0000       0.579073        15.7574 
 138   0.0000       0.585951        15.9445 
 139   0.0000       0.586897        15.9703 
 140   0.0000       0.591522        16.0961 
 141   0.0000       0.596545        16.2328 
 142   0.0000       0.596791        16.2395 
 143   0.0000       0.603111        16.4115 
 144   0.0000       0.608139        16.5483 
 145   0.0000       0.643514        17.5109 
 146   0.0000       0.649192        17.6654 
 147   0.0000       0.651506        17.7284 
 148   0.0000       0.669884        18.2285 
 149   0.0000       0.673540        18.3279 
 150   0.0000       0.680434        18.5156 
 151   0.0000       0.685966        18.6661 
 152   0.0000       0.690627        18.7929 
 153   0.0000       0.702055        19.1039 
 154   0.0000       0.704078        19.1589 
 155   0.0000       0.715484        19.4693 
 156   0.0000       0.719559        19.5802 
 157   0.0000       0.721942        19.6450 
 158   0.0000       0.724126        19.7045 
 159   0.0000       0.737218        20.0607 
 160   0.0000       0.748262        20.3613 
 161   0.0000       0.749353        20.3909 
 162   0.0000       0.750273        20.4160 
 163   0.0000       0.752548        20.4779 
 164   0.0000       0.760775        20.7017 
 165   0.0000       0.762704        20.7542 
 166   0.0000       0.767870        20.8948 
 167   0.0000       0.769290        20.9334 
 168   0.0000       0.775317        21.0974 
 169   0.0000       0.781676        21.2705 
 170   0.0000       0.784828        21.3563 
 171   0.0000       0.788830        21.4652 
 172   0.0000       0.794567        21.6213 
 173   0.0000       0.796143        21.6642 
 174   0.0000       0.796186        21.6653 
 175   0.0000       0.798363        21.7246 
 176   0.0000       0.800228        21.7753 
 177   0.0000       0.802157        21.8278 
 178   0.0000       0.809447        22.0262 
 179   0.0000       0.820731        22.3332 
 180   0.0000       0.825752        22.4698 
 181   0.0000       0.825759        22.4700 
 182   0.0000       0.837653        22.7937 
 183   0.0000       0.851095        23.1595 
 184   0.0000       0.852077        23.1862 
 185   0.0000       0.861076        23.4311 
 186   0.0000       0.866915        23.5900 
 187   0.0000       0.870630        23.6911 
 188   0.0000       0.876632        23.8544 
 189   0.0000       0.878160        23.8959 
 190   0.0000       0.881694        23.9921 
 191   0.0000       0.896843        24.4043 
 192   0.0000       0.900041        24.4914 
 193   0.0000       0.901220        24.5234 
 194   0.0000       0.908148        24.7120 
 195   0.0000       0.916931        24.9510 
 196   0.0000       0.931389        25.3444 
 197   0.0000       0.939330        25.5605 
 198   0.0000       0.944114        25.6906 
 199   0.0000       0.945516        25.7288 
 200   0.0000       0.948840        25.8193 
 201   0.0000       0.962969        26.2037 
 202   0.0000       0.985454        26.8156 
 203   0.0000       1.022218        27.8160 
 204   0.0000       1.028001        27.9733 
 205   0.0000       1.033319        28.1181 
 206   0.0000       1.040313        28.3084 
 207   0.0000       1.066699        29.0264 
 208   0.0000       1.091118        29.6908 
 209   0.0000       1.130965        30.7751 
 210   0.0000       1.148576        31.2543 
 211   0.0000       1.159915        31.5629 
 212   0.0000       1.213659        33.0253 
 213   0.0000       1.244640        33.8684 
 214   0.0000       1.250700        34.0333 
 215   0.0000       1.257111        34.2077 
 216   0.0000       1.267258        34.4838 
 217   0.0000       1.272228        34.6191 
 218   0.0000       1.274658        34.6852 
 219   0.0000       1.276001        34.7218 
 220   0.0000       1.288637        35.0656 
 221   0.0000       1.313984        35.7553 
 222   0.0000       1.319497        35.9053 
 223   0.0000       1.336717        36.3739 
 224   0.0000       1.340469        36.4760 
 225   0.0000       1.343232        36.5512 
 226   0.0000       1.343265        36.5521 
 227   0.0000       1.354262        36.8514 
 228   0.0000       1.357857        36.9492 
 229   0.0000       1.362671        37.0802 
 230   0.0000       1.368399        37.2360 
 231   0.0000       1.395801        37.9817 
 232   0.0000       1.397263        38.0215 
 233   0.0000       1.446627        39.3647 
 234   0.0000       1.457769        39.6679 
 235   0.0000       1.468131        39.9499 
 236   0.0000       1.495179        40.6859 
 237   0.0000       1.535650        41.7872 
 238   0.0000       1.567142        42.6441 
 239   0.0000       1.600245        43.5449 
 240   0.0000       1.604145        43.6510 
 241   0.0000       1.616787        43.9950 
 242   0.0000       1.626236        44.2521 
 243   0.0000       1.634972        44.4898 
 244   0.0000       1.639910        44.6242 
 245   0.0000       1.640663        44.6447 
 246   0.0000       1.649634        44.8888 
 247   0.0000       1.658063        45.1182 
 248   0.0000       1.658450        45.1287 
 249   0.0000       1.669584        45.4317 
 250   0.0000       1.673159        45.5290 
 251   0.0000       1.687267        45.9129 
 252   0.0000       1.697141        46.1816 
 253   0.0000       1.722877        46.8819 
 254   0.0000       1.734823        47.2069 
 255   0.0000       1.762615        47.9632 
 256   0.0000       1.767111        48.0855 
 257   0.0000       1.769620        48.1538 
 258   0.0000       1.796784        48.8930 
 259   0.0000       1.809715        49.2448 
 260   0.0000       1.812824        49.3295 
 261   0.0000       1.814614        49.3782 
 262   0.0000       1.817133        49.4467 
 263   0.0000       1.817768        49.4640 
 264   0.0000       1.823131        49.6099 
 265   0.0000       1.845366        50.2150 
 266   0.0000       1.849862        50.3373 
 267   0.0000       1.862546        50.6825 
 268   0.0000       1.864066        50.7238 
 269   0.0000       1.869786        50.8795 
 270   0.0000       1.875939        51.0469 
 271   0.0000       1.884656        51.2841 
 272   0.0000       1.900806        51.7235 
 273   0.0000       1.904488        51.8238 
 274   0.0000       1.906215        51.8707 
 275   0.0000       1.907627        51.9092 
 276   0.0000       1.920099        52.2486 
 277   0.0000       1.920306        52.2542 
 278   0.0000       1.928068        52.4654 
 279   0.0000       1.930434        52.5298 
 280   0.0000       1.933193        52.6049 
 281   0.0000       1.937281        52.7161 
 282   0.0000       1.937961        52.7346 
 283   0.0000       1.961442        53.3735 
 284   0.0000       1.967961        53.5509 
 285   0.0000       1.986590        54.0579 
 286   0.0000       2.001937        54.4755 
 287   0.0000       2.006711        54.6054 
 288   0.0000       2.015792        54.8525 
 289   0.0000       2.019009        54.9400 
 290   0.0000       2.027899        55.1819 
 291   0.0000       2.035765        55.3960 
 292   0.0000       2.045721        55.6669 
 293   0.0000       2.046151        55.6786 
 294   0.0000       2.062209        56.1156 
 295   0.0000       2.063948        56.1629 
 296   0.0000       2.078785        56.5666 
 297   0.0000       2.086079        56.7651 
 298   0.0000       2.102137        57.2021 
 299   0.0000       2.107026        57.3351 
 300   0.0000       2.126525        57.8657 
 301   0.0000       2.139874        58.2289 
 302   0.0000       2.140082        58.2346 
 303   0.0000       2.155010        58.6408 
 304   0.0000       2.156758        58.6884 
 305   0.0000       2.163496        58.8717 
 306   0.0000       2.174725        59.1773 
 307   0.0000       2.181391        59.3587 
 308   0.0000       2.205266        60.0083 
 309   0.0000       2.208635        60.1000 
 310   0.0000       2.213164        60.2233 
 311   0.0000       2.214107        60.2489 
 312   0.0000       2.235561        60.8327 
 313   0.0000       2.239957        60.9523 
 314   0.0000       2.252789        61.3015 
 315   0.0000       2.257270        61.4234 
 316   0.0000       2.265868        61.6574 
 317   0.0000       2.317230        63.0550 
 318   0.0000       2.317590        63.0648 
 319   0.0000       2.340043        63.6758 
 320   0.0000       2.353853        64.0516 
 321   0.0000       2.356205        64.1156 
 322   0.0000       2.358801        64.1862 
 323   0.0000       2.371764        64.5390 
 324   0.0000       2.385571        64.9147 
 325   0.0000       2.392499        65.1032 
 326   0.0000       2.395095        65.1739 
 327   0.0000       2.400311        65.3158 
 328   0.0000       2.400529        65.3217 
 329   0.0000       2.412344        65.6432 
 330   0.0000       2.423292        65.9411 
 331   0.0000       2.443018        66.4779 
 332   0.0000       2.482357        67.5484 
 333   0.0000       2.519543        68.5602 
 334   0.0000       2.535353        68.9905 
 335   0.0000       2.537592        69.0514 
 336   0.0000       2.537981        69.0620 
 337   0.0000       2.541298        69.1522 
 338   0.0000       2.554837        69.5207 
 339   0.0000       2.556308        69.5607 
 340   0.0000       2.559338        69.6431 
 341   0.0000       2.570051        69.9347 
 342   0.0000       2.585208        70.3471 
 343   0.0000       2.607679        70.9586 
 344   0.0000       2.640370        71.8481 
 345   0.0000       2.644438        71.9588 
 346   0.0000       2.663798        72.4856 
 347   0.0000       2.667075        72.5748 
 348   0.0000       2.683841        73.0310 
 349   0.0000       2.692043        73.2542 
 350   0.0000       2.703265        73.5596 
 351   0.0000       2.707367        73.6712 
 352   0.0000       2.726516        74.1923 
 353   0.0000       2.735782        74.4444 
 354   0.0000       2.736960        74.4765 
 355   0.0000       2.764010        75.2125 
 356   0.0000       2.789773        75.9136 
 357   0.0000       2.796836        76.1058 
 358   0.0000       2.828954        76.9798 
 359   0.0000       2.839391        77.2638 
 360   0.0000       2.846305        77.4519 
 361   0.0000       2.861064        77.8535 
 362   0.0000       2.864674        77.9517 
 363   0.0000       2.865738        77.9807 
 364   0.0000       2.899303        78.8940 
 365   0.0000       2.943349        80.0926 
 366   0.0000       2.956166        80.4414 
 367   0.0000       2.965844        80.7047 
 368   0.0000       2.975694        80.9727 
 369   0.0000       3.003314        81.7243 
 370   0.0000       3.005414        81.7815 
 371   0.0000       3.043490        82.8176 
 372   0.0000       3.050785        83.0161 
 373   0.0000       3.055500        83.1444 
 374   0.0000       3.061802        83.3159 
 375   0.0000       3.065402        83.4138 
 376   0.0000       3.069257        83.5187 
 377   0.0000       3.077939        83.7550 
 378   0.0000       3.083787        83.9141 
 379   0.0000       3.086217        83.9802 
 380   0.0000       3.117991        84.8448 
 381   0.0000       3.140266        85.4510 
 382   0.0000       3.155834        85.8746 
 383   0.0000       3.173126        86.3452 
 384   0.0000       3.176956        86.4494 
 385   0.0000       3.194584        86.9290 
 386   0.0000       3.213827        87.4527 
 387   0.0000       3.374232        91.8175 
 388   0.0000       3.374286        91.8190 
 389   0.0000       3.402567        92.5885 
 390   0.0000       3.421466        93.1028 
 391   0.0000       3.609199        98.2113 
 392   0.0000       3.703838       100.7865 
 393   0.0000       3.719123       101.2025 

                    ********************************
                    * MULLIKEN POPULATION ANALYSIS *
                    ********************************

-----------------------
MULLIKEN ATOMIC CHARGES
-----------------------
   0 N :   -0.213559
   1 C :   -0.139233
   2 N :   -0.213564
   3 C :    0.045679
   4 C :    0.045681
   5 C :    0.045811
   6 C :    0.045826
   7 C :   -0.100686
   8 C :   -0.099449
   9 C :   -0.100691
  10 C :   -0.099457
  11 H :    0.071153
[...]
 10:     88.47   0.000007    0.04  0.000026  ( 0.000064  0.000265 -0.005095)
 11:     96.12   0.000093    0.47  0.000302  ( 0.016845 -0.004280  0.000052)
 12:    135.52   0.000973    4.92  0.002241  ( 0.000059 -0.000013 -0.047340)
 13:    150.80   0.000116    0.59  0.000241  ( 0.000151  0.000360 -0.015520)
 14:    152.41   0.000104    0.53  0.000214  ( 0.007136 -0.012747  0.000378)
 15:    158.65   0.000244    1.24  0.000481  (-0.017251 -0.013453 -0.001505)
 16:    160.64   0.000123    0.62  0.000239  ( 0.001686  0.000853 -0.015353)
 17:    199.20   0.002073   10.48  0.003248  (-0.056873 -0.003673 -0.000015)
 18:    209.40   0.000670    3.38  0.000998  (-0.000043 -0.000037 -0.031591)
 19:    238.87   0.000004    0.02  0.000005  ( 0.000030  0.000020  0.002333)
 20:    239.73   0.000032    0.16  0.000041  (-0.003476 -0.005406  0.000001)
 21:    284.44   0.000823    4.16  0.000903  (-0.029731  0.004409 -0.000011)
 22:    308.27   0.003364   17.00  0.003405  (-0.005833 -0.058061  0.000038)
 23:    337.81   0.001898    9.59  0.001753  ( 0.000003 -0.000054 -0.041869)
 24:    358.20   0.000648    3.28  0.000565  (-0.000017  0.000009 -0.023762)
 25:    362.10   0.000439    2.22  0.000378  (-0.000000 -0.000003 -0.019445)
 26:    399.25   0.000688    3.48  0.000538  (-0.022713  0.004685  0.000005)
 27:    437.18   0.000029    0.15  0.000021  ( 0.003805 -0.002481  0.000003)
 28:    485.63   0.000134    0.68  0.000086  (-0.001006 -0.009242 -0.000004)
 29:    494.85   0.000000    0.00  0.000000  (-0.000004  0.000004  0.000250)
 30:    538.39   0.000058    0.29  0.000034  (-0.001112  0.005692 -0.000012)
 31:    538.83   0.000000    0.00  0.000000  (-0.000011  0.000101  0.000060)
 32:    543.46   0.000089    0.45  0.000051  (-0.000043 -0.007143  0.000001)
 33:    547.19   0.000004    0.02  0.000002  (-0.000002 -0.000006  0.001552)
 34:    579.64   0.000296    1.50  0.000159  (-0.000002  0.000016  0.012627)
 35:    595.00   0.000048    0.24  0.000025  ( 0.000007 -0.000012 -0.004995)
 36:    604.29   0.000033    0.17  0.000017  (-0.003732  0.001738 -0.000002)
 37:    628.29   0.002093   10.58  0.001040  (-0.032132  0.002668 -0.000001)
 38:    685.60   0.000018    0.09  0.000008  ( 0.000011  0.000082 -0.002874)
 39:    687.92   0.002524   12.76  0.001145  ( 0.001848 -0.033789  0.000021)
 40:    753.30   0.014011   70.81  0.005804  (-0.004660 -0.076043  0.000046)
 41:    768.65   0.000063    0.32  0.000026  ( 0.000012 -0.000014  0.005068)
 42:    779.92   0.001115    5.63  0.000446  (-0.021047  0.001772 -0.000002)
 43:    787.41   0.000326    1.65  0.000129  ( 0.000013 -0.000011 -0.011375)
 44:    796.27   0.001373    6.94  0.000538  (-0.023013  0.002911  0.000016)
 45:    809.54   0.018989   95.96  0.007320  (-0.000227 -0.000049 -0.085556)
 46:    810.51   0.003591   18.15  0.001383  (-0.036767 -0.005526  0.000525)
 47:    887.29   0.000000    0.00  0.000000  ( 0.000017 -0.000024 -0.000066)
 48:    942.76   0.001861    9.41  0.000616  ( 0.000142 -0.024821 -0.000101)
 49:    942.84   0.000024    0.12  0.000008  (-0.000032 -0.001109  0.002569)
 50:    944.84   0.000097    0.49  0.000032  (-0.000566 -0.004839 -0.002897)
 51:    944.88   0.000400    2.02  0.000132  ( 0.001395  0.011339 -0.001234)
 52:    964.00   0.008969   45.32  0.002903  (-0.053788  0.003177 -0.000001)
 53:    973.45   0.000840    4.25  0.000269  (-0.000002  0.000027  0.016414)
 54:   1007.71   0.002278   11.51  0.000705  (-0.026474  0.002106 -0.000056)
 55:   1008.06   0.000094    0.47  0.000029  (-0.000287  0.000042  0.005380)
 56:   1035.39   0.000020    0.10  0.000006  (-0.000129  0.002467 -0.000269)
 57:   1035.68   0.000291    1.47  0.000088  (-0.000004 -0.000081 -0.009367)
 58:   1057.77   0.000164    0.83  0.000048  ( 0.003923 -0.005351 -0.002088)
 59:   1057.84   0.001660    8.39  0.000490  ( 0.000390 -0.000471  0.022121)
 60:   1060.23   0.000237    1.20  0.000070  ( 0.008220  0.001406 -0.000305)
 61:   1060.86   0.003585   18.12  0.001055  ( 0.000080  0.000106  0.032473)
 62:   1062.12   0.000822    4.15  0.000242  (-0.001846  0.015421 -0.000539)
 63:   1062.15   0.000039    0.20  0.000011  ( 0.000214 -0.001812 -0.002849)
 64:   1087.75   0.005611   28.36  0.001610  (-0.000004  0.000039  0.040121)
 65:   1097.62   0.000012    0.06  0.000003  ( 0.001662 -0.000805 -0.000036)
 66:   1101.43   0.000096    0.49  0.000027  (-0.000021 -0.000009 -0.005226)
 67:   1129.06   0.007689   38.86  0.002125  ( 0.046054 -0.002056  0.000018)
 68:   1140.91   0.000209    1.06  0.000057  (-0.000100  0.000016  0.007558)
 69:   1173.81   0.000063    0.32  0.000017  (-0.000122 -0.003921 -0.001162)
 70:   1173.82   0.001154    5.83  0.000307  ( 0.000646  0.017504 -0.000275)
 71:   1267.22   0.009207   46.53  0.002267  (-0.047520  0.003018  0.000001)
 72:   1280.34   0.000005    0.02  0.000001  (-0.000420 -0.000770 -0.000650)
 73:   1280.48   0.000155    0.78  0.000038  ( 0.002922  0.005396 -0.000085)
 74:   1297.41   0.000014    0.07  0.000003  ( 0.000015  0.000007  0.001850)
 75:   1302.85   0.001246    6.30  0.000298  ( 0.017229 -0.001270 -0.000001)
 76:   1330.45   0.002220   11.22  0.000521  ( 0.006638  0.021830  0.000229)
 77:   1330.46   0.000575    2.90  0.000135  (-0.003379 -0.011096  0.000471)
 78:   1336.95   0.002366   11.96  0.000552  ( 0.021846 -0.008656  0.000001)
 79:   1380.14   0.001108    5.60  0.000250  (-0.000005 -0.000018 -0.015825)
 80:   1392.86   0.000056    0.28  0.000013  (-0.000092 -0.000062 -0.003538)
 81:   1393.33   0.000102    0.52  0.000023  (-0.003708 -0.003016  0.000069)
 82:   1397.10   0.000003    0.02  0.000001  ( 0.000057 -0.000009 -0.000821)
 83:   1400.80   0.001990   10.06  0.000443  (-0.020765  0.003486  0.000001)
 84:   1419.54   0.000422    2.13  0.000093  (-0.000009 -0.000012 -0.009627)
 85:   1434.48   0.007810   39.47  0.001699  (-0.041191 -0.001499  0.000010)
 86:   1444.01   0.003605   18.22  0.000779  ( 0.000019 -0.000009 -0.027913)
 87:   1445.34   0.003980   20.11  0.000859  (-0.026694  0.012083 -0.000908)
 88:   1446.06   0.005723   28.92  0.001235  (-0.001032  0.000744  0.035119)
 89:   1446.61   0.001278    6.46  0.000276  (-0.009963  0.013236 -0.001103)
 90:   1451.02   0.001909    9.65  0.000411  ( 0.000113  0.000336 -0.020261)
 91:   1451.64   0.002589   13.08  0.000556  ( 0.014293  0.018764  0.000356)
 92:   1456.53   0.000036    0.18  0.000008  (-0.000015 -0.000059 -0.002765)
 93:   1471.31   0.002287   11.56  0.000485  (-0.022002  0.000949  0.000004)
 94:   1533.33   0.000048    0.24  0.000010  (-0.000014  0.000132  0.003110)
 95:   1533.53   0.010508   53.10  0.002138  ( 0.002633  0.046168 -0.000024)
 96:   1555.35   0.058470  295.48  0.011731  ( 0.108061 -0.007357  0.000017)
 97:   1561.73   0.002341   11.83  0.000468  (-0.000075  0.000033  0.021630)
 98:   1651.64   0.000341    1.73  0.000065  ( 0.000000  0.000002  0.008033)
 99:   1698.21   0.000074    0.37  0.000014  (-0.003638 -0.000541  0.000003)
100:   1699.90   0.000020    0.10  0.000004  (-0.000002  0.000021  0.001927)
101:   1702.84   0.000035    0.18  0.000006  (-0.000003  0.000023  0.002538)
102:   1703.27   0.005153   26.04  0.000944  ( 0.000708  0.030718 -0.000012)
103:   3065.77   0.012492   63.13  0.001272  (-0.003140 -0.035520  0.000285)
104:   3066.22   0.000588    2.97  0.000060  (-0.000489  0.001419  0.007590)
105:   3066.54   0.000008    0.04  0.000001  (-0.000104 -0.000913 -0.000080)
106:   3067.01   0.003626   18.32  0.000369  (-0.018627  0.004678 -0.000240)
107:   3154.06   0.002490   12.58  0.000246  (-0.002573 -0.000002 -0.015483)
108:   3154.15   0.001779    8.99  0.000176  ( 0.002994 -0.000042 -0.012925)
109:   3155.58   0.000638    3.22  0.000063  (-0.004566 -0.003371 -0.005555)
110:   3155.62   0.001204    6.08  0.000119  ( 0.002464  0.001845 -0.010467)
111:   3185.22   0.005648   28.54  0.000553  ( 0.014807  0.018279  0.000116)
112:   3185.29   0.000451    2.28  0.000044  ( 0.000259  0.000337 -0.006632)
113:   3185.92   0.005516   27.88  0.000540  (-0.018473  0.014037  0.001423)
114:   3185.95   0.000761    3.85  0.000075  (-0.005891  0.004506 -0.004419)
115:   3206.34   0.000001    0.00  0.000000  (-0.000113  0.000210 -0.000001)
116:   3206.36   0.000000    0.00  0.000000  (-0.000002  0.000001  0.000200)
117:   3213.46   0.002682   13.55  0.000260  (-0.000714 -0.016084 -0.001110)
118:   3213.46   0.003118   15.76  0.000303  (-0.000781 -0.017352  0.001039)
119:   3227.50   0.005535   27.97  0.000535  (-0.023066  0.001727  0.000362)
120:   3227.52   0.000515    2.60  0.000050  (-0.001204  0.000080 -0.006956)
121:   3285.38   0.003165   15.99  0.000301  ( 0.017308 -0.001030 -0.000003)
122:   3306.65   0.000692    3.50  0.000065  (-0.000002  0.000003  0.008079)

* The epsilon (eps) is given for a Dirac delta lineshape.
** The dipole moment derivative (T) already includes vibrational overlap.

The first frequency considered to be a vibration is 6
The total number of vibrations considered is 117


--------------------------
THERMOCHEMISTRY AT 298.15K
--------------------------

Temperature         ... 298.15 K
Pressure            ... 1.00 atm
Total Mass          ... 276.38 AMU

Throughout the following assumptions are being made:
  (1) The electronic state is orbitally nondegenerate
  (2) There are no thermally accessible electronically excited states
  (3) Hindered rotations indicated by low frequency modes are not
      treated as such but are treated as vibrations and this may
      cause some error
  (4) All equations used are the standard statistical mechanics
      equations for an ideal gas
  (5) All vibrations are strictly harmonic

freq.      26.52  E(vib)   ...       0.56 
freq.      28.57  E(vib)   ...       0.55 
freq.      58.74  E(vib)   ...       0.51 
freq.      63.03  E(vib)   ...       0.51 
freq.      88.47  E(vib)   ...       0.47 
freq.      96.12  E(vib)   ...       0.47 
freq.     135.52  E(vib)   ...       0.42 
freq.     150.80  E(vib)   ...       0.40 
freq.     152.41  E(vib)   ...       0.40 
freq.     158.65  E(vib)   ...       0.39 
freq.     160.64  E(vib)   ...       0.39 
freq.     199.20  E(vib)   ...       0.35 
freq.     209.40  E(vib)   ...       0.34 
freq.     238.87  E(vib)   ...       0.32 
freq.     239.73  E(vib)   ...       0.31 
freq.     284.44  E(vib)   ...       0.28 
freq.     308.27  E(vib)   ...       0.26 
freq.     337.81  E(vib)   ...       0.24 
freq.     358.20  E(vib)   ...       0.22 
freq.     362.10  E(vib)   ...       0.22 
freq.     399.25  E(vib)   ...       0.19 
freq.     437.18  E(vib)   ...       0.17 
freq.     485.63  E(vib)   ...       0.15 
freq.     494.85  E(vib)   ...       0.14 
freq.     538.39  E(vib)   ...       0.12 
freq.     538.83  E(vib)   ...       0.12 
freq.     543.46  E(vib)   ...       0.12 
freq.     547.19  E(vib)   ...       0.12 
freq.     579.64  E(vib)   ...       0.11 
freq.     595.00  E(vib)   ...       0.10 
freq.     604.29  E(vib)   ...       0.10 
freq.     628.29  E(vib)   ...       0.09 
freq.     685.60  E(vib)   ...       0.07 
freq.     687.92  E(vib)   ...       0.07 
freq.     753.30  E(vib)   ...       0.06 
freq.     768.65  E(vib)   ...       0.06 
freq.     779.92  E(vib)   ...       0.05 
freq.     787.41  E(vib)   ...       0.05 
freq.     796.27  E(vib)   ...       0.05 
freq.     809.54  E(vib)   ...       0.05 
freq.     810.51  E(vib)   ...       0.05 
freq.     887.29  E(vib)   ...       0.04 
freq.     942.76  E(vib)   ...       0.03 
freq.     942.84  E(vib)   ...       0.03 
freq.     944.84  E(vib)   ...       0.03 
freq.     944.88  E(vib)   ...       0.03 
freq.     964.00  E(vib)   ...       0.03 
freq.     973.45  E(vib)   ...       0.03 
freq.    1007.71  E(vib)   ...       0.02 
freq.    1008.06  E(vib)   ...       0.02 
freq.    1035.39  E(vib)   ...       0.02 
freq.    1035.68  E(vib)   ...       0.02 
freq.    1057.77  E(vib)   ...       0.02 
freq.    1057.84  E(vib)   ...       0.02 
freq.    1060.23  E(vib)   ...       0.02 
freq.    1060.86  E(vib)   ...       0.02 
freq.    1062.12  E(vib)   ...       0.02 
freq.    1062.15  E(vib)   ...       0.02 
freq.    1087.75  E(vib)   ...       0.02 
freq.    1097.62  E(vib)   ...       0.02 
freq.    1101.43  E(vib)   ...       0.02 
freq.    1129.06  E(vib)   ...       0.01 
freq.    1140.91  E(vib)   ...       0.01 
freq.    1173.81  E(vib)   ...       0.01 
freq.    1173.82  E(vib)   ...       0.01 
freq.    1267.22  E(vib)   ...       0.01 
freq.    1280.34  E(vib)   ...       0.01 
freq.    1280.48  E(vib)   ...       0.01 
freq.    1297.41  E(vib)   ...       0.01 
freq.    1302.85  E(vib)   ...       0.01 
freq.    1330.45  E(vib)   ...       0.01 
freq.    1330.46  E(vib)   ...       0.01 
freq.    1336.95  E(vib)   ...       0.01 
freq.    1380.14  E(vib)   ...       0.01 
freq.    1392.86  E(vib)   ...       0.00 
freq.    1393.33  E(vib)   ...       0.00 
freq.    1397.10  E(vib)   ...       0.00 
freq.    1400.80  E(vib)   ...       0.00 
freq.    1419.54  E(vib)   ...       0.00 
freq.    1434.48  E(vib)   ...       0.00 
freq.    1444.01  E(vib)   ...       0.00 
freq.    1445.34  E(vib)   ...       0.00 
freq.    1446.06  E(vib)   ...       0.00 
freq.    1446.61  E(vib)   ...       0.00 
freq.    1451.02  E(vib)   ...       0.00 
freq.    1451.64  E(vib)   ...       0.00 
freq.    1456.53  E(vib)   ...       0.00 
freq.    1471.31  E(vib)   ...       0.00 
freq.    1533.33  E(vib)   ...       0.00 
freq.    1533.53  E(vib)   ...       0.00 
freq.    1555.35  E(vib)   ...       0.00 
freq.    1561.73  E(vib)   ...       0.00 
freq.    1651.64  E(vib)   ...       0.00 
freq.    1698.21  E(vib)   ...       0.00 
freq.    1699.90  E(vib)   ...       0.00 
freq.    1702.84  E(vib)   ...       0.00 
freq.    1703.27  E(vib)   ...       0.00 
freq.    3065.77  E(vib)   ...       0.00 
freq.    3066.22  E(vib)   ...       0.00 
freq.    3066.54  E(vib)   ...       0.00 
freq.    3067.01  E(vib)   ...       0.00 
freq.    3154.06  E(vib)   ...       0.00 
freq.    3154.15  E(vib)   ...       0.00 
freq.    3155.58  E(vib)   ...       0.00 
freq.    3155.62  E(vib)   ...       0.00 
freq.    3185.22  E(vib)   ...       0.00 
freq.    3185.29  E(vib)   ...       0.00 
freq.    3185.92  E(vib)   ...       0.00 
freq.    3185.95  E(vib)   ...       0.00 
freq.    3206.34  E(vib)   ...       0.00 
freq.    3206.36  E(vib)   ...       0.00 
freq.    3213.46  E(vib)   ...       0.00 
freq.    3213.46  E(vib)   ...       0.00 
freq.    3227.50  E(vib)   ...       0.00 
freq.    3227.52  E(vib)   ...       0.00 
freq.    3285.38  E(vib)   ...       0.00 
freq.    3306.65  E(vib)   ...       0.00 

------------
INNER ENERGY
------------

The inner energy is: U= E(el) + E(ZPE) + E(vib) + E(rot) + E(trans)
    E(el)   - is the total energy from the electronic structure calculation
              = E(kin-el) + E(nuc-el) + E(el-el) + E(nuc-nuc)
    E(ZPE)  - the the zero temperature vibrational energy from the frequency calculation
    E(vib)  - the the finite temperature correction to E(ZPE) due to population
              of excited vibrational states
    E(rot)  - is the rotational thermal energy
    E(trans)- is the translational thermal energy

Summary of contributions to the inner energy U:
Electronic energy                ...   -844.74960513 Eh
Zero point energy                ...      0.34603441 Eh     217.14 kcal/mol
Thermal vibrational correction   ...      0.01641467 Eh      10.30 kcal/mol
Thermal rotational correction    ...      0.00141627 Eh       0.89 kcal/mol
Thermal translational correction ...      0.00141627 Eh       0.89 kcal/mol
-----------------------------------------------------------------------
Total thermal energy                   -844.38432351 Eh


Summary of corrections to the electronic energy:
(perhaps to be used in another calculation)
Total thermal correction                  0.01924721 Eh      12.08 kcal/mol
Non-thermal (ZPE) correction              0.34603441 Eh     217.14 kcal/mol
-----------------------------------------------------------------------
Total correction                          0.36528162 Eh     229.22 kcal/mol


--------
ENTHALPY
--------

The enthalpy is H = U + kB*T
                kB is Boltzmann's constant
Total free energy                 ...   -844.38432351 Eh 
Thermal Enthalpy correction       ...      0.00094421 Eh       0.59 kcal/mol
-----------------------------------------------------------------------
Total Enthalpy                    ...   -844.38337930 Eh


Note: Only C1 symmetry has been detected, increase convergence thresholds 
      if your molecule has a higher symmetry. Symmetry factor of 1.0 is   
      used for the rotational entropy correction. 
 

Note: Rotational entropy computed according to Herzberg 
Infrared and Raman Spectra, Chapter V,1, Van Nostrand Reinhold, 1945 
Point Group:  C1, Symmetry Number:   1  
Rotational constants in cm-1:     0.023568     0.005961     0.005194 

Vibrational entropy computed according to the QRRHO of S. Grimme
Chem.Eur.J. 2012 18 9955


-------
ENTROPY
-------

The entropy contributions are T*S = T*(S(el)+S(vib)+S(rot)+S(trans))
     S(el)   - electronic entropy
     S(vib)  - vibrational entropy
     S(rot)  - rotational entropy
     S(trans)- translational entropy
The entropies will be listed as multiplied by the temperature to get
units of energy

Electronic entropy                ...      0.00000000 Eh      0.00 kcal/mol
Vibrational entropy               ...      0.02893022 Eh     18.15 kcal/mol
Rotational entropy                ...      0.01618182 Eh     10.15 kcal/mol
Translational entropy             ...      0.02031105 Eh     12.75 kcal/mol
-----------------------------------------------------------------------
Final entropy term                ...      0.06542309 Eh     41.05 kcal/mol

In case the symmetry of your molecule has not been determined correctly
or in case you have a reason to use a different symmetry number we print 
out the resulting rotational entropy values for sn=1,12 :
 --------------------------------------------------------
|  sn= 1 | S(rot)=       0.01618182 Eh     10.15 kcal/mol|
|  sn= 2 | S(rot)=       0.01552736 Eh      9.74 kcal/mol|
|  sn= 3 | S(rot)=       0.01514453 Eh      9.50 kcal/mol|
|  sn= 4 | S(rot)=       0.01487291 Eh      9.33 kcal/mol|
|  sn= 5 | S(rot)=       0.01466222 Eh      9.20 kcal/mol|
|  sn= 6 | S(rot)=       0.01449007 Eh      9.09 kcal/mol|
|  sn= 7 | S(rot)=       0.01434453 Eh      9.00 kcal/mol|
|  sn= 8 | S(rot)=       0.01421845 Eh      8.92 kcal/mol|
|  sn= 9 | S(rot)=       0.01410724 Eh      8.85 kcal/mol|
|  sn=10 | S(rot)=       0.01400776 Eh      8.79 kcal/mol|
|  sn=11 | S(rot)=       0.01391777 Eh      8.73 kcal/mol|
|  sn=12 | S(rot)=       0.01383562 Eh      8.68 kcal/mol|
 --------------------------------------------------------


-------------------
GIBBS FREE ENERGY
-------------------

The Gibbs free energy is G = H - T*S

Total enthalpy                    ...   -844.38337930 Eh 
Total entropy correction          ...     -0.06542309 Eh    -41.05 kcal/mol
-----------------------------------------------------------------------
Final Gibbs free energy         ...   -844.44880239 Eh

For completeness - the Gibbs free energy minus the electronic energy
G-E(el)                           ...      0.30080274 Eh    188.76 kcal/mol


Timings for individual modules:

Sum of individual times         ...    20024.364 sec (= 333.739 min)
GTO integral calculation        ...        9.764 sec (=   0.163 min)   0.0 %
SCF iterations                  ...    10949.398 sec (= 182.490 min)  54.7 %
SCF Gradient evaluation         ...     3025.790 sec (=  50.430 min)  15.1 %
Geometry relaxation             ...        1.873 sec (=   0.031 min)   0.0 %
Analytical frequency calculation...     6037.539 sec (= 100.626 min)  30.2 %
                             ****ORCA TERMINATED NORMALLY****
TOTAL RUN TIME: 0 days 5 hours 33 minutes 49 seconds 152 msec
