
                                 *****************
                                 * O   R   C   A *
                                 *****************

                                            #,                                       
                                            ###                                      
                                            ####                                     
                                            #####                                    
                                            ######                                   
                                           ########,                                 
                                     ,,################,,,,,                         
                               ,,#################################,,                 
                          ,,##########################################,,             
                       ,#########################################, ''#####,          
                    ,#############################################,,   '####,        
                  ,##################################################,,,,####,       
                ,###########''''           ''''###############################       
              ,#####''   ,,,,##########,,,,          '''####'''          '####       
            ,##' ,,,,###########################,,,                        '##       
           ' ,,###''''                  '''############,,,                           
         ,,##''                                '''############,,,,        ,,,,,,###''
      ,#''                                            '''#######################'''  
     '                                                          ''''####''''         
             ,#######,   #######,   ,#######,      ##                                
            ,#'     '#,  ##    ##  ,#'     '#,    #''#        ######   ,####,        
            ##       ##  ##   ,#'  ##            #'  '#       #        #'  '#        
            ##       ##  #######   ##           ,######,      #####,   #    #        
            '#,     ,#'  ##    ##  '#,     ,#' ,#      #,         ##   #,  ,#        
             '#######'   ##     ##  '#######'  #'      '#     #####' # '####'        



                  #######################################################
                  #                        -***-                        #
                  #          Department of theory and spectroscopy      #
                  #    Directorship and core code : Frank Neese         #
                  #        Max Planck Institute fuer Kohlenforschung    #
                  #                Kaiser Wilhelm Platz 1               #
                  #                 D-45470 Muelheim/Ruhr               #
                  #                      Germany                        #
                  #                                                     #
                  #                  All rights reserved                #
                  #                        -***-                        #
                  #######################################################


                         Program Version 5.0.4 -  RELEASE  -


 With contributions from (in alphabetic order):
   Daniel Aravena         : Magnetic Suceptibility
   Michael Atanasov       : Ab Initio Ligand Field Theory (pilot matlab implementation)
   Alexander A. Auer      : GIAO ZORA, VPT2 properties, NMR spectrum
   Ute Becker             : Parallelization
   Giovanni Bistoni       : ED, misc. LED, open-shell LED, HFLD
   Martin Brehm           : Molecular dynamics
   Dmytro Bykov           : SCF Hessian
   Vijay G. Chilkuri      : MRCI spin determinant printing, contributions to CSF-ICE
   Dipayan Datta          : RHF DLPNO-CCSD density
   Achintya Kumar Dutta   : EOM-CC, STEOM-CC
   Dmitry Ganyushin       : Spin-Orbit,Spin-Spin,Magnetic field MRCI
   Miquel Garcia          : C-PCM and meta-GGA Hessian, CC/C-PCM, Gaussian charge scheme
   Yang Guo               : DLPNO-NEVPT2, F12-NEVPT2, CIM, IAO-localization
   Andreas Hansen         : Spin unrestricted coupled pair/coupled cluster methods
   Benjamin Helmich-Paris : MC-RPA, TRAH-SCF, COSX integrals
   Lee Huntington         : MR-EOM, pCC
   Robert Izsak           : Overlap fitted RIJCOSX, COSX-SCS-MP3, EOM
   Marcus Kettner         : VPT2
   Christian Kollmar      : KDIIS, OOCD, Brueckner-CCSD(T), CCSD density, CASPT2, CASPT2-K
   Simone Kossmann        : Meta GGA functionals, TD-DFT gradient, OOMP2, MP2 Hessian
   Martin Krupicka        : Initial AUTO-CI
   Lucas Lang             : DCDCAS
   Marvin Lechner         : AUTO-CI (C++ implementation), FIC-MRCC
   Dagmar Lenk            : GEPOL surface, SMD
   Dimitrios Liakos       : Extrapolation schemes; Compound Job, initial MDCI parallelization
   Dimitrios Manganas     : Further ROCIS development; embedding schemes
   Dimitrios Pantazis     : SARC Basis sets
   Anastasios Papadopoulos: AUTO-CI, single reference methods and gradients
   Taras Petrenko         : DFT Hessian,TD-DFT gradient, ASA, ECA, R-Raman, ABS, FL, XAS/XES, NRVS
   Peter Pinski           : DLPNO-MP2, DLPNO-MP2 Gradient
   Christoph Reimann      : Effective Core Potentials
   Marius Retegan         : Local ZFS, SOC
   Christoph Riplinger    : Optimizer, TS searches, QM/MM, DLPNO-CCSD(T), (RO)-DLPNO pert. Triples
   Tobias Risthaus        : Range-separated hybrids, TD-DFT gradient, RPA, STAB
   Michael Roemelt        : Original ROCIS implementation
   Masaaki Saitow         : Open-shell DLPNO-CCSD energy and density
   Barbara Sandhoefer     : DKH picture change effects
   Avijit Sen             : IP-ROCIS
   Kantharuban Sivalingam : CASSCF convergence, NEVPT2, FIC-MRCI
   Bernardo de Souza      : ESD, SOC TD-DFT
   Georgi Stoychev        : AutoAux, RI-MP2 NMR, DLPNO-MP2 response
   Willem Van den Heuvel  : Paramagnetic NMR
   Boris Wezisla          : Elementary symmetry handling
   Frank Wennmohs         : Technical directorship


 We gratefully acknowledge several colleagues who have allowed us to
 interface, adapt or use parts of their codes:
   Stefan Grimme, W. Hujo, H. Kruse, P. Pracht,  : VdW corrections, initial TS optimization,
                  C. Bannwarth, S. Ehlert          DFT functionals, gCP, sTDA/sTD-DF
   Ed Valeev, F. Pavosevic, A. Kumar             : LibInt (2-el integral package), F12 methods
   Garnet Chan, S. Sharma, J. Yang, R. Olivares  : DMRG
   Ulf Ekstrom                                   : XCFun DFT Library
   Mihaly Kallay                                 : mrcc  (arbitrary order and MRCC methods)
   Jiri Pittner, Ondrej Demel                    : Mk-CCSD
   Frank Weinhold                                : gennbo (NPA and NBO analysis)
   Christopher J. Cramer and Donald G. Truhlar   : smd solvation model
   Lars Goerigk                                  : TD-DFT with DH, B97 family of functionals
   V. Asgeirsson, H. Jonsson                     : NEB implementation
   FAccTs GmbH                                   : IRC, NEB, NEB-TS, DLPNO-Multilevel, CI-OPT
                                                   MM, QMMM, 2- and 3-layer-ONIOM, Crystal-QMMM,
                                                   LR-CPCM, SF, NACMEs, symmetry and pop. for TD-DFT,
                                                   nearIR, NL-DFT gradient (VV10), updates on ESD,
                                                   ML-optimized integration grids
   S Lehtola, MJT Oliveira, MAL Marques          : LibXC Library
   Liviu Ungur et al                             : ANISO software


 Your calculation uses the libint2 library for the computation of 2-el integrals
 For citations please refer to: http://libint.valeyev.net

 Your ORCA version has been built with support for libXC version: 5.1.0
 For citations please refer to: https://tddft.org/programs/libxc/

 This ORCA versions uses:
   CBLAS   interface :  Fast vector & matrix operations
   LAPACKE interface :  Fast linear algebra routines
   SCALAPACK package :  Parallel linear algebra routines
   Shared memory     :  Shared parallel matrices
   BLAS/LAPACK       :  OpenBLAS 0.3.15  USE64BITINT DYNAMIC_ARCH NO_AFFINITY SkylakeX SINGLE_THREADED
        Core in use  :  SkylakeX
   Copyright (c) 2011-2014, The OpenBLAS Project




***************************************
The coordinates will be read from file: 8_deprot_aq_4.xyz
***************************************


Your calculation utilizes the atom-pairwise dispersion correction
based on tight binding partial charges (D4)
Cite in your paper:
E.Caldeweyher, C.Bannwarth, S.Grimme, J.Chem.Phys., (2017), 147, 034112.
E.Caldeweyher, S.Ehlert, A.Hansen, H.Neugebauer, S.Grimme, J.Chem.Phys., (2018), in progress.
   

XCFun DFT library Copyright 2009-2010 Ulf Ekstrom and contributors.
See http://admol.org/xcfun for more information.
This is free software; see the source code for copying conditions.
There is ABSOLUTELY NO WARRANTY; not even for MERCHANTABILITY or FITNESS FOR A PARTICULAR PURPOSE.
For details see the documentation.
Scientific users of this library should cite U. Ekstrom, L. Visscher, R. Bast, A. J. Thorvaldsen and K. Ruud;
J.Chem.Theor.Comp. 2010, DOI: 10.1021/ct100117s
XCFun Version 0.99 

================================================================================

----- Orbital basis set information -----
Your calculation utilizes the basis: def2-SVP
   F. Weigend and R. Ahlrichs, Phys. Chem. Chem. Phys. 7, 3297 (2005).

----- AuxJ basis set information -----
Your calculation utilizes the auxiliary basis: def2/J
   F. Weigend, Phys. Chem. Chem. Phys. 8, 1057 (2006).

================================================================================
                                        WARNINGS
                       Please study these warnings very carefully!
================================================================================

WARNING: Old DensityContainer found on disk!
         Will remove this file - 
         If you want to keep old densities, please start your calculation with a different basename. 


WARNING: Geometry Optimization
  ===> : Switching off AutoStart
         For restart on a previous wavefunction, please use MOREAD

INFO   : the flag for use of the SHARK integral package has been found!

================================================================================
                                       INPUT FILE
================================================================================
NAME = 8_deprot_aq_4.inp
|  1> # ORCA 5.0.4 - /users/bwb16179/postgrad/2024_03/DFT_Crest_Conformers/Opt/deprot/8_deprot_aq_4.inp # write input file
|  2> # Basic Mode
|  3> #
|  4> ! Opt Freq wB97X Def2-SVP D4 SlowConv TightSCF Defgrid2 Def2/J RIJCOSX CPCM(Water)
|  5> 
|  6> 
|  7> 
|  8> %maxcore 4500
|  9> 
| 10> %geom
| 11> Maxiter 150
| 12> END
| 13> 
| 14> * xyzfile 0 1 8_deprot_aq_4.xyz
| 15> 
| 16>                          ****END OF INPUT****
================================================================================

                       *****************************
                       * Geometry Optimization Run *
                       *****************************

Geometry optimization settings:
Update method            Update   .... BFGS
Choice of coordinates    CoordSys .... Z-matrix Internals
Initial Hessian          InHess   .... Almoef's Model

Convergence Tolerances:
Energy Change            TolE     ....  5.0000e-06 Eh
Max. Gradient            TolMAXG  ....  3.0000e-04 Eh/bohr
RMS Gradient             TolRMSG  ....  1.0000e-04 Eh/bohr
Max. Displacement        TolMAXD  ....  4.0000e-03 bohr
RMS Displacement         TolRMSD  ....  2.0000e-03 bohr
Strict Convergence                ....  False
------------------------------------------------------------------------------
                        ORCA OPTIMIZATION COORDINATE SETUP
------------------------------------------------------------------------------

The optimization will be done in new redundant internal coordinates
Making redundant internal coordinates   ...  (new redundants) done
Evaluating the initial hessian          ...  (Almloef) done
Evaluating the coordinates              ...  done
Calculating the B-matrix                .... done
Calculating the G-matrix                .... done
Diagonalizing the G-matrix              .... done
Small eigenvalue found = 3.400e-03
Small eigenvalue found = 6.369e-03
Small eigenvalue found = 8.236e-03
Small eigenvalue found = 1.324e-02
Small eigenvalue found = 1.762e-02
The first mode is                       ....   95
The number of degrees of freedom        ....  117

    -----------------------------------------------------------------
                    Redundant Internal Coordinates


    -----------------------------------------------------------------
         Definition                    Initial Value    Approx d2E/dq
    -----------------------------------------------------------------
      1. B(C   1,N   0)                  1.3606         0.623379   
      2. B(N   2,C   1)                  1.3605         0.623744   
      3. B(C   3,N   2)                  1.3902         0.559239   
      4. B(C   4,C   3)                  1.3534         0.714600   
      5. B(C   4,N   0)                  1.3901         0.559403   
      6. B(C   5,N   0)                  1.4327         0.478401   
      7. B(C   6,N   2)                  1.4327         0.478344   
      8. B(C   7,C   5)                  1.4027         0.596381   
      9. B(C   8,C   5)                  1.4026         0.596542   
     10. B(C   9,C   6)                  1.4025         0.596737   
     11. B(C  10,C   6)                  1.4024         0.596974   
     12. B(H  11,C   3)                  1.0888         0.361682   
     13. B(H  12,C   4)                  1.0888         0.361667   
     14. B(C  13,C   8)                  1.3988         0.604976   
     15. B(C  14,C  13)                  1.3931         0.617626   
     16. B(C  15,C  14)                  1.3932         0.617503   
     17. B(C  15,C   7)                  1.3984         0.605741   
     18. B(C  16,C   9)                  1.3985         0.605613   
     19. B(C  17,C  16)                  1.3933         0.617346   
     20. B(C  18,C  17)                  1.3932         0.617514   
     21. B(C  18,C  10)                  1.3987         0.605074   
     22. B(C  19,C   7)                  1.5060         0.407978   
     23. B(C  20,C   8)                  1.5060         0.408017   
     24. B(H  21,C  13)                  1.0943         0.354476   
     25. B(H  22,C  14)                  1.0938         0.355063   
     26. B(H  23,C  15)                  1.0943         0.354512   
     27. B(C  24,C   9)                  1.5058         0.408251   
     28. B(H  25,C  18)                  1.0943         0.354505   
     29. B(C  26,C  10)                  1.5060         0.407947   
     30. B(H  27,C  16)                  1.0943         0.354482   
     31. B(H  28,C  17)                  1.0938         0.355065   
     32. B(H  29,C  20)                  1.0987         0.348741   
     33. B(H  30,C  20)                  1.1014         0.345291   
     34. B(H  31,C  20)                  1.1019         0.344681   
     35. B(H  32,C  19)                  1.1018         0.344864   
     36. B(H  33,C  19)                  1.0986         0.348892   
     37. B(H  34,C  19)                  1.1016         0.345082   
     38. B(H  35,C  26)                  1.1019         0.344715   
     39. B(H  36,C  26)                  1.0987         0.348789   
     40. B(H  37,C  26)                  1.1015         0.345237   
     41. B(H  38,C  24)                  1.1018         0.344841   
     42. B(H  39,C  24)                  1.1017         0.344931   
     43. B(H  40,C  24)                  1.0986         0.348906   
     44. A(C   4,N   0,C   5)          123.7611         0.401702   
     45. A(C   1,N   0,C   5)          123.3357         0.409460   
     46. A(C   1,N   0,C   4)          112.9033         0.421009   
     47. A(N   0,C   1,N   2)          102.2493         0.429292   
     48. A(C   1,N   2,C   6)          123.3356         0.409494   
     49. A(C   1,N   2,C   3)          112.9072         0.421031   
     50. A(C   3,N   2,C   6)          123.7568         0.401672   
     51. A(C   4,C   3,H  11)          131.4299         0.361799   
     52. A(N   2,C   3,C   4)          105.9680         0.434250   
     53. A(N   2,C   3,H  11)          122.6022         0.344952   
     54. A(C   3,C   4,H  12)          131.4227         0.361797   
     55. A(N   0,C   4,H  12)          122.6050         0.344966   
     56. A(N   0,C   4,C   3)          105.9722         0.434273   
     57. A(C   7,C   5,C   8)          122.5041         0.428073   
     58. A(N   0,C   5,C   8)          118.7869         0.408917   
     59. A(N   0,C   5,C   7)          118.7090         0.408897   
     60. A(N   2,C   6,C  10)          118.7939         0.408960   
     61. A(N   2,C   6,C   9)          118.7025         0.408932   
     62. A(C   9,C   6,C  10)          122.5036         0.428174   
     63. A(C  15,C   7,C  19)          121.3666         0.401232   
     64. A(C   5,C   7,C  19)          120.7479         0.400133   
     65. A(C   5,C   7,C  15)          117.8839         0.429249   
     66. A(C   5,C   8,C  13)          117.8475         0.429173   
     67. A(C  13,C   8,C  20)          121.2945         0.401149   
     68. A(C   5,C   8,C  20)          120.8551         0.400159   
     69. A(C   6,C   9,C  16)          117.8723         0.429279   
     70. A(C   6,C   9,C  24)          120.7544         0.400222   
     71. A(C  16,C   9,C  24)          121.3717         0.401264   
     72. A(C   6,C  10,C  18)          117.8745         0.429241   
     73. A(C  18,C  10,C  26)          121.3365         0.401149   
     74. A(C   6,C  10,C  26)          120.7856         0.400198   
     75. A(C   8,C  13,C  14)          120.7544         0.431858   
     76. A(C  14,C  13,H  21)          120.0855         0.351742   
     77. A(C   8,C  13,H  21)          119.1600         0.350514   
     78. A(C  13,C  14,C  15)          120.2793         0.433452   
     79. A(C  15,C  14,H  22)          119.8638         0.351829   
     80. A(C  13,C  14,H  22)          119.8568         0.351840   
     81. A(C   7,C  15,C  14)          120.7307         0.431940   
     82. A(C  14,C  15,H  23)          120.1432         0.351736   
     83. A(C   7,C  15,H  23)          119.1260         0.350595   
     84. A(C   9,C  16,C  17)          120.7419         0.431904   
     85. A(C  17,C  16,H  27)          120.1182         0.351716   
     86. A(C   9,C  16,H  27)          119.1398         0.350578   
     87. A(C  16,C  17,C  18)          120.2749         0.433418   
     88. A(C  18,C  17,H  28)          119.8513         0.351830   
     89. A(C  16,C  17,H  28)          119.8738         0.351814   
     90. A(C  10,C  18,C  17)          120.7324         0.431856   
     91. A(C  17,C  18,H  25)          120.0918         0.351736   
     92. A(C  10,C  18,H  25)          119.1757         0.350529   
     93. A(H  33,C  19,H  34)          108.5349         0.287477   
     94. A(H  32,C  19,H  34)          106.8906         0.286956   
     95. A(H  32,C  19,H  33)          108.1899         0.287449   
     96. A(C   7,C  19,H  33)          110.8191         0.327346   
     97. A(C   7,C  19,H  32)          111.3459         0.326720   
     98. A(C   7,C  19,H  34)          110.9149         0.326754   
     99. A(H  30,C  20,H  31)          106.8465         0.286959   
    100. A(H  29,C  20,H  31)          108.2988         0.287405   
    101. A(C   8,C  20,H  31)          110.9015         0.326697   
    102. A(H  29,C  20,H  30)          108.4833         0.287485   
    103. A(C   8,C  20,H  30)          111.3996         0.326792   
    104. A(C   8,C  20,H  29)          110.7652         0.327328   
    105. A(H  39,C  24,H  40)          108.2660         0.287459   
    106. A(H  38,C  24,H  40)          108.4926         0.287447   
    107. A(C   9,C  24,H  40)          110.8259         0.327384   
    108. A(H  38,C  24,H  39)          106.8519         0.286934   
    109. A(C   9,C  24,H  39)          111.3418         0.326767   
    110. A(C   9,C  24,H  38)          110.9162         0.326753   
    111. A(C  10,C  26,H  36)          110.7800         0.327326   
    112. A(C  10,C  26,H  35)          110.8661         0.326693   
    113. A(H  36,C  26,H  37)          108.4094         0.287484   
    114. A(H  35,C  26,H  37)          106.8722         0.286957   
    115. A(C  10,C  26,H  37)          111.4167         0.326775   
    116. A(H  35,C  26,H  36)          108.3508         0.287416   
    117. D(N   2,C   1,N   0,C   5)   -179.9910         0.028533   
    118. D(N   2,C   1,N   0,C   4)      0.0122         0.028533   
    119. D(C   6,N   2,C   1,N   0)    179.8270         0.028569   
    120. D(C   3,N   2,C   1,N   0)      0.0357         0.028569   
    121. D(H  11,C   3,N   2,C   6)      0.1719         0.024973   
    122. D(C   4,C   3,N   2,C   1)     -0.0704         0.024973   
    123. D(C   4,C   3,N   2,C   6)   -179.8607         0.024973   
    124. D(H  11,C   3,N   2,C   1)    179.9622         0.024973   
    125. D(H  12,C   4,C   3,N   2)   -179.8600         0.036094   
    126. D(N   0,C   4,C   3,H  11)   -179.9649         0.036094   
    127. D(H  12,C   4,N   0,C   5)     -0.1125         0.024989   
    128. D(N   0,C   4,C   3,N   2)      0.0718         0.036094   
    129. D(H  12,C   4,N   0,C   1)    179.8843         0.024989   
    130. D(C   3,C   4,N   0,C   5)    179.9482         0.024989   
    131. D(H  12,C   4,C   3,H  11)      0.1033         0.036094   
    132. D(C   3,C   4,N   0,C   1)     -0.0550         0.024989   
    133. D(C   8,C   5,N   0,C   1)     85.1442         0.018052   
    134. D(C   8,C   5,N   0,C   4)    -94.8593         0.018052   
    135. D(C   7,C   5,N   0,C   4)     85.1714         0.018052   
    136. D(C   7,C   5,N   0,C   1)    -94.8251         0.018052   
    137. D(C  10,C   6,N   2,C   3)    -92.1345         0.018048   
    138. D(C  10,C   6,N   2,C   1)     88.0967         0.018048   
    139. D(C   9,C   6,N   2,C   3)     87.8974         0.018048   
    140. D(C   9,C   6,N   2,C   1)    -91.8714         0.018048   
    141. D(C  19,C   7,C   5,C   8)   -179.4779         0.024503   
    142. D(C  19,C   7,C   5,N   0)      0.4902         0.024503   
    143. D(C  15,C   7,C   5,C   8)      0.0576         0.024503   
    144. D(C  15,C   7,C   5,N   0)   -179.9744         0.024503   
    145. D(C  20,C   8,C   5,N   0)     -0.5941         0.024517   
    146. D(C  13,C   8,C   5,C   7)     -0.0204         0.024517   
    147. D(C  13,C   8,C   5,N   0)   -179.9885         0.024517   
    148. D(C  20,C   8,C   5,C   7)    179.3740         0.024517   
    149. D(C  24,C   9,C   6,C  10)   -179.4523         0.024534   
    150. D(C  24,C   9,C   6,N   2)      0.5146         0.024534   
    151. D(C  16,C   9,C   6,C  10)      0.1058         0.024534   
    152. D(C  16,C   9,C   6,N   2)   -179.9273         0.024534   
    153. D(C  26,C  10,C   6,C   9)    179.2465         0.024555   
    154. D(C  18,C  10,C   6,C   9)     -0.0973         0.024555   
    155. D(C  26,C  10,C   6,N   2)     -0.7204         0.024555   
    156. D(C  18,C  10,C   6,N   2)    179.9358         0.024555   
    157. D(H  21,C  13,C   8,C  20)      0.6630         0.025254   
    158. D(H  21,C  13,C   8,C   5)   -179.9454         0.025254   
    159. D(C  14,C  13,C   8,C  20)   -179.4651         0.025254   
    160. D(C  14,C  13,C   8,C   5)     -0.0735         0.025254   
    161. D(H  22,C  14,C  13,H  21)     -0.0096         0.026384   
    162. D(H  22,C  14,C  13,C   8)   -179.8803         0.026384   
    163. D(C  15,C  14,C  13,H  21)    179.9999         0.026384   
    164. D(C  15,C  14,C  13,C   8)      0.1292         0.026384   
    165. D(H  23,C  15,C  14,H  22)     -0.1526         0.026373   
    166. D(C   7,C  15,C  14,H  22)    179.9192         0.026373   
    167. D(C   7,C  15,C  14,C  13)     -0.0904         0.026373   
    168. D(H  23,C  15,C   7,C  19)     -0.3982         0.025321   
    169. D(H  23,C  15,C   7,C   5)   -179.9306         0.025321   
    170. D(H  23,C  15,C  14,C  13)    179.8378         0.026373   
    171. D(C  14,C  15,C   7,C  19)    179.5307         0.025321   
    172. D(C  14,C  15,C   7,C   5)     -0.0017         0.025321   
    173. D(H  27,C  16,C   9,C  24)     -0.4839         0.025310   
    174. D(H  27,C  16,C   9,C   6)    179.9608         0.025310   
    175. D(C  17,C  16,C   9,C  24)    179.5627         0.025310   
    176. D(C  17,C  16,C   9,C   6)      0.0075         0.025310   
    177. D(H  28,C  17,C  16,C   9)    179.8689         0.026358   
    178. D(C  18,C  17,C  16,H  27)    179.9211         0.026358   
    179. D(C  18,C  17,C  16,C   9)     -0.1261         0.026358   
    180. D(H  28,C  17,C  16,H  27)     -0.0840         0.026358   
    181. D(H  25,C  18,C  17,H  28)      0.0977         0.026374   
    182. D(H  25,C  18,C  17,C  16)   -179.9073         0.026374   
    183. D(C  10,C  18,C  17,H  28)   -179.8600         0.026374   
    184. D(C  10,C  18,C  17,C  16)      0.1349         0.026374   
    185. D(H  25,C  18,C  10,C  26)      0.6771         0.025262   
    186. D(H  25,C  18,C  10,C   6)   -179.9828         0.025262   
    187. D(C  17,C  18,C  10,C  26)   -179.3648         0.025262   
    188. D(C  17,C  18,C  10,C   6)     -0.0247         0.025262   
    189. D(H  34,C  19,C   7,C  15)   -124.2789         0.012332   
    190. D(H  34,C  19,C   7,C   5)     55.2401         0.012332   
    191. D(H  33,C  19,C   7,C  15)     -3.6558         0.012332   
    192. D(H  33,C  19,C   7,C   5)    175.8633         0.012332   
    193. D(H  32,C  19,C   7,C  15)    116.8200         0.012332   
    194. D(H  32,C  19,C   7,C   5)    -63.6609         0.012332   
    195. D(H  31,C  20,C   8,C  13)    112.9927         0.012335   
    196. D(H  31,C  20,C   8,C   5)    -66.3807         0.012335   
    197. D(H  30,C  20,C   8,C  13)   -128.1353         0.012335   
    198. D(H  30,C  20,C   8,C   5)     52.4913         0.012335   
    199. D(H  29,C  20,C   8,C  13)     -7.2882         0.012335   
    200. D(H  29,C  20,C   8,C   5)    173.3385         0.012335   
    201. D(H  40,C  24,C   9,C  16)     -0.7025         0.012348   
    202. D(H  40,C  24,C   9,C   6)    178.8400         0.012348   
    203. D(H  39,C  24,C   9,C  16)    119.8715         0.012348   
    204. D(H  39,C  24,C   9,C   6)    -60.5860         0.012348   
    205. D(H  38,C  24,C   9,C  16)   -121.2778         0.012348   
    206. D(H  38,C  24,C   9,C   6)     58.2647         0.012348   
    207. D(H  37,C  26,C  10,C  18)   -125.6978         0.012330   
    208. D(H  37,C  26,C  10,C   6)     54.9812         0.012330   
    209. D(H  36,C  26,C  10,C  18)     -4.9227         0.012330   
    210. D(H  36,C  26,C  10,C   6)    175.7564         0.012330   
    211. D(H  35,C  26,C  10,C  18)    115.4101         0.012330   
    212. D(H  35,C  26,C  10,C   6)    -63.9108         0.012330   
    -----------------------------------------------------------------

Number of atoms                         .... 41
Number of degrees of freedom            .... 212

         *************************************************************
         *                GEOMETRY OPTIMIZATION CYCLE   1            *
         *************************************************************
---------------------------------
CARTESIAN COORDINATES (ANGSTROEM)
---------------------------------
  N     -1.061702    0.051196    0.467226
  C      0.000041    0.003858   -0.382327
  N      1.054957   -0.034075    0.475905
  C      0.667551   -0.012120    1.810827
  C     -0.684740    0.043428    1.805210
  C     -2.423049    0.103511    0.023885
  C      2.419615   -0.095007    0.043881
  C     -3.046017    1.354811   -0.092919
  C     -3.081906   -1.097500   -0.277378
  C      3.021451   -1.352260   -0.111479
  C      3.102509    1.103682   -0.208163
  H      1.384191   -0.037346    2.630151
  H     -1.407652    0.078809    2.618642
  C     -4.410469   -1.023547   -0.708686
  C     -5.052285    0.206873   -0.831091
  C     -4.375143    1.385753   -0.526596
  C      4.354506   -1.391454   -0.532432
  C      5.055799   -0.214824   -0.787226
  C      4.434331    1.021827   -0.627684
  C     -2.297159    2.620898    0.230084
  C     -2.372587   -2.420067   -0.152094
  H     -4.945352   -1.947534   -0.948698
  H     -6.092200    0.247493   -1.167843
  H     -4.880594    2.351166   -0.626071
  C      2.247180   -2.615251    0.158529
  H      4.987492    1.944026   -0.830094
  C      2.413051    2.432639   -0.044834
  H      4.844768   -2.361436   -0.659821
  H      6.098675   -0.261978   -1.113810
  H     -3.070677   -3.253225   -0.312454
  H     -1.912184   -2.536621    0.841685
  H     -1.560191   -2.502099   -0.892023
  H     -2.007425    2.655524    1.292510
  H     -2.912722    3.504703    0.013501
  H     -1.367829    2.688895   -0.357485
  H      1.582746    2.534791   -0.761988
  H      3.116887    3.259870   -0.210416
  H      1.980540    2.540255    0.962439
  H      1.350638   -2.670994   -0.479466
  H      1.899013   -2.656565    1.202966
  H      2.866940   -3.501856   -0.033158

----------------------------
CARTESIAN COORDINATES (A.U.)
----------------------------
  NO LB      ZA    FRAG     MASS         X           Y           Z
   0 N     7.0000    0    14.007   -2.006327    0.096747    0.882929
   1 C     6.0000    0    12.011    0.000078    0.007290   -0.722494
   2 N     7.0000    0    14.007    1.993580   -0.064392    0.899330
   3 C     6.0000    0    12.011    1.261488   -0.022904    3.421968
   4 C     6.0000    0    12.011   -1.293971    0.082066    3.411352
   5 C     6.0000    0    12.011   -4.578900    0.195607    0.045135
   6 C     6.0000    0    12.011    4.572409   -0.179538    0.082922
   7 C     6.0000    0    12.011   -5.756137    2.560222   -0.175591
   8 C     6.0000    0    12.011   -5.823959   -2.073974   -0.524169
   9 C     6.0000    0    12.011    5.709716   -2.555401   -0.210666
  10 C     6.0000    0    12.011    5.862892    2.085657   -0.393371
  11 H     1.0000    0     1.008    2.615743   -0.070573    4.970265
  12 H     1.0000    0     1.008   -2.660077    0.148927    4.948516
  13 C     6.0000    0    12.011   -8.334578   -1.934223   -1.339222
  14 C     6.0000    0    12.011   -9.547436    0.390934   -1.570535
  15 C     6.0000    0    12.011   -8.267822    2.618693   -0.995121
  16 C     6.0000    0    12.011    8.228824   -2.629466   -1.006151
  17 C     6.0000    0    12.011    9.554076   -0.405959   -1.487642
  18 C     6.0000    0    12.011    8.379671    1.930972   -1.186151
  19 C     6.0000    0    12.011   -4.341001    4.952779    0.434796
  20 C     6.0000    0    12.011   -4.483539   -4.573265   -0.287415
  21 H     1.0000    0     1.008   -9.345361   -3.680306   -1.792780
  22 H     1.0000    0     1.008  -11.512590    0.467693   -2.206903
  23 H     1.0000    0     1.008   -9.222985    4.443061   -1.183103
  24 C     6.0000    0    12.011    4.246555   -4.942108    0.299576
  25 H     1.0000    0     1.008    9.424995    3.673677   -1.568650
  26 C     6.0000    0    12.011    4.560005    4.597022   -0.084723
  27 H     1.0000    0     1.008    9.155284   -4.462466   -1.246881
  28 H     1.0000    0     1.008   11.524826   -0.495067   -2.104795
  29 H     1.0000    0     1.008   -5.802739   -6.147704   -0.590452
  30 H     1.0000    0     1.008   -3.613504   -4.793519    1.590554
  31 H     1.0000    0     1.008   -2.948334   -4.728282   -1.685680
  32 H     1.0000    0     1.008   -3.793484    5.018213    2.442490
  33 H     1.0000    0     1.008   -5.504247    6.622929    0.025512
  34 H     1.0000    0     1.008   -2.584823    5.081275   -0.675549
  35 H     1.0000    0     1.008    2.990956    4.790062   -1.439948
  36 H     1.0000    0     1.008    5.890062    6.160262   -0.397629
  37 H     1.0000    0     1.008    3.742679    4.800386    1.818747
  38 H     1.0000    0     1.008    2.552335   -5.047447   -0.906060
  39 H     1.0000    0     1.008    3.588614   -5.020181    2.273276
  40 H     1.0000    0     1.008    5.417731   -6.617549   -0.062659

--------------------------------
INTERNAL COORDINATES (ANGSTROEM)
--------------------------------
 N      0   0   0     0.000000000000     0.00000000     0.00000000
 C      1   0   0     1.360618100338     0.00000000     0.00000000
 N      2   1   0     1.360458723151   102.24928591     0.00000000
 C      3   2   1     1.390174284538   112.90721233     0.03570602
 C      4   3   2     1.353442785615   105.96797527   359.92959441
 C      1   2   3     1.432673892467   123.33566788   180.00896212
 C      3   2   1     1.432706515588   123.33559385   179.82700445
 C      6   1   2     1.402670268149   118.70900454   265.17491167
 C      6   1   2     1.402596824143   118.78693785    85.14419503
 C      7   3   2     1.402507904465   118.70245970   268.12858939
 C      7   3   2     1.402400046454   118.79390820    88.09674311
 H      4   3   2     1.088807079808   122.60215454   179.96218634
 H      5   4   3     1.088818233589   131.42274131   180.13996491
 C      9   6   1     1.398775464644   117.84750066   180.01149601
 C     14   9   6     1.393142037117   120.75437964   359.92650561
 C     15  14   9     1.393196214367   120.27933653     0.12923036
 C     10   7   3     1.398489016969   117.87232968   180.07274107
 C     17  10   7     1.393265716166   120.74194863     0.00000000
 C     18  17  10     1.393191232128   120.27491746   359.87394934
 C      8   6   1     1.506019393995   120.74789221     0.49022147
 C      9   6   1     1.505993381471   120.85511257   359.40592033
 H     14   9   6     1.094284665983   119.15996979   180.05462982
 H     15  14   9     1.093834806777   119.85683566   180.11968814
 H     16  15  14     1.094257422516   120.14317765   179.83781143
 C     10   7   3     1.505837489701   120.75443613     0.51464504
 H     19  18  17     1.094262274664   120.09184575   180.09268246
 C     11   7   3     1.506039983128   120.78558432   359.27963861
 H     17  10   7     1.094280305295   119.13983385   179.96084827
 H     18  17  10     1.093832945955   119.87380055   179.86889406
 H     21   9   6     1.098724947864   110.76521907   173.33845131
 H     21   9   6     1.101431421932   111.39958494    52.49128032
 H     21   9   6     1.101912827178   110.90154172   293.61932529
 H     20   8   6     1.101768398866   111.34588292   296.33905327
 H     20   8   6     1.098607259673   110.81907625   175.86329812
 H     20   8   6     1.101596287008   110.91485684    55.24013386
 H     27  11   7     1.101885527840   110.86612895   296.08918324
 H     27  11   7     1.098687551773   110.78003905   175.75640881
 H     27  11   7     1.101474164912   111.41671702    54.98124949
 H     25  10   7     1.101786480215   110.91618575    58.26465755
 H     25  10   7     1.101714885569   111.34179145   299.41397146
 H     25  10   7     1.098596493133   110.82588719   178.83999616

---------------------------
INTERNAL COORDINATES (A.U.)
---------------------------
 N      0   0   0     0.000000000000     0.00000000     0.00000000
 C      1   0   0     2.571195582495     0.00000000     0.00000000
 N      2   1   0     2.570894403260   102.24928591     0.00000000
 C      3   2   1     2.627048676196   112.90721233     0.03570602
 C      4   3   2     2.557636202743   105.96797527   359.92959441
 C      1   2   3     2.707361295981   123.33566788   180.00896212
 C      3   2   1     2.707422944747   123.33559385   179.82700445
 C      6   1   2     2.650662662995   118.70900454   265.17491167
 C      6   1   2     2.650523873938   118.78693785    85.14419503
 C      7   3   2     2.650355840098   118.70245970   268.12858939
 C      7   3   2     2.650152017996   118.79390820    88.09674311
 H      4   3   2     2.057547193512   122.60215454   179.96218634
 H      5   4   3     2.057568271103   131.42274131   180.13996491
 C      9   6   1     2.643302551025   117.84750066   180.01149601
 C     14   9   6     2.632656915804   120.75437964   359.92650561
 C     15  14   9     2.632759295970   120.27933653     0.12923036
 C     10   7   3     2.642761243369   117.87232968   180.07274107
 C     17  10   7     2.632890635335   120.74194863     0.00000000
 C     18  17  10     2.632749880901   120.27491746   359.87394934
 C      8   6   1     2.845964207024   120.74789221     0.49022147
 C      9   6   1     2.845915050479   120.85511257   359.40592033
 H     14   9   6     2.067898331258   119.15996979   180.05462982
 H     15  14   9     2.067048220560   119.85683566   180.11968814
 H     16  15  14     2.067846848565   120.14317765   179.83781143
 C     10   7   3     2.845620457726   120.75443613     0.51464504
 H     19  18  17     2.067856017797   120.09184575   180.09268246
 C     11   7   3     2.846003114847   120.78558432   359.27963861
 H     17  10   7     2.067890090751   119.13983385   179.96084827
 H     18  17  10     2.067044704116   119.87380055   179.86889406
 H     21   9   6     2.076289247970   110.76521907   173.33845131
 H     21   9   6     2.081403742746   111.39958494    52.49128032
 H     21   9   6     2.082313466821   110.90154172   293.61932529
 H     20   8   6     2.082040536866   111.34588292   296.33905327
 H     20   8   6     2.076066849520   110.81907625   175.86329812
 H     20   8   6     2.081715292590   110.91485684    55.24013386
 H     27  11   7     2.082261878548   110.86612895   296.08918324
 H     27  11   7     2.076218579599   110.78003905   175.75640881
 H     27  11   7     2.081484515273   111.41671702    54.98124949
 H     25  10   7     2.082074705664   110.91618575    58.26465755
 H     25  10   7     2.081939411390   111.34179145   299.41397146
 H     25  10   7     2.076046503708   110.82588719   178.83999616

---------------------
BASIS SET INFORMATION
---------------------
There are 3 groups of distinct atoms

 Group   1 Type N   : 7s4p1d contracted to 3s2p1d pattern {511/31/1}
 Group   2 Type C   : 7s4p1d contracted to 3s2p1d pattern {511/31/1}
 Group   3 Type H   : 4s1p contracted to 2s1p pattern {31/1}

Atom   0N    basis set group =>   1
Atom   1C    basis set group =>   2
Atom   2N    basis set group =>   1
Atom   3C    basis set group =>   2
Atom   4C    basis set group =>   2
Atom   5C    basis set group =>   2
Atom   6C    basis set group =>   2
Atom   7C    basis set group =>   2
Atom   8C    basis set group =>   2
Atom   9C    basis set group =>   2
Atom  10C    basis set group =>   2
Atom  11H    basis set group =>   3
Atom  12H    basis set group =>   3
Atom  13C    basis set group =>   2
Atom  14C    basis set group =>   2
Atom  15C    basis set group =>   2
Atom  16C    basis set group =>   2
Atom  17C    basis set group =>   2
Atom  18C    basis set group =>   2
Atom  19C    basis set group =>   2
Atom  20C    basis set group =>   2
Atom  21H    basis set group =>   3
Atom  22H    basis set group =>   3
Atom  23H    basis set group =>   3
Atom  24C    basis set group =>   2
Atom  25H    basis set group =>   3
Atom  26C    basis set group =>   2
Atom  27H    basis set group =>   3
Atom  28H    basis set group =>   3
Atom  29H    basis set group =>   3
Atom  30H    basis set group =>   3
Atom  31H    basis set group =>   3
Atom  32H    basis set group =>   3
Atom  33H    basis set group =>   3
Atom  34H    basis set group =>   3
Atom  35H    basis set group =>   3
Atom  36H    basis set group =>   3
Atom  37H    basis set group =>   3
Atom  38H    basis set group =>   3
Atom  39H    basis set group =>   3
Atom  40H    basis set group =>   3
---------------------------------
AUXILIARY/J BASIS SET INFORMATION
---------------------------------
There are 3 groups of distinct atoms

 Group   1 Type N   : 12s5p4d2f1g contracted to 6s4p3d1f1g pattern {711111/2111/211/2/1}
 Group   2 Type C   : 12s5p4d2f1g contracted to 6s4p3d1f1g pattern {711111/2111/211/2/1}
 Group   3 Type H   : 5s2p1d contracted to 3s1p1d pattern {311/2/1}

Atom   0N    basis set group =>   1
Atom   1C    basis set group =>   2
Atom   2N    basis set group =>   1
Atom   3C    basis set group =>   2
Atom   4C    basis set group =>   2
Atom   5C    basis set group =>   2
Atom   6C    basis set group =>   2
Atom   7C    basis set group =>   2
Atom   8C    basis set group =>   2
Atom   9C    basis set group =>   2
Atom  10C    basis set group =>   2
Atom  11H    basis set group =>   3
Atom  12H    basis set group =>   3
Atom  13C    basis set group =>   2
Atom  14C    basis set group =>   2
Atom  15C    basis set group =>   2
Atom  16C    basis set group =>   2
Atom  17C    basis set group =>   2
Atom  18C    basis set group =>   2
Atom  19C    basis set group =>   2
Atom  20C    basis set group =>   2
Atom  21H    basis set group =>   3
Atom  22H    basis set group =>   3
Atom  23H    basis set group =>   3
Atom  24C    basis set group =>   2
Atom  25H    basis set group =>   3
Atom  26C    basis set group =>   2
Atom  27H    basis set group =>   3
Atom  28H    basis set group =>   3
Atom  29H    basis set group =>   3
Atom  30H    basis set group =>   3
Atom  31H    basis set group =>   3
Atom  32H    basis set group =>   3
Atom  33H    basis set group =>   3
Atom  34H    basis set group =>   3
Atom  35H    basis set group =>   3
Atom  36H    basis set group =>   3
Atom  37H    basis set group =>   3
Atom  38H    basis set group =>   3
Atom  39H    basis set group =>   3
Atom  40H    basis set group =>   3
------------------------------------------------------------------------------
                           ORCA GTO INTEGRAL CALCULATION
                           -- RI-GTO INTEGRALS CHOSEN --
------------------------------------------------------------------------------
------------------------------------------------------------------------------
                   ___                                                        
                  /   \      - P O W E R E D   B Y -                         
                 /     \                                                     
                 |  |  |   _    _      __       _____    __    __             
                 |  |  |  | |  | |    /  \     |  _  \  |  |  /  |          
                  \  \/   | |  | |   /    \    | | | |  |  | /  /          
                 / \  \   | |__| |  /  /\  \   | |_| |  |  |/  /          
                |  |  |   |  __  | /  /__\  \  |    /   |      \           
                |  |  |   | |  | | |   __   |  |    \   |  |\   \          
                \     /   | |  | | |  |  |  |  | |\  \  |  | \   \       
                 \___/    |_|  |_| |__|  |__|  |_| \__\ |__|  \__/        
                                                                              
                      - O R C A' S   B I G   F R I E N D -                    
                                      &                                       
                       - I N T E G R A L  F E E D E R -                       
                                                                              
 v1 FN, 2020, v2 2021                                                         
------------------------------------------------------------------------------


Reading SHARK input file 8_deprot_aq_4.SHARKINP.tmp ... ok
----------------------
SHARK INTEGRAL PACKAGE
----------------------

Number of atoms                             ...     41
Number of basis functions                   ...    394
Number of shells                            ...    186
Maximum angular momentum                    ...      2
Integral batch strategy                     ... SHARK/LIBINT Hybrid
RI-J (if used) integral strategy            ... SPLIT-RIJ (Revised 2003 algorithm where possible)
Printlevel                                  ...      1
Contraction scheme used                     ... SEGMENTED contraction
Coulomb Range Separation                    ... NOT USED
Exchange Range Separation                   ... Long Range
   Mu parameter                             ...  0.300000
   Scaling (regular/separated)              ...  0.157706  0.842294
Finite Nucleus Model                        ... NOT USED
Auxiliary Coulomb fitting basis             ... AVAILABLE
   # of basis functions in Aux-J            ...   1249
   # of shells in Aux-J                     ...    415
   Maximum angular momentum in Aux-J        ...      4
Auxiliary J/K fitting basis                 ... NOT available
Auxiliary Correlation fitting basis         ... NOT available
Auxiliary 'external' fitting basis          ... NOT available
Integral threshold                          ...     2.500000e-11
Primitive cut-off                           ...     2.500000e-12
Primitive pair pre-selection threshold      ...     2.500000e-12

Calculating pre-screening integrals         ... done (  0.1 sec) Dimension = 186
Organizing shell pair data                  ... done (  0.1 sec)
Shell pair information
Total number of shell pairs                 ...     17391
Shell pairs after pre-screening             ...     13194
Total number of primitive shell pairs       ...     62461
Primitive shell pairs kept                  ...     30389
          la=0 lb=0:   4170 shell pairs
          la=1 lb=0:   4928 shell pairs
          la=1 lb=1:   1491 shell pairs
          la=2 lb=0:   1538 shell pairs
          la=2 lb=1:    915 shell pairs
          la=2 lb=2:    152 shell pairs

Calculating one electron integrals          ... done (  0.1 sec)
Calculating RI/J V-Matrix + Cholesky decomp.... done (  0.1 sec)
Calculating Nuclear repulsion               ... done (  0.0 sec) ENN=   1591.731911182504 Eh

SHARK setup successfully completed in   0.7 seconds

Maximum memory used throughout the entire GTOINT-calculation: 79.7 MB
-------------------------------------------------------------------------------
                                 ORCA SCF
-------------------------------------------------------------------------------

------------
SCF SETTINGS
------------
Hamiltonian:
 Density Functional     Method          .... DFT(GTOs)
 Exchange Functional    Exchange        .... WB97X
 Correlation Functional Correlation     .... WB97X
 Gradients option       PostSCFGGA      .... off
 Hybrid DFT is turned on
   Fraction HF Exchange ScalHFX         ....  0.157706
   Scaling of DF-GGA-X  ScalDFX         ....  0.000000
   Scaling of DF-GGA-C  ScalDFC         ....  1.000000
   Scaling of DF-LDA-C  ScalLDAC        ....  1.000000
   Perturbative correction              ....  0.000000
   Density functional embedding theory  .... OFF
 Long-range corrected/Screened/Range-Separated Hybrid DFT is turned on
   Amount of maximum screened exact exchange              ....  0.842294
   Range separation parameter mu (erf(mu*r12)/r12)        ....  0.300000
 RI-approximation to the Coulomb term is turned on
   Number of AuxJ basis functions       .... 1249
   RIJ-COSX (HFX calculated with COS-X)).... on


General Settings:
 Integral files         IntName         .... 8_deprot_aq_4
 Hartree-Fock type      HFTyp           .... RHF
 Total Charge           Charge          ....    0
 Multiplicity           Mult            ....    1
 Number of Electrons    NEL             ....  148
 Basis Dimension        Dim             ....  394
 Nuclear Repulsion      ENuc            ....   1591.7319111825 Eh

Convergence Acceleration:
 DIIS                   CNVDIIS         .... on
   Start iteration      DIISMaxIt       ....     0
   Startup error        DIISStart       ....  0.200000
   # of expansion vecs  DIISMaxEq       ....     5
   Bias factor          DIISBfac        ....   1.050
   Max. coefficient     DIISMaxC        ....  10.000
 Trust-Rad. Augm. Hess. CNVTRAH         .... auto
   Auto Start mean grad. ratio tolernc. ....  1.125000
   Auto Start start iteration           ....    20
   Auto Start num. interpolation iter.  ....    10
   Max. Number of Micro iterations      ....    16
   Max. Number of Macro iterations      .... Maxiter - #DIIS iter
   Number of Davidson start vectors     ....     2
   Converg. threshold I  (grad. norm)   ....   1.000e-05
   Converg. threshold II (energy diff.) ....   1.000e-08
   Grad. Scal. Fac. for Micro threshold ....   0.100
   Minimum threshold for Micro iter.    ....   0.010
   NR start threshold (gradient norm)   ....   0.001
   Initial trust radius                 ....   0.400
   Minimum AH scaling param. (alpha)    ....   1.000
   Maximum AH scaling param. (alpha)    .... 1000.000
   Orbital update algorithm             .... Taylor
   White noise on init. David. guess    .... on
   Maximum white noise                  ....   0.010
   Quad. conv. algorithm                .... NR
 SOSCF                  CNVSOSCF        .... on
   Start iteration      SOSCFMaxIt      ....   150
   Startup grad/error   SOSCFStart      ....  0.001000
 Level Shifting         CNVShift        .... on
   Level shift para.    LevelShift      ....    0.2500
   Turn off err/grad.   ShiftErr        ....    0.0000
 Zerner damping         CNVZerner       .... off
 Static damping         CNVDamp         .... on
   Fraction old density DampFac         ....    0.8500
   Max. Damping (<1)    DampMax         ....    0.9800
   Min. Damping (>=0)   DampMin         ....    0.0000
   Turn off err/grad.   DampErr         ....    0.0300
 Fernandez-Rico         CNVRico         .... off

SCF Procedure:
 Maximum # iterations   MaxIter         ....   125
 SCF integral mode      SCFMode         .... Direct
   Integral package                     .... SHARK and LIBINT hybrid scheme
 Reset frequency        DirectResetFreq ....    20
 Integral Threshold     Thresh          ....  2.500e-11 Eh
 Primitive CutOff       TCut            ....  2.500e-12 Eh

Convergence Tolerance:
 Convergence Check Mode ConvCheckMode   .... Total+1el-Energy
 Convergence forced     ConvForced      .... 0
 Energy Change          TolE            ....  1.000e-08 Eh
 1-El. energy change                    ....  1.000e-05 Eh
 Orbital Gradient       TolG            ....  1.000e-05
 Orbital Rotation angle TolX            ....  1.000e-05
 DIIS Error             TolErr          ....  5.000e-07


Diagonalization of the overlap matrix:
Smallest eigenvalue                        ... 2.044e-04
Time for diagonalization                   ...    0.028 sec
Threshold for overlap eigenvalues          ... 1.000e-08
Number of eigenvalues below threshold      ... 0
Time for construction of square roots      ...    0.017 sec
Total time needed                          ...    0.047 sec

Time for model grid setup =    1.208 sec

------------------------------
INITIAL GUESS: MODEL POTENTIAL
------------------------------
Loading Hartree-Fock densities                     ... done
Calculating cut-offs                               ... done
Initializing the effective Hamiltonian             ... done
Setting up the integral package (SHARK)            ... done
Starting the Coulomb interaction                   ... done (   1.6 sec)
Reading the grid                                   ... done
Mapping shells                                     ... done
Starting the XC term evaluation                    ... done (   1.2 sec)
  promolecular density results
     # of electrons  =    148.003640466
     EX              =   -116.171615887
     EC              =     -4.929551776
     EX+EC           =   -121.101167662
Transforming the Hamiltonian                       ... done (   0.0 sec)
Diagonalizing the Hamiltonian                      ... done (   0.0 sec)
Back transforming the eigenvectors                 ... done (   0.0 sec)
Now organizing SCF variables                       ... done
                      ------------------
                      INITIAL GUESS DONE (   4.1 sec)
                      ------------------
-------------------
DFT GRID GENERATION
-------------------

General Integration Accuracy     IntAcc      ... 4.388
Radial Grid Type                 RadialGrid  ... OptM3 with GC (2021)
Angular Grid (max. ang.)         AngularGrid ... 4 (Lebedev-302)
Angular grid pruning method      GridPruning ... 4 (adaptive)
Weight generation scheme         WeightScheme... Becke
Basis function cutoff            BFCut       ... 1.0000e-11
Integration weight cutoff        WCut        ... 1.0000e-14
Angular grids for H and He will be reduced by one unit
Partially contracted basis set               ... off
Rotationally invariant grid construction     ... off

Total number of grid points                  ...   188659
Total number of batches                      ...     2969
Average number of points per batch           ...       63
Average number of grid points per atom       ...     4601
Time for grid setup =    4.100 sec

--------------------
COSX GRID GENERATION
--------------------

GRIDX 1
-------
General Integration Accuracy     IntAcc      ... 3.816
Radial Grid Type                 RadialGrid  ... OptM3 with GC (2021)
Angular Grid (max. ang.)         AngularGrid ... 1 (Lebedev-50)
Angular grid pruning method      GridPruning ... 4 (adaptive)
Weight generation scheme         WeightScheme... Becke
Basis function cutoff            BFCut       ... 1.0000e-11
Integration weight cutoff        WCut        ... 1.0000e-14
Angular grids for H and He will be reduced by one unit
Partially contracted basis set               ... on
Rotationally invariant grid construction     ... off

Total number of grid points                  ...    24036
Total number of batches                      ...      394
Average number of points per batch           ...       61
Average number of grid points per atom       ...      586
UseSFitting                                  ... on

GRIDX 2
-------
General Integration Accuracy     IntAcc      ... 4.020
Radial Grid Type                 RadialGrid  ... OptM3 with GC (2021)
Angular Grid (max. ang.)         AngularGrid ... 2 (Lebedev-110)
Angular grid pruning method      GridPruning ... 4 (adaptive)
Weight generation scheme         WeightScheme... Becke
Basis function cutoff            BFCut       ... 1.0000e-11
Integration weight cutoff        WCut        ... 1.0000e-14
Angular grids for H and He will be reduced by one unit
Partially contracted basis set               ... on
Rotationally invariant grid construction     ... off

Total number of grid points                  ...    51438
Total number of batches                      ...      825
Average number of points per batch           ...       62
Average number of grid points per atom       ...     1255
UseSFitting                                  ... on

GRIDX 3
-------
General Integration Accuracy     IntAcc      ... 4.338
Radial Grid Type                 RadialGrid  ... OptM3 with GC (2021)
Angular Grid (max. ang.)         AngularGrid ... 3 (Lebedev-194)
Angular grid pruning method      GridPruning ... 4 (adaptive)
Weight generation scheme         WeightScheme... Becke
Basis function cutoff            BFCut       ... 1.0000e-11
Integration weight cutoff        WCut        ... 1.0000e-14
Angular grids for H and He will be reduced by one unit
Partially contracted basis set               ... on
Rotationally invariant grid construction     ... off

Total number of grid points                  ...   112051
Total number of batches                      ...     1772
Average number of points per batch           ...       63
Average number of grid points per atom       ...     2733
UseSFitting                                  ... on

Time for X-Grid setup             =    5.534 sec


--------------------
CPCM SOLVATION MODEL
--------------------
CPCM parameters:
  Epsilon                                         ...      80.4000
  Refrac                                          ...       1.3300
  Rsolv                                           ...       1.3000
  Surface type                                    ... GAUSSIAN VDW
  Epsilon function type                           ...         CPCM
Radii:
 Radius for N  used is    3.5149 Bohr (=   1.8600 Ang.)
 Radius for C  used is    3.8550 Bohr (=   2.0400 Ang.)
 Radius for H  used is    2.4944 Bohr (=   1.3200 Ang.)
Calculating surface                               ...        done! (  0.0s)
GEPOL surface points                              ...         2158
GEPOL Volume                                      ...    2405.2365
GEPOL Surface-area                                ...    1219.2380
Calculating surface distance matrix               ...        done! (  0.0s)
Performing Cholesky decomposition & store         ...        done! (  0.2s)
Overall time for CPCM initialization              ...                 0.3s
--------------
SCF ITERATIONS
--------------
ITER       Energy         Delta-E        Max-DP      RMS-DP      [F,P]     Damp
               ***  Starting incremental Fock matrix formation  ***
  0   -844.3663089968   0.000000000000 0.03131013  0.00064386  0.1480677 0.8500
  1   -844.4402546455  -0.073945648630 0.02821419  0.00059532  0.1201349 0.8500
                               ***Turning on DIIS***
  2   -844.4977833168  -0.057528671374 0.02321329  0.00049219  0.0931173 0.8500
  3   -844.5413633603  -0.043580043405 0.01883031  0.00037437  0.0713492 0.8500
  4   -844.5753802762  -0.034016915901 0.01536665  0.00029906  0.0571175 0.8500
  5   -844.6023860346  -0.027005758420 0.01272506  0.00024935  0.0473546 0.8500
  6   -844.6243989097  -0.022012875084 0.01064500  0.00021137  0.0398835 0.8500
  7   -844.6426270468  -0.018228137117 0.00896336  0.00018129  0.0338009 0.8500
  8   -844.6578664631  -0.015239416276 0.05077746  0.00103621  0.0285990 0.0000
  9   -844.7399247340  -0.082058270966 0.00136340  0.00002832  0.0011092 0.0000
                      *** Initiating the SOSCF procedure ***
                           *** Shutting down DIIS ***
                      *** Re-Reading the Fockian *** 
                      *** Removing any level shift *** 
ITER      Energy       Delta-E        Grad      Rot      Max-DP    RMS-DP
 10   -844.73995638  -0.0000316455  0.000417  0.000417  0.000566  0.000014
               *** Restarting incremental Fock matrix formation ***
 11   -844.73988848   0.0000679029  0.000225  0.000513  0.000490  0.000014
 12   -844.73989045  -0.0000019776  0.000141  0.000569  0.000339  0.000010
 13   -844.73989095  -0.0000004925  0.000046  0.000098  0.000162  0.000004
 14   -844.73989104  -0.0000000968  0.000006  0.000015  0.000031  0.000001
 15   -844.73989105  -0.0000000018  0.000005  0.000015  0.000014  0.000000
                  ***Gradient check signals convergence***
              ***Rediagonalizing the Fockian in SOSCF/NRSCF***

               *****************************************************
               *                     SUCCESS                       *
               *           SCF CONVERGED AFTER  16 CYCLES          *
               *****************************************************

Old exchange energy                            =    -38.151510446 Eh
New exchange energy                            =    -38.151563253 Eh
Exchange energy change after final integration =     -0.000052808 Eh
Total energy after final integration           =   -844.739943901 Eh
Final COS-X integration done in                =   174.328 sec

----------------
TOTAL SCF ENERGY
----------------

Total Energy       :         -844.73994390 Eh          -22986.54249 eV

Components:
Nuclear Repulsion  :         1591.73191118 Eh           43313.22731 eV
Electronic Energy  :        -2436.47185508 Eh          -66299.76979 eV
One Electron Energy:        -4303.16474755 Eh         -117095.06578 eV
Two Electron Energy:         1866.69289247 Eh           50795.29599 eV
Max COSX asymmetry :            0.00000220 Eh               0.00006 eV
CPCM Dielectric    :           -0.02072146 Eh              -0.56386 eV

Virial components:
Potential Energy   :        -1679.50927379 Eh          -45701.77077 eV
Kinetic Energy     :          834.76932988 Eh           22715.22829 eV
Virial Ratio       :            2.01194415


DFT components:
N(Alpha)           :       74.000124731937 electrons
N(Beta)            :       74.000124731937 electrons
N(Total)           :      148.000249463874 electrons
E(XC)              :      -85.854267261005 Eh       
DFET-embed. en.    :        0.000000000000 Eh       
CPCM Solvation Model Properties:
Surface-charge          :           -0.02999449
Charge-correction       :           -0.00037412 Eh              -0.01018 eV
Free-energy (cav+disp)  :  This term is not implemented in the current solvation scheme

---------------
SCF CONVERGENCE
---------------

  Last Energy change         ...   -4.7824e-08  Tolerance :   1.0000e-08
  Last MAX-Density change    ...    5.7732e-15  Tolerance :   1.0000e-07
  Last RMS-Density change    ...    4.4621e-17  Tolerance :   5.0000e-09
  Last Orbital Gradient      ...    9.7051e-07  Tolerance :   1.0000e-05
  Last Orbital Rotation      ...    2.7038e-06  Tolerance :   1.0000e-05

             **** THE GBW FILE WAS UPDATED (8_deprot_aq_4.gbw) ****
             **** DENSITY 8_deprot_aq_4.scfp WAS UPDATED ****
             **** ENERGY FILE WAS UPDATED (8_deprot_aq_4.en.tmp) ****
             **** THE GBW FILE WAS UPDATED (8_deprot_aq_4.gbw) ****
             **** DENSITY 8_deprot_aq_4.scfp WAS UPDATED ****
----------------
ORBITAL ENERGIES
----------------

  NO   OCC          E(Eh)            E(eV) 
   0   2.0000     -14.459241      -393.4559 
   1   2.0000     -14.459231      -393.4557 
   2   2.0000     -10.310889      -280.5735 
   3   2.0000     -10.310801      -280.5712 
   4   2.0000     -10.303645      -280.3764 
   5   2.0000     -10.303048      -280.3602 
   6   2.0000     -10.289174      -279.9827 
   7   2.0000     -10.289036      -279.9789 
   8   2.0000     -10.289017      -279.9784 
   9   2.0000     -10.289011      -279.9782 
  10   2.0000     -10.289000      -279.9779 
  11   2.0000     -10.278179      -279.6835 
  12   2.0000     -10.278136      -279.6823 
  13   2.0000     -10.274021      -279.5703 
  14   2.0000     -10.274004      -279.5699 
  15   2.0000     -10.273997      -279.5697 
  16   2.0000     -10.273980      -279.5692 
  17   2.0000     -10.269343      -279.4430 
  18   2.0000     -10.269264      -279.4409 
  19   2.0000     -10.269110      -279.4367 
  20   2.0000     -10.268959      -279.4326 
  21   2.0000      -1.160008       -31.5654 
  22   2.0000      -1.060301       -28.8523 
  23   2.0000      -0.997842       -27.1527 
  24   2.0000      -0.976814       -26.5805 
  25   2.0000      -0.913073       -24.8460 
  26   2.0000      -0.912723       -24.8365 
  27   2.0000      -0.907070       -24.6826 
  28   2.0000      -0.873182       -23.7605 
  29   2.0000      -0.869863       -23.6702 
  30   2.0000      -0.829303       -22.5665 
  31   2.0000      -0.811129       -22.0719 
  32   2.0000      -0.801347       -21.8058 
  33   2.0000      -0.800419       -21.7805 
  34   2.0000      -0.761759       -20.7285 
  35   2.0000      -0.736965       -20.0538 
  36   2.0000      -0.698609       -19.0101 
  37   2.0000      -0.696907       -18.9638 
  38   2.0000      -0.695916       -18.9368 
  39   2.0000      -0.678860       -18.4727 
  40   2.0000      -0.650337       -17.6966 
  41   2.0000      -0.617882       -16.8134 
  42   2.0000      -0.612116       -16.6565 
  43   2.0000      -0.598398       -16.2832 
  44   2.0000      -0.591764       -16.1027 
  45   2.0000      -0.562613       -15.3095 
  46   2.0000      -0.554751       -15.0956 
  47   2.0000      -0.551373       -15.0036 
  48   2.0000      -0.536822       -14.6077 
  49   2.0000      -0.534883       -14.5549 
  50   2.0000      -0.529543       -14.4096 
  51   2.0000      -0.525124       -14.2893 
  52   2.0000      -0.524289       -14.2666 
  53   2.0000      -0.521643       -14.1946 
  54   2.0000      -0.518501       -14.1091 
  55   2.0000      -0.513762       -13.9802 
  56   2.0000      -0.513628       -13.9765 
  57   2.0000      -0.509285       -13.8584 
  58   2.0000      -0.506654       -13.7868 
  59   2.0000      -0.478726       -13.0268 
  60   2.0000      -0.476432       -12.9644 
  61   2.0000      -0.462116       -12.5748 
  62   2.0000      -0.459394       -12.5007 
  63   2.0000      -0.456249       -12.4152 
  64   2.0000      -0.451702       -12.2914 
  65   2.0000      -0.445750       -12.1295 
  66   2.0000      -0.445017       -12.1095 
  67   2.0000      -0.390465       -10.6251 
  68   2.0000      -0.348837        -9.4923 
  69   2.0000      -0.343847        -9.3566 
  70   2.0000      -0.339202        -9.2302 
  71   2.0000      -0.337353        -9.1798 
  72   2.0000      -0.333451        -9.0737 
  73   2.0000      -0.333024        -9.0620 
  74   0.0000       0.061088         1.6623 
  75   0.0000       0.067268         1.8305 
  76   0.0000       0.072058         1.9608 
  77   0.0000       0.073563         2.0017 
  78   0.0000       0.106132         2.8880 
  79   0.0000       0.114901         3.1266 
  80   0.0000       0.142023         3.8646 
  81   0.0000       0.164824         4.4851 
  82   0.0000       0.166975         4.5436 
  83   0.0000       0.173089         4.7100 
  84   0.0000       0.187365         5.0985 
  85   0.0000       0.188623         5.1327 
  86   0.0000       0.194471         5.2918 
  87   0.0000       0.204013         5.5515 
  88   0.0000       0.204521         5.5653 
  89   0.0000       0.215388         5.8610 
  90   0.0000       0.224379         6.1057 
  91   0.0000       0.227723         6.1967 
  92   0.0000       0.235855         6.4179 
  93   0.0000       0.240293         6.5387 
  94   0.0000       0.247287         6.7290 
  95   0.0000       0.248019         6.7489 
  96   0.0000       0.252578         6.8730 
  97   0.0000       0.259547         7.0626 
  98   0.0000       0.260885         7.0990 
  99   0.0000       0.263684         7.1752 
 100   0.0000       0.284596         7.7443 
 101   0.0000       0.288127         7.8403 
 102   0.0000       0.293273         7.9804 
 103   0.0000       0.302415         8.2291 
 104   0.0000       0.314742         8.5646 
 105   0.0000       0.317465         8.6387 
 106   0.0000       0.333133         9.0650 
 107   0.0000       0.338234         9.2038 
 108   0.0000       0.357279         9.7221 
 109   0.0000       0.364630         9.9221 
 110   0.0000       0.365965         9.9584 
 111   0.0000       0.395034        10.7494 
 112   0.0000       0.398889        10.8543 
 113   0.0000       0.404923        11.0185 
 114   0.0000       0.407492        11.0884 
 115   0.0000       0.426193        11.5973 
 116   0.0000       0.430559        11.7161 
 117   0.0000       0.431015        11.7285 
 118   0.0000       0.438705        11.9378 
 119   0.0000       0.441768        12.0211 
 120   0.0000       0.447453        12.1758 
 121   0.0000       0.461365        12.5544 
 122   0.0000       0.464822        12.6485 
 123   0.0000       0.491707        13.3800 
 124   0.0000       0.496294        13.5049 
 125   0.0000       0.500943        13.6313 
 126   0.0000       0.505350        13.7513 
 127   0.0000       0.509212        13.8564 
 128   0.0000       0.523020        14.2321 
 129   0.0000       0.524726        14.2785 
 130   0.0000       0.528351        14.3772 
 131   0.0000       0.536982        14.6120 
 132   0.0000       0.538851        14.6629 
 133   0.0000       0.547790        14.9061 
 134   0.0000       0.549787        14.9605 
 135   0.0000       0.551801        15.0153 
 136   0.0000       0.565223        15.3805 
 137   0.0000       0.578339        15.7374 
 138   0.0000       0.585723        15.9383 
 139   0.0000       0.587495        15.9866 
 140   0.0000       0.590851        16.0779 
 141   0.0000       0.596072        16.2199 
 142   0.0000       0.597338        16.2544 
 143   0.0000       0.603295        16.4165 
 144   0.0000       0.606999        16.5173 
 145   0.0000       0.642698        17.4887 
 146   0.0000       0.649640        17.6776 
 147   0.0000       0.653897        17.7934 
 148   0.0000       0.667884        18.1741 
 149   0.0000       0.675406        18.3787 
 150   0.0000       0.680746        18.5240 
 151   0.0000       0.685756        18.6604 
 152   0.0000       0.691639        18.8205 
 153   0.0000       0.702281        19.1100 
 154   0.0000       0.703869        19.1533 
 155   0.0000       0.715241        19.4627 
 156   0.0000       0.719447        19.5772 
 157   0.0000       0.722939        19.6722 
 158   0.0000       0.723812        19.6959 
 159   0.0000       0.735950        20.0262 
 160   0.0000       0.748068        20.3560 
 161   0.0000       0.749582        20.3972 
 162   0.0000       0.751270        20.4431 
 163   0.0000       0.752730        20.4828 
 164   0.0000       0.761535        20.7224 
 165   0.0000       0.761680        20.7264 
 166   0.0000       0.766672        20.8622 
 167   0.0000       0.769490        20.9389 
 168   0.0000       0.775795        21.1105 
 169   0.0000       0.782555        21.2944 
 170   0.0000       0.784889        21.3579 
 171   0.0000       0.790188        21.5021 
 172   0.0000       0.793765        21.5995 
 173   0.0000       0.795172        21.6377 
 174   0.0000       0.796323        21.6691 
 175   0.0000       0.797628        21.7046 
 176   0.0000       0.800099        21.7718 
 177   0.0000       0.804017        21.8784 
 178   0.0000       0.811247        22.0751 
 179   0.0000       0.820170        22.3180 
 180   0.0000       0.824256        22.4292 
 181   0.0000       0.826278        22.4842 
 182   0.0000       0.834518        22.7084 
 183   0.0000       0.850959        23.1558 
 184   0.0000       0.851402        23.1678 
 185   0.0000       0.861252        23.4359 
 186   0.0000       0.866498        23.5786 
 187   0.0000       0.867928        23.6175 
 188   0.0000       0.876364        23.8471 
 189   0.0000       0.877967        23.8907 
 190   0.0000       0.881169        23.9778 
 191   0.0000       0.896658        24.3993 
 192   0.0000       0.900691        24.5090 
 193   0.0000       0.905394        24.6370 
 194   0.0000       0.913967        24.8703 
 195   0.0000       0.918591        24.9961 
 196   0.0000       0.929293        25.2874 
 197   0.0000       0.939980        25.5781 
 198   0.0000       0.946725        25.7617 
 199   0.0000       0.948828        25.8189 
 200   0.0000       0.951482        25.8911 
 201   0.0000       0.962136        26.1810 
 202   0.0000       0.983802        26.7706 
 203   0.0000       1.022202        27.8155 
 204   0.0000       1.027758        27.9667 
 205   0.0000       1.032854        28.1054 
 206   0.0000       1.040323        28.3086 
 207   0.0000       1.067715        29.0540 
 208   0.0000       1.087934        29.6042 
 209   0.0000       1.132227        30.8095 
 210   0.0000       1.146917        31.2092 
 211   0.0000       1.161185        31.5975 
 212   0.0000       1.214593        33.0508 
 213   0.0000       1.244521        33.8651 
 214   0.0000       1.253185        34.1009 
 215   0.0000       1.257327        34.2136 
 216   0.0000       1.268329        34.5130 
 217   0.0000       1.273476        34.6530 
 218   0.0000       1.273996        34.6672 
 219   0.0000       1.277077        34.7510 
 220   0.0000       1.286201        34.9993 
 221   0.0000       1.313996        35.7557 
 222   0.0000       1.320065        35.9208 
 223   0.0000       1.335272        36.3346 
 224   0.0000       1.342140        36.5215 
 225   0.0000       1.343222        36.5509 
 226   0.0000       1.344640        36.5895 
 227   0.0000       1.354198        36.8496 
 228   0.0000       1.358149        36.9571 
 229   0.0000       1.363349        37.0986 
 230   0.0000       1.367747        37.2183 
 231   0.0000       1.395916        37.9848 
 232   0.0000       1.397461        38.0268 
 233   0.0000       1.446928        39.3729 
 234   0.0000       1.458829        39.6968 
 235   0.0000       1.468881        39.9703 
 236   0.0000       1.494635        40.6711 
 237   0.0000       1.534332        41.7513 
 238   0.0000       1.566434        42.6248 
 239   0.0000       1.600739        43.5583 
 240   0.0000       1.605819        43.6965 
 241   0.0000       1.617518        44.0149 
 242   0.0000       1.626147        44.2497 
 243   0.0000       1.635839        44.5134 
 244   0.0000       1.639913        44.6243 
 245   0.0000       1.646799        44.8117 
 246   0.0000       1.650956        44.9248 
 247   0.0000       1.657937        45.1148 
 248   0.0000       1.658774        45.1375 
 249   0.0000       1.665809        45.3290 
 250   0.0000       1.674000        45.5519 
 251   0.0000       1.682533        45.7840 
 252   0.0000       1.697430        46.1894 
 253   0.0000       1.723618        46.9020 
 254   0.0000       1.735672        47.2300 
 255   0.0000       1.763725        47.9934 
 256   0.0000       1.766559        48.0705 
 257   0.0000       1.770088        48.1665 
 258   0.0000       1.798833        48.9487 
 259   0.0000       1.809551        49.2404 
 260   0.0000       1.812690        49.3258 
 261   0.0000       1.814049        49.3628 
 262   0.0000       1.816768        49.4368 
 263   0.0000       1.817599        49.4594 
 264   0.0000       1.822604        49.5956 
 265   0.0000       1.845186        50.2101 
 266   0.0000       1.850327        50.3499 
 267   0.0000       1.862664        50.6857 
 268   0.0000       1.864552        50.7370 
 269   0.0000       1.869425        50.8696 
 270   0.0000       1.873819        50.9892 
 271   0.0000       1.884835        51.2890 
 272   0.0000       1.900977        51.7282 
 273   0.0000       1.902306        51.7644 
 274   0.0000       1.904096        51.8131 
 275   0.0000       1.906981        51.8916 
 276   0.0000       1.919347        52.2281 
 277   0.0000       1.920201        52.2513 
 278   0.0000       1.927050        52.4377 
 279   0.0000       1.929467        52.5035 
 280   0.0000       1.932614        52.5891 
 281   0.0000       1.936322        52.6900 
 282   0.0000       1.937773        52.7295 
 283   0.0000       1.958212        53.2856 
 284   0.0000       1.967424        53.5363 
 285   0.0000       1.987409        54.0801 
 286   0.0000       2.002177        54.4820 
 287   0.0000       2.007582        54.6291 
 288   0.0000       2.016168        54.8627 
 289   0.0000       2.020832        54.9896 
 290   0.0000       2.031141        55.2702 
 291   0.0000       2.037565        55.4450 
 292   0.0000       2.044124        55.6234 
 293   0.0000       2.047699        55.7207 
 294   0.0000       2.062279        56.1175 
 295   0.0000       2.063825        56.1595 
 296   0.0000       2.078258        56.5523 
 297   0.0000       2.085984        56.7625 
 298   0.0000       2.101748        57.1915 
 299   0.0000       2.107295        57.3424 
 300   0.0000       2.128404        57.9168 
 301   0.0000       2.139045        58.2064 
 302   0.0000       2.140477        58.2453 
 303   0.0000       2.155213        58.6463 
 304   0.0000       2.158586        58.7381 
 305   0.0000       2.163311        58.8667 
 306   0.0000       2.172854        59.1264 
 307   0.0000       2.181968        59.3744 
 308   0.0000       2.204581        59.9897 
 309   0.0000       2.209136        60.1136 
 310   0.0000       2.213957        60.2448 
 311   0.0000       2.215182        60.2782 
 312   0.0000       2.234061        60.7919 
 313   0.0000       2.240327        60.9624 
 314   0.0000       2.252960        61.3062 
 315   0.0000       2.257728        61.4359 
 316   0.0000       2.264537        61.6212 
 317   0.0000       2.317891        63.0730 
 318   0.0000       2.318564        63.0913 
 319   0.0000       2.340783        63.6959 
 320   0.0000       2.353447        64.0405 
 321   0.0000       2.356100        64.1127 
 322   0.0000       2.357410        64.1484 
 323   0.0000       2.369889        64.4880 
 324   0.0000       2.385763        64.9199 
 325   0.0000       2.394176        65.1488 
 326   0.0000       2.396112        65.2015 
 327   0.0000       2.399342        65.2894 
 328   0.0000       2.401840        65.3574 
 329   0.0000       2.411702        65.6258 
 330   0.0000       2.422416        65.9173 
 331   0.0000       2.442111        66.4532 
 332   0.0000       2.482325        67.5475 
 333   0.0000       2.520038        68.5737 
 334   0.0000       2.535948        69.0067 
 335   0.0000       2.537437        69.0472 
 336   0.0000       2.538410        69.0736 
 337   0.0000       2.541567        69.1595 
 338   0.0000       2.554914        69.5228 
 339   0.0000       2.556403        69.5633 
 340   0.0000       2.559320        69.6426 
 341   0.0000       2.570266        69.9405 
 342   0.0000       2.584790        70.3357 
 343   0.0000       2.607370        70.9501 
 344   0.0000       2.640368        71.8481 
 345   0.0000       2.646546        72.0162 
 346   0.0000       2.661966        72.4358 
 347   0.0000       2.666885        72.5696 
 348   0.0000       2.683313        73.0167 
 349   0.0000       2.691800        73.2476 
 350   0.0000       2.703830        73.5749 
 351   0.0000       2.707280        73.6688 
 352   0.0000       2.728254        74.2396 
 353   0.0000       2.734757        74.4165 
 354   0.0000       2.737427        74.4892 
 355   0.0000       2.764934        75.2377 
 356   0.0000       2.789968        75.9189 
 357   0.0000       2.796774        76.1041 
 358   0.0000       2.828844        76.9768 
 359   0.0000       2.839442        77.2651 
 360   0.0000       2.846418        77.4550 
 361   0.0000       2.861011        77.8521 
 362   0.0000       2.865407        77.9717 
 363   0.0000       2.866239        77.9943 
 364   0.0000       2.899333        78.8949 
 365   0.0000       2.943778        80.1043 
 366   0.0000       2.957237        80.4705 
 367   0.0000       2.965416        80.6931 
 368   0.0000       2.976128        80.9846 
 369   0.0000       3.003286        81.7236 
 370   0.0000       3.006077        81.7995 
 371   0.0000       3.043443        82.8163 
 372   0.0000       3.051589        83.0380 
 373   0.0000       3.055092        83.1333 
 374   0.0000       3.061921        83.3191 
 375   0.0000       3.064419        83.3871 
 376   0.0000       3.070572        83.5545 
 377   0.0000       3.079020        83.7844 
 378   0.0000       3.084203        83.9254 
 379   0.0000       3.086417        83.9857 
 380   0.0000       3.116976        84.8172 
 381   0.0000       3.140512        85.4577 
 382   0.0000       3.156050        85.8805 
 383   0.0000       3.173454        86.3541 
 384   0.0000       3.177101        86.4533 
 385   0.0000       3.194952        86.9391 
 386   0.0000       3.214776        87.4785 
 387   0.0000       3.373419        91.7954 
 388   0.0000       3.377068        91.8947 
 389   0.0000       3.401330        92.5549 
 390   0.0000       3.421076        93.0922 
 391   0.0000       3.609300        98.2141 
 392   0.0000       3.704050       100.7923 
 393   0.0000       3.719438       101.2111 

                    ********************************
                    * MULLIKEN POPULATION ANALYSIS *
                    ********************************

-----------------------
MULLIKEN ATOMIC CHARGES
-----------------------
   0 N :   -0.213662
   1 C :   -0.137378
   2 N :   -0.213502
   3 C :    0.045640
   4 C :    0.045240
   5 C :    0.046651
   6 C :    0.046027
   7 C :   -0.100653
   8 C :   -0.101026
   9 C :   -0.100022
  10 C :   -0.100502
  11 H :    0.071059
[...]
 10:     85.20   0.000021    0.10  0.000076  ( 0.001052  0.005360 -0.006780)
 11:     94.99   0.000078    0.39  0.000256  (-0.015802  0.002460 -0.000143)
 12:    126.05   0.000148    0.75  0.000367  ( 0.001938 -0.015943  0.010443)
 13:    128.05   0.000159    0.80  0.000387  (-0.001373 -0.006509  0.018507)
 14:    134.22   0.000863    4.36  0.002006  (-0.002859 -0.005760  0.044330)
 15:    138.05   0.000394    1.99  0.000890  (-0.006968 -0.021178 -0.019830)
 16:    150.02   0.000129    0.65  0.000269  ( 0.014027  0.008415 -0.001258)
 17:    196.67   0.002142   10.82  0.003399  ( 0.058218  0.003044  0.000033)
 18:    209.34   0.000676    3.42  0.001008  ( 0.000269  0.000598 -0.031740)
 19:    236.24   0.000004    0.02  0.000005  ( 0.000963  0.000582  0.001901)
 20:    237.17   0.000033    0.17  0.000044  ( 0.002283  0.006168 -0.000758)
 21:    283.03   0.000827    4.18  0.000912  (-0.029998  0.003399 -0.000327)
 22:    306.66   0.003366   17.01  0.003425  ( 0.004047  0.058381  0.000240)
 23:    336.54   0.001850    9.35  0.001716  ( 0.000041  0.000563 -0.041417)
 24:    357.95   0.000656    3.31  0.000572  (-0.000166  0.000844 -0.023891)
 25:    360.81   0.000472    2.38  0.000408  ( 0.000818  0.000029 -0.020186)
 26:    399.06   0.000688    3.48  0.000538  (-0.022947  0.003434 -0.000036)
 27:    437.08   0.000029    0.15  0.000021  ( 0.004128 -0.001985 -0.000141)
 28:    484.74   0.000136    0.69  0.000087  (-0.000928 -0.009306  0.000135)
 29:    494.02   0.000001    0.00  0.000001  (-0.000617  0.000005  0.000491)
 30:    537.05   0.000046    0.23  0.000027  (-0.001110  0.005016  0.000340)
 31:    537.54   0.000007    0.03  0.000004  (-0.000110  0.001954  0.000357)
 32:    543.27   0.000098    0.50  0.000057  ( 0.000076 -0.007518 -0.000102)
 33:    547.00   0.000003    0.02  0.000002  ( 0.000351  0.000146  0.001263)
 34:    579.47   0.000320    1.62  0.000173  ( 0.000035 -0.000029  0.013135)
 35:    594.89   0.000048    0.24  0.000025  ( 0.000153 -0.000081 -0.005011)
 36:    604.01   0.000031    0.16  0.000016  (-0.003786  0.001325 -0.000033)
 37:    628.18   0.002084   10.53  0.001035  (-0.032130  0.001728 -0.000041)
 38:    685.09   0.000013    0.07  0.000006  (-0.000038  0.000120 -0.002442)
 39:    687.26   0.002672   13.50  0.001213  ( 0.001979 -0.034770 -0.000462)
 40:    751.44   0.013842   69.95  0.005748  (-0.002867 -0.075760  0.000769)
 41:    768.47   0.000058    0.29  0.000024  ( 0.000204  0.000006  0.004851)
 42:    779.67   0.001085    5.48  0.000434  (-0.020812  0.000991  0.000090)
 43:    786.79   0.000364    1.84  0.000144  ( 0.000847 -0.000445 -0.011976)
 44:    795.73   0.001425    7.20  0.000559  (-0.023527  0.002265  0.000377)
 45:    808.69   0.015656   79.12  0.006041  ( 0.017090  0.004093 -0.075714)
 46:    810.35   0.006887   34.81  0.002652  (-0.032468 -0.003509 -0.039822)
 47:    885.72   0.000000    0.00  0.000000  ( 0.000228  0.000071 -0.000147)
 48:    941.18   0.000476    2.41  0.000158  (-0.000854  0.012539  0.000155)
 49:    942.00   0.000927    4.69  0.000307  ( 0.000098 -0.017461  0.001512)
 50:    943.45   0.000161    0.82  0.000053  ( 0.000958  0.007145 -0.001186)
 51:    943.54   0.000795    4.02  0.000263  (-0.000123  0.015926  0.003072)
 52:    963.91   0.009072   45.85  0.002937  (-0.054166  0.001792  0.000025)
 53:    973.11   0.000832    4.20  0.000267  ( 0.000027  0.000124  0.016334)
 54:   1006.16   0.001937    9.79  0.000601  (-0.024384  0.001169  0.002210)
 55:   1006.70   0.000371    1.87  0.000115  ( 0.009775 -0.000399  0.004391)
 56:   1035.23   0.000099    0.50  0.000030  (-0.000007  0.002110  0.005035)
 57:   1035.85   0.000312    1.58  0.000094  (-0.000766  0.000298 -0.009666)
 58:   1055.65   0.000890    4.50  0.000263  (-0.002445  0.005072  0.015216)
 59:   1056.78   0.000371    1.88  0.000110  ( 0.002436 -0.002947  0.009746)
 60:   1058.57   0.001233    6.23  0.000363  ( 0.007407  0.000370  0.017560)
 61:   1059.79   0.002974   15.03  0.000876  (-0.003786 -0.000228  0.029348)
 62:   1061.40   0.000455    2.30  0.000134  (-0.000451  0.011558 -0.000281)
 63:   1061.90   0.000352    1.78  0.000104  ( 0.001890 -0.009994 -0.000237)
 64:   1087.34   0.005677   28.69  0.001629  (-0.000077  0.000095  0.040364)
 65:   1097.15   0.000024    0.12  0.000007  ( 0.002533 -0.000619 -0.000059)
 66:   1100.83   0.000087    0.44  0.000025  (-0.000037 -0.000091 -0.004952)
 67:   1127.29   0.007570   38.25  0.002095  ( 0.045759 -0.001101  0.000606)
 68:   1139.42   0.000208    1.05  0.000057  (-0.000641 -0.000043  0.007519)
 69:   1173.49   0.000570    2.88  0.000151  ( 0.000096 -0.012294 -0.000593)
 70:   1173.61   0.000620    3.13  0.000165  (-0.000330  0.012828 -0.000245)
 71:   1267.01   0.009270   46.84  0.002283  (-0.047747  0.001832 -0.000040)
 72:   1279.03   0.000049    0.25  0.000012  (-0.001869 -0.002790 -0.000836)
 73:   1279.23   0.000148    0.75  0.000036  ( 0.001821  0.005721 -0.000363)
 74:   1296.89   0.000016    0.08  0.000004  (-0.000025  0.000048  0.001941)
 75:   1302.19   0.001292    6.53  0.000310  ( 0.017583 -0.000711  0.000159)
 76:   1330.38   0.000945    4.78  0.000222  ( 0.004466  0.014198  0.000474)
 77:   1330.57   0.001919    9.70  0.000450  (-0.003897 -0.020850  0.000208)
 78:   1337.01   0.002239   11.31  0.000523  (-0.021802  0.006869  0.000025)
 79:   1380.04   0.001102    5.57  0.000249  ( 0.000260 -0.001192 -0.015740)
 80:   1391.68   0.000053    0.27  0.000012  (-0.001844 -0.000044 -0.002919)
 81:   1392.08   0.000092    0.46  0.000021  ( 0.003262  0.003152 -0.000171)
 82:   1396.14   0.000019    0.10  0.000004  (-0.001683 -0.000779 -0.000933)
 83:   1399.71   0.001991   10.06  0.000444  (-0.020867  0.002845  0.000681)
 84:   1418.92   0.000591    2.99  0.000130  (-0.000280 -0.000238 -0.011395)
 85:   1432.95   0.006717   33.94  0.001463  (-0.038056 -0.003406  0.001705)
 86:   1441.45   0.000646    3.26  0.000140  (-0.000112 -0.004235  0.011041)
 87:   1442.63   0.006420   32.44  0.001389  (-0.005048 -0.005427 -0.036521)
 88:   1444.48   0.006092   30.79  0.001316  ( 0.033603 -0.013655 -0.000760)
 89:   1445.16   0.003481   17.59  0.000752  (-0.002287 -0.005032  0.026853)
 90:   1450.25   0.000978    4.94  0.000210  ( 0.001058  0.001452 -0.014392)
 91:   1450.76   0.002352   11.88  0.000506  (-0.010574 -0.019851 -0.000042)
 92:   1455.91   0.000100    0.50  0.000021  (-0.000285 -0.000229 -0.004607)
 93:   1471.01   0.002239   11.31  0.000475  (-0.021790  0.000083  0.000304)
 94:   1533.39   0.000056    0.28  0.000011  ( 0.000096 -0.002255  0.002503)
 95:   1533.59   0.010556   53.35  0.002148  ( 0.001143  0.046322  0.000944)
 96:   1555.17   0.058283  294.54  0.011695  ( 0.108046 -0.004525  0.000905)
 97:   1561.58   0.002343   11.84  0.000468  (-0.001852  0.000053  0.021559)
 98:   1651.64   0.000350    1.77  0.000066  ( 0.000079 -0.000292  0.008124)
 99:   1698.16   0.000080    0.40  0.000015  (-0.003802 -0.000454  0.000102)
100:   1699.86   0.000021    0.11  0.000004  (-0.000023  0.000392  0.001946)
101:   1703.03   0.000025    0.13  0.000005  (-0.000289 -0.000041  0.002114)
102:   1703.48   0.005151   26.03  0.000944  ( 0.000189  0.030714  0.000567)
103:   3065.63   0.010489   53.01  0.001068  (-0.003784 -0.032412  0.001698)
104:   3066.17   0.002135   10.79  0.000217  (-0.004971  0.012062  0.006866)
105:   3066.57   0.000967    4.89  0.000098  ( 0.002729 -0.009537  0.000123)
106:   3067.09   0.003125   15.79  0.000318  (-0.017588  0.001746 -0.002361)
107:   3153.71   0.002070   10.46  0.000205  (-0.002748  0.000745 -0.014027)
108:   3154.47   0.002607   13.17  0.000258  ( 0.001535 -0.000261 -0.015982)
109:   3155.42   0.000365    1.84  0.000036  (-0.004817 -0.002712 -0.002352)
110:   3155.50   0.001068    5.40  0.000106  ( 0.002560  0.002199 -0.009708)
111:   3184.94   0.003613   18.26  0.000354  ( 0.012083  0.013796  0.004205)
112:   3185.23   0.002502   12.64  0.000245  (-0.008065 -0.012505  0.004869)
113:   3185.72   0.003433   17.35  0.000336  (-0.014406  0.010732  0.003685)
114:   3185.96   0.002821   14.25  0.000276  (-0.013277  0.009471 -0.003211)
115:   3206.33   0.000001    0.00  0.000000  (-0.000206 -0.000077  0.000039)
116:   3206.36   0.000001    0.01  0.000000  ( 0.000025 -0.000266  0.000160)
117:   3213.39   0.002897   14.64  0.000281  (-0.000345 -0.016726 -0.001204)
118:   3213.44   0.002904   14.67  0.000282  (-0.000501 -0.016774  0.000603)
119:   3227.55   0.004655   23.52  0.000450  (-0.021000  0.001035  0.002831)
120:   3227.58   0.001386    7.01  0.000134  (-0.009649  0.000486 -0.006380)
121:   3285.37   0.003142   15.88  0.000298  ( 0.017265 -0.000598  0.000071)
122:   3306.64   0.000681    3.44  0.000064  ( 0.000020 -0.000018  0.008015)

* The epsilon (eps) is given for a Dirac delta lineshape.
** The dipole moment derivative (T) already includes vibrational overlap.

The first frequency considered to be a vibration is 6
The total number of vibrations considered is 117


--------------------------
THERMOCHEMISTRY AT 298.15K
--------------------------

Temperature         ... 298.15 K
Pressure            ... 1.00 atm
Total Mass          ... 276.38 AMU

Throughout the following assumptions are being made:
  (1) The electronic state is orbitally nondegenerate
  (2) There are no thermally accessible electronically excited states
  (3) Hindered rotations indicated by low frequency modes are not
      treated as such but are treated as vibrations and this may
      cause some error
  (4) All equations used are the standard statistical mechanics
      equations for an ideal gas
  (5) All vibrations are strictly harmonic

freq.      17.78  E(vib)   ...       0.57 
freq.      20.19  E(vib)   ...       0.56 
freq.      53.58  E(vib)   ...       0.52 
freq.      58.41  E(vib)   ...       0.51 
freq.      85.20  E(vib)   ...       0.48 
freq.      94.99  E(vib)   ...       0.47 
freq.     126.05  E(vib)   ...       0.43 
freq.     128.05  E(vib)   ...       0.43 
freq.     134.22  E(vib)   ...       0.42 
freq.     138.05  E(vib)   ...       0.42 
freq.     150.02  E(vib)   ...       0.40 
freq.     196.67  E(vib)   ...       0.36 
freq.     209.34  E(vib)   ...       0.34 
freq.     236.24  E(vib)   ...       0.32 
freq.     237.17  E(vib)   ...       0.32 
freq.     283.03  E(vib)   ...       0.28 
freq.     306.66  E(vib)   ...       0.26 
freq.     336.54  E(vib)   ...       0.24 
freq.     357.95  E(vib)   ...       0.22 
freq.     360.81  E(vib)   ...       0.22 
freq.     399.06  E(vib)   ...       0.19 
freq.     437.08  E(vib)   ...       0.17 
freq.     484.74  E(vib)   ...       0.15 
freq.     494.02  E(vib)   ...       0.14 
freq.     537.05  E(vib)   ...       0.12 
freq.     537.54  E(vib)   ...       0.12 
freq.     543.27  E(vib)   ...       0.12 
freq.     547.00  E(vib)   ...       0.12 
freq.     579.47  E(vib)   ...       0.11 
freq.     594.89  E(vib)   ...       0.10 
freq.     604.01  E(vib)   ...       0.10 
freq.     628.18  E(vib)   ...       0.09 
freq.     685.09  E(vib)   ...       0.07 
freq.     687.26  E(vib)   ...       0.07 
freq.     751.44  E(vib)   ...       0.06 
freq.     768.47  E(vib)   ...       0.06 
freq.     779.67  E(vib)   ...       0.05 
freq.     786.79  E(vib)   ...       0.05 
freq.     795.73  E(vib)   ...       0.05 
freq.     808.69  E(vib)   ...       0.05 
freq.     810.35  E(vib)   ...       0.05 
freq.     885.72  E(vib)   ...       0.04 
freq.     941.18  E(vib)   ...       0.03 
freq.     942.00  E(vib)   ...       0.03 
freq.     943.45  E(vib)   ...       0.03 
freq.     943.54  E(vib)   ...       0.03 
freq.     963.91  E(vib)   ...       0.03 
freq.     973.11  E(vib)   ...       0.03 
freq.    1006.16  E(vib)   ...       0.02 
freq.    1006.70  E(vib)   ...       0.02 
freq.    1035.23  E(vib)   ...       0.02 
freq.    1035.85  E(vib)   ...       0.02 
freq.    1055.65  E(vib)   ...       0.02 
freq.    1056.78  E(vib)   ...       0.02 
freq.    1058.57  E(vib)   ...       0.02 
freq.    1059.79  E(vib)   ...       0.02 
freq.    1061.40  E(vib)   ...       0.02 
freq.    1061.90  E(vib)   ...       0.02 
freq.    1087.34  E(vib)   ...       0.02 
freq.    1097.15  E(vib)   ...       0.02 
freq.    1100.83  E(vib)   ...       0.02 
freq.    1127.29  E(vib)   ...       0.01 
freq.    1139.42  E(vib)   ...       0.01 
freq.    1173.49  E(vib)   ...       0.01 
freq.    1173.61  E(vib)   ...       0.01 
freq.    1267.01  E(vib)   ...       0.01 
freq.    1279.03  E(vib)   ...       0.01 
freq.    1279.23  E(vib)   ...       0.01 
freq.    1296.89  E(vib)   ...       0.01 
freq.    1302.19  E(vib)   ...       0.01 
freq.    1330.38  E(vib)   ...       0.01 
freq.    1330.57  E(vib)   ...       0.01 
freq.    1337.01  E(vib)   ...       0.01 
freq.    1380.04  E(vib)   ...       0.01 
freq.    1391.68  E(vib)   ...       0.00 
freq.    1392.08  E(vib)   ...       0.00 
freq.    1396.14  E(vib)   ...       0.00 
freq.    1399.71  E(vib)   ...       0.00 
freq.    1418.92  E(vib)   ...       0.00 
freq.    1432.95  E(vib)   ...       0.00 
freq.    1441.45  E(vib)   ...       0.00 
freq.    1442.63  E(vib)   ...       0.00 
freq.    1444.48  E(vib)   ...       0.00 
freq.    1445.16  E(vib)   ...       0.00 
freq.    1450.25  E(vib)   ...       0.00 
freq.    1450.76  E(vib)   ...       0.00 
freq.    1455.91  E(vib)   ...       0.00 
freq.    1471.01  E(vib)   ...       0.00 
freq.    1533.39  E(vib)   ...       0.00 
freq.    1533.59  E(vib)   ...       0.00 
freq.    1555.17  E(vib)   ...       0.00 
freq.    1561.58  E(vib)   ...       0.00 
freq.    1651.64  E(vib)   ...       0.00 
freq.    1698.16  E(vib)   ...       0.00 
freq.    1699.86  E(vib)   ...       0.00 
freq.    1703.03  E(vib)   ...       0.00 
freq.    1703.48  E(vib)   ...       0.00 
freq.    3065.63  E(vib)   ...       0.00 
freq.    3066.17  E(vib)   ...       0.00 
freq.    3066.57  E(vib)   ...       0.00 
freq.    3067.09  E(vib)   ...       0.00 
freq.    3153.71  E(vib)   ...       0.00 
freq.    3154.47  E(vib)   ...       0.00 
freq.    3155.42  E(vib)   ...       0.00 
freq.    3155.50  E(vib)   ...       0.00 
freq.    3184.94  E(vib)   ...       0.00 
freq.    3185.23  E(vib)   ...       0.00 
freq.    3185.72  E(vib)   ...       0.00 
freq.    3185.96  E(vib)   ...       0.00 
freq.    3206.33  E(vib)   ...       0.00 
freq.    3206.36  E(vib)   ...       0.00 
freq.    3213.39  E(vib)   ...       0.00 
freq.    3213.44  E(vib)   ...       0.00 
freq.    3227.55  E(vib)   ...       0.00 
freq.    3227.58  E(vib)   ...       0.00 
freq.    3285.37  E(vib)   ...       0.00 
freq.    3306.64  E(vib)   ...       0.00 

------------
INNER ENERGY
------------

The inner energy is: U= E(el) + E(ZPE) + E(vib) + E(rot) + E(trans)
    E(el)   - is the total energy from the electronic structure calculation
              = E(kin-el) + E(nuc-el) + E(el-el) + E(nuc-nuc)
    E(ZPE)  - the the zero temperature vibrational energy from the frequency calculation
    E(vib)  - the the finite temperature correction to E(ZPE) due to population
              of excited vibrational states
    E(rot)  - is the rotational thermal energy
    E(trans)- is the translational thermal energy

Summary of contributions to the inner energy U:
Electronic energy                ...   -844.74955772 Eh
Zero point energy                ...      0.34561926 Eh     216.88 kcal/mol
Thermal vibrational correction   ...      0.01665258 Eh      10.45 kcal/mol
Thermal rotational correction    ...      0.00141627 Eh       0.89 kcal/mol
Thermal translational correction ...      0.00141627 Eh       0.89 kcal/mol
-----------------------------------------------------------------------
Total thermal energy                   -844.38445334 Eh


Summary of corrections to the electronic energy:
(perhaps to be used in another calculation)
Total thermal correction                  0.01948513 Eh      12.23 kcal/mol
Non-thermal (ZPE) correction              0.34561926 Eh     216.88 kcal/mol
-----------------------------------------------------------------------
Total correction                          0.36510438 Eh     229.11 kcal/mol


--------
ENTHALPY
--------

The enthalpy is H = U + kB*T
                kB is Boltzmann's constant
Total free energy                 ...   -844.38445334 Eh 
Thermal Enthalpy correction       ...      0.00094421 Eh       0.59 kcal/mol
-----------------------------------------------------------------------
Total Enthalpy                    ...   -844.38350913 Eh


Note: Only C1 symmetry has been detected, increase convergence thresholds 
      if your molecule has a higher symmetry. Symmetry factor of 1.0 is   
      used for the rotational entropy correction. 
 

Note: Rotational entropy computed according to Herzberg 
Infrared and Raman Spectra, Chapter V,1, Van Nostrand Reinhold, 1945 
Point Group:  C1, Symmetry Number:   1  
Rotational constants in cm-1:     0.023558     0.005966     0.005195 

Vibrational entropy computed according to the QRRHO of S. Grimme
Chem.Eur.J. 2012 18 9955


-------
ENTROPY
-------

The entropy contributions are T*S = T*(S(el)+S(vib)+S(rot)+S(trans))
     S(el)   - electronic entropy
     S(vib)  - vibrational entropy
     S(rot)  - rotational entropy
     S(trans)- translational entropy
The entropies will be listed as multiplied by the temperature to get
units of energy

Electronic entropy                ...      0.00000000 Eh      0.00 kcal/mol
Vibrational entropy               ...      0.02982555 Eh     18.72 kcal/mol
Rotational entropy                ...      0.01618149 Eh     10.15 kcal/mol
Translational entropy             ...      0.02031105 Eh     12.75 kcal/mol
-----------------------------------------------------------------------
Final entropy term                ...      0.06631808 Eh     41.62 kcal/mol

In case the symmetry of your molecule has not been determined correctly
or in case you have a reason to use a different symmetry number we print 
out the resulting rotational entropy values for sn=1,12 :
 --------------------------------------------------------
|  sn= 1 | S(rot)=       0.01618149 Eh     10.15 kcal/mol|
|  sn= 2 | S(rot)=       0.01552703 Eh      9.74 kcal/mol|
|  sn= 3 | S(rot)=       0.01514420 Eh      9.50 kcal/mol|
|  sn= 4 | S(rot)=       0.01487257 Eh      9.33 kcal/mol|
|  sn= 5 | S(rot)=       0.01466189 Eh      9.20 kcal/mol|
|  sn= 6 | S(rot)=       0.01448974 Eh      9.09 kcal/mol|
|  sn= 7 | S(rot)=       0.01434419 Eh      9.00 kcal/mol|
|  sn= 8 | S(rot)=       0.01421812 Eh      8.92 kcal/mol|
|  sn= 9 | S(rot)=       0.01410691 Eh      8.85 kcal/mol|
|  sn=10 | S(rot)=       0.01400743 Eh      8.79 kcal/mol|
|  sn=11 | S(rot)=       0.01391744 Eh      8.73 kcal/mol|
|  sn=12 | S(rot)=       0.01383528 Eh      8.68 kcal/mol|
 --------------------------------------------------------


-------------------
GIBBS FREE ENERGY
-------------------

The Gibbs free energy is G = H - T*S

Total enthalpy                    ...   -844.38350913 Eh 
Total entropy correction          ...     -0.06631808 Eh    -41.62 kcal/mol
-----------------------------------------------------------------------
Final Gibbs free energy         ...   -844.44982721 Eh

For completeness - the Gibbs free energy minus the electronic energy
G-E(el)                           ...      0.29973051 Eh    188.08 kcal/mol


Timings for individual modules:

Sum of individual times         ...     7402.982 sec (= 123.383 min)
GTO integral calculation        ...        1.356 sec (=   0.023 min)   0.0 %
SCF iterations                  ...     1854.113 sec (=  30.902 min)  25.0 %
SCF Gradient evaluation         ...      251.722 sec (=   4.195 min)   3.4 %
Geometry relaxation             ...        0.160 sec (=   0.003 min)   0.0 %
Analytical frequency calculation...     5295.631 sec (=  88.261 min)  71.5 %
                             ****ORCA TERMINATED NORMALLY****
TOTAL RUN TIME: 0 days 2 hours 3 minutes 24 seconds 46 msec
