
                                 *****************
                                 * O   R   C   A *
                                 *****************

                                            #,                                       
                                            ###                                      
                                            ####                                     
                                            #####                                    
                                            ######                                   
                                           ########,                                 
                                     ,,################,,,,,                         
                               ,,#################################,,                 
                          ,,##########################################,,             
                       ,#########################################, ''#####,          
                    ,#############################################,,   '####,        
                  ,##################################################,,,,####,       
                ,###########''''           ''''###############################       
              ,#####''   ,,,,##########,,,,          '''####'''          '####       
            ,##' ,,,,###########################,,,                        '##       
           ' ,,###''''                  '''############,,,                           
         ,,##''                                '''############,,,,        ,,,,,,###''
      ,#''                                            '''#######################'''  
     '                                                          ''''####''''         
             ,#######,   #######,   ,#######,      ##                                
            ,#'     '#,  ##    ##  ,#'     '#,    #''#        ######   ,####,        
            ##       ##  ##   ,#'  ##            #'  '#       #        #'  '#        
            ##       ##  #######   ##           ,######,      #####,   #    #        
            '#,     ,#'  ##    ##  '#,     ,#' ,#      #,         ##   #,  ,#        
             '#######'   ##     ##  '#######'  #'      '#     #####' # '####'        



                  #######################################################
                  #                        -***-                        #
                  #          Department of theory and spectroscopy      #
                  #    Directorship and core code : Frank Neese         #
                  #        Max Planck Institute fuer Kohlenforschung    #
                  #                Kaiser Wilhelm Platz 1               #
                  #                 D-45470 Muelheim/Ruhr               #
                  #                      Germany                        #
                  #                                                     #
                  #                  All rights reserved                #
                  #                        -***-                        #
                  #######################################################


                         Program Version 5.0.4 -  RELEASE  -


 With contributions from (in alphabetic order):
   Daniel Aravena         : Magnetic Suceptibility
   Michael Atanasov       : Ab Initio Ligand Field Theory (pilot matlab implementation)
   Alexander A. Auer      : GIAO ZORA, VPT2 properties, NMR spectrum
   Ute Becker             : Parallelization
   Giovanni Bistoni       : ED, misc. LED, open-shell LED, HFLD
   Martin Brehm           : Molecular dynamics
   Dmytro Bykov           : SCF Hessian
   Vijay G. Chilkuri      : MRCI spin determinant printing, contributions to CSF-ICE
   Dipayan Datta          : RHF DLPNO-CCSD density
   Achintya Kumar Dutta   : EOM-CC, STEOM-CC
   Dmitry Ganyushin       : Spin-Orbit,Spin-Spin,Magnetic field MRCI
   Miquel Garcia          : C-PCM and meta-GGA Hessian, CC/C-PCM, Gaussian charge scheme
   Yang Guo               : DLPNO-NEVPT2, F12-NEVPT2, CIM, IAO-localization
   Andreas Hansen         : Spin unrestricted coupled pair/coupled cluster methods
   Benjamin Helmich-Paris : MC-RPA, TRAH-SCF, COSX integrals
   Lee Huntington         : MR-EOM, pCC
   Robert Izsak           : Overlap fitted RIJCOSX, COSX-SCS-MP3, EOM
   Marcus Kettner         : VPT2
   Christian Kollmar      : KDIIS, OOCD, Brueckner-CCSD(T), CCSD density, CASPT2, CASPT2-K
   Simone Kossmann        : Meta GGA functionals, TD-DFT gradient, OOMP2, MP2 Hessian
   Martin Krupicka        : Initial AUTO-CI
   Lucas Lang             : DCDCAS
   Marvin Lechner         : AUTO-CI (C++ implementation), FIC-MRCC
   Dagmar Lenk            : GEPOL surface, SMD
   Dimitrios Liakos       : Extrapolation schemes; Compound Job, initial MDCI parallelization
   Dimitrios Manganas     : Further ROCIS development; embedding schemes
   Dimitrios Pantazis     : SARC Basis sets
   Anastasios Papadopoulos: AUTO-CI, single reference methods and gradients
   Taras Petrenko         : DFT Hessian,TD-DFT gradient, ASA, ECA, R-Raman, ABS, FL, XAS/XES, NRVS
   Peter Pinski           : DLPNO-MP2, DLPNO-MP2 Gradient
   Christoph Reimann      : Effective Core Potentials
   Marius Retegan         : Local ZFS, SOC
   Christoph Riplinger    : Optimizer, TS searches, QM/MM, DLPNO-CCSD(T), (RO)-DLPNO pert. Triples
   Tobias Risthaus        : Range-separated hybrids, TD-DFT gradient, RPA, STAB
   Michael Roemelt        : Original ROCIS implementation
   Masaaki Saitow         : Open-shell DLPNO-CCSD energy and density
   Barbara Sandhoefer     : DKH picture change effects
   Avijit Sen             : IP-ROCIS
   Kantharuban Sivalingam : CASSCF convergence, NEVPT2, FIC-MRCI
   Bernardo de Souza      : ESD, SOC TD-DFT
   Georgi Stoychev        : AutoAux, RI-MP2 NMR, DLPNO-MP2 response
   Willem Van den Heuvel  : Paramagnetic NMR
   Boris Wezisla          : Elementary symmetry handling
   Frank Wennmohs         : Technical directorship


 We gratefully acknowledge several colleagues who have allowed us to
 interface, adapt or use parts of their codes:
   Stefan Grimme, W. Hujo, H. Kruse, P. Pracht,  : VdW corrections, initial TS optimization,
                  C. Bannwarth, S. Ehlert          DFT functionals, gCP, sTDA/sTD-DF
   Ed Valeev, F. Pavosevic, A. Kumar             : LibInt (2-el integral package), F12 methods
   Garnet Chan, S. Sharma, J. Yang, R. Olivares  : DMRG
   Ulf Ekstrom                                   : XCFun DFT Library
   Mihaly Kallay                                 : mrcc  (arbitrary order and MRCC methods)
   Jiri Pittner, Ondrej Demel                    : Mk-CCSD
   Frank Weinhold                                : gennbo (NPA and NBO analysis)
   Christopher J. Cramer and Donald G. Truhlar   : smd solvation model
   Lars Goerigk                                  : TD-DFT with DH, B97 family of functionals
   V. Asgeirsson, H. Jonsson                     : NEB implementation
   FAccTs GmbH                                   : IRC, NEB, NEB-TS, DLPNO-Multilevel, CI-OPT
                                                   MM, QMMM, 2- and 3-layer-ONIOM, Crystal-QMMM,
                                                   LR-CPCM, SF, NACMEs, symmetry and pop. for TD-DFT,
                                                   nearIR, NL-DFT gradient (VV10), updates on ESD,
                                                   ML-optimized integration grids
   S Lehtola, MJT Oliveira, MAL Marques          : LibXC Library
   Liviu Ungur et al                             : ANISO software


 Your calculation uses the libint2 library for the computation of 2-el integrals
 For citations please refer to: http://libint.valeyev.net

 Your ORCA version has been built with support for libXC version: 5.1.0
 For citations please refer to: https://tddft.org/programs/libxc/

 This ORCA versions uses:
   CBLAS   interface :  Fast vector & matrix operations
   LAPACKE interface :  Fast linear algebra routines
   SCALAPACK package :  Parallel linear algebra routines
   Shared memory     :  Shared parallel matrices
   BLAS/LAPACK       :  OpenBLAS 0.3.15  USE64BITINT DYNAMIC_ARCH NO_AFFINITY SkylakeX SINGLE_THREADED
        Core in use  :  SkylakeX
   Copyright (c) 2011-2014, The OpenBLAS Project




***************************************
The coordinates will be read from file: 8_deprot_aq_5.xyz
***************************************


Your calculation utilizes the atom-pairwise dispersion correction
based on tight binding partial charges (D4)
Cite in your paper:
E.Caldeweyher, C.Bannwarth, S.Grimme, J.Chem.Phys., (2017), 147, 034112.
E.Caldeweyher, S.Ehlert, A.Hansen, H.Neugebauer, S.Grimme, J.Chem.Phys., (2018), in progress.
   

XCFun DFT library Copyright 2009-2010 Ulf Ekstrom and contributors.
See http://admol.org/xcfun for more information.
This is free software; see the source code for copying conditions.
There is ABSOLUTELY NO WARRANTY; not even for MERCHANTABILITY or FITNESS FOR A PARTICULAR PURPOSE.
For details see the documentation.
Scientific users of this library should cite U. Ekstrom, L. Visscher, R. Bast, A. J. Thorvaldsen and K. Ruud;
J.Chem.Theor.Comp. 2010, DOI: 10.1021/ct100117s
XCFun Version 0.99 

================================================================================

----- Orbital basis set information -----
Your calculation utilizes the basis: def2-SVP
   F. Weigend and R. Ahlrichs, Phys. Chem. Chem. Phys. 7, 3297 (2005).

----- AuxJ basis set information -----
Your calculation utilizes the auxiliary basis: def2/J
   F. Weigend, Phys. Chem. Chem. Phys. 8, 1057 (2006).

================================================================================
                                        WARNINGS
                       Please study these warnings very carefully!
================================================================================

WARNING: Old DensityContainer found on disk!
         Will remove this file - 
         If you want to keep old densities, please start your calculation with a different basename. 


WARNING: Geometry Optimization
  ===> : Switching off AutoStart
         For restart on a previous wavefunction, please use MOREAD

INFO   : the flag for use of the SHARK integral package has been found!

================================================================================
                                       INPUT FILE
================================================================================
NAME = 8_deprot_aq_5.inp
|  1> # ORCA 5.0.4 - /users/bwb16179/postgrad/2024_03/DFT_Crest_Conformers/Opt/deprot/8_deprot_aq_5.inp # write input file
|  2> # Basic Mode
|  3> #
|  4> ! Opt Freq wB97X Def2-SVP D4 SlowConv TightSCF Defgrid2 Def2/J RIJCOSX CPCM(Water)
|  5> 
|  6> 
|  7> 
|  8> %maxcore 4500
|  9> 
| 10> %geom
| 11> Maxiter 150
| 12> END
| 13> 
| 14> * xyzfile 0 1 8_deprot_aq_5.xyz
| 15> 
| 16>                          ****END OF INPUT****
================================================================================

                       *****************************
                       * Geometry Optimization Run *
                       *****************************

Geometry optimization settings:
Update method            Update   .... BFGS
Choice of coordinates    CoordSys .... Z-matrix Internals
Initial Hessian          InHess   .... Almoef's Model

Convergence Tolerances:
Energy Change            TolE     ....  5.0000e-06 Eh
Max. Gradient            TolMAXG  ....  3.0000e-04 Eh/bohr
RMS Gradient             TolRMSG  ....  1.0000e-04 Eh/bohr
Max. Displacement        TolMAXD  ....  4.0000e-03 bohr
RMS Displacement         TolRMSD  ....  2.0000e-03 bohr
Strict Convergence                ....  False
------------------------------------------------------------------------------
                        ORCA OPTIMIZATION COORDINATE SETUP
------------------------------------------------------------------------------

The optimization will be done in new redundant internal coordinates
Making redundant internal coordinates   ...  (new redundants) done
Evaluating the initial hessian          ...  (Almloef) done
Evaluating the coordinates              ...  done
Calculating the B-matrix                .... done
Calculating the G-matrix                .... done
Diagonalizing the G-matrix              .... done
Small eigenvalue found = 3.390e-03
Small eigenvalue found = 6.469e-03
Small eigenvalue found = 8.104e-03
Small eigenvalue found = 1.321e-02
Small eigenvalue found = 1.768e-02
The first mode is                       ....   95
The number of degrees of freedom        ....  117

    -----------------------------------------------------------------
                    Redundant Internal Coordinates


    -----------------------------------------------------------------
         Definition                    Initial Value    Approx d2E/dq
    -----------------------------------------------------------------
      1. B(C   1,N   0)                  1.3602         0.624400   
      2. B(N   2,C   1)                  1.3602         0.624239   
      3. B(C   3,N   2)                  1.3901         0.559360   
      4. B(C   4,C   3)                  1.3538         0.713609   
      5. B(C   4,N   0)                  1.3901         0.559430   
      6. B(C   5,N   0)                  1.4338         0.476484   
      7. B(C   6,N   2)                  1.4334         0.477090   
      8. B(C   7,C   5)                  1.4018         0.598285   
      9. B(C   8,C   5)                  1.4027         0.596323   
     10. B(C   9,C   6)                  1.4016         0.598725   
     11. B(C  10,C   6)                  1.4026         0.596591   
     12. B(H  11,C   3)                  1.0887         0.361874   
     13. B(H  12,C   4)                  1.0887         0.361818   
     14. B(C  13,C   8)                  1.3982         0.606289   
     15. B(C  14,C  13)                  1.3938         0.616134   
     16. B(C  15,C  14)                  1.3926         0.618879   
     17. B(C  15,C   7)                  1.3990         0.604367   
     18. B(C  16,C   9)                  1.3992         0.604071   
     19. B(C  17,C  16)                  1.3926         0.618776   
     20. B(C  18,C  17)                  1.3938         0.616064   
     21. B(C  18,C  10)                  1.3983         0.605988   
     22. B(C  19,C   7)                  1.5055         0.408764   
     23. B(C  20,C   8)                  1.5052         0.409243   
     24. B(H  21,C  13)                  1.0941         0.354726   
     25. B(H  22,C  14)                  1.0937         0.355217   
     26. B(H  23,C  15)                  1.0942         0.354605   
     27. B(C  24,C   9)                  1.5054         0.408922   
     28. B(H  25,C  18)                  1.0941         0.354687   
     29. B(C  26,C  10)                  1.5058         0.408329   
     30. B(H  27,C  16)                  1.0942         0.354568   
     31. B(H  28,C  17)                  1.0937         0.355210   
     32. B(H  29,C  20)                  1.0986         0.348930   
     33. B(H  30,C  20)                  1.1014         0.345333   
     34. B(H  31,C  20)                  1.1017         0.344950   
     35. B(H  32,C  19)                  1.1020         0.344571   
     36. B(H  33,C  19)                  1.1013         0.345440   
     37. B(H  34,C  19)                  1.0986         0.348924   
     38. B(H  35,C  26)                  1.0986         0.348947   
     39. B(H  36,C  26)                  1.1013         0.345458   
     40. B(H  37,C  26)                  1.1019         0.344644   
     41. B(H  38,C  24)                  1.0986         0.348865   
     42. B(H  39,C  24)                  1.1020         0.344567   
     43. B(H  40,C  24)                  1.1011         0.345670   
     44. A(C   4,N   0,C   5)          123.8613         0.401421   
     45. A(C   1,N   0,C   5)          123.2100         0.409288   
     46. A(C   1,N   0,C   4)          112.9150         0.421136   
     47. A(N   0,C   1,N   2)          102.2628         0.429479   
     48. A(C   1,N   2,C   6)          123.2815         0.409361   
     49. A(C   1,N   2,C   3)          112.9107         0.421107   
     50. A(C   3,N   2,C   6)          123.8026         0.401502   
     51. A(C   4,C   3,H  11)          131.4087         0.361746   
     52. A(N   2,C   3,C   4)          105.9558         0.434158   
     53. A(N   2,C   3,H  11)          122.6351         0.344995   
     54. A(C   3,C   4,H  12)          131.4441         0.361737   
     55. A(N   0,C   4,H  12)          122.6003         0.344993   
     56. A(N   0,C   4,C   3)          105.9556         0.434168   
     57. A(C   7,C   5,C   8)          122.6586         0.428289   
     58. A(N   0,C   5,C   8)          118.8540         0.408600   
     59. A(N   0,C   5,C   7)          118.4869         0.408837   
     60. A(N   2,C   6,C  10)          118.6437         0.408724   
     61. A(N   2,C   6,C   9)          118.7057         0.408983   
     62. A(C   9,C   6,C  10)          122.6504         0.428380   
     63. A(C  15,C   7,C  19)          121.4557         0.401207   
     64. A(C   5,C   7,C  19)          120.7478         0.400493   
     65. A(C   5,C   7,C  15)          117.7901         0.429320   
     66. A(C   5,C   8,C  13)          117.7767         0.429311   
     67. A(C  13,C   8,C  20)          121.6065         0.401515   
     68. A(C   5,C   8,C  20)          120.6138         0.400344   
     69. A(C   6,C   9,C  16)          117.7798         0.429339   
     70. A(C   6,C   9,C  24)          120.8448         0.400573   
     71. A(C  16,C   9,C  24)          121.3722         0.401200   
     72. A(C   6,C  10,C  18)          117.7997         0.429308   
     73. A(C  18,C  10,C  26)          121.4720         0.401321   
     74. A(C   6,C  10,C  26)          120.7172         0.400219   
     75. A(C   8,C  13,C  14)          120.7146         0.431838   
     76. A(C  14,C  13,H  21)          120.1232         0.351640   
     77. A(C   8,C  13,H  21)          119.1619         0.350684   
     78. A(C  13,C  14,C  15)          120.3505         0.433437   
     79. A(C  15,C  14,H  22)          119.8380         0.351987   
     80. A(C  13,C  14,H  22)          119.8115         0.351722   
     81. A(C   7,C  15,C  14)          120.7089         0.431937   
     82. A(C  14,C  15,H  23)          120.1678         0.351884   
     83. A(C   7,C  15,H  23)          119.1233         0.350476   
     84. A(C   9,C  16,C  17)          120.7385         0.431886   
     85. A(C  17,C  16,H  27)          120.1263         0.351868   
     86. A(C   9,C  16,H  27)          119.1348         0.350441   
     87. A(C  16,C  17,C  18)          120.3223         0.433415   
     88. A(C  18,C  17,H  28)          119.8312         0.351715   
     89. A(C  16,C  17,H  28)          119.8465         0.351976   
     90. A(C  10,C  18,C  17)          120.7088         0.431791   
     91. A(C  17,C  18,H  25)          120.1154         0.351627   
     92. A(C  10,C  18,H  25)          119.1757         0.350648   
     93. A(H  33,C  19,H  34)          108.3456         0.287528   
     94. A(H  32,C  19,H  34)          108.3640         0.287415   
     95. A(H  32,C  19,H  33)          106.7335         0.286965   
     96. A(C   7,C  19,H  33)          111.5186         0.326914   
     97. A(C   7,C  19,H  32)          110.8869         0.326778   
     98. A(C   7,C  19,H  34)          110.8363         0.327455   
     99. A(H  30,C  20,H  31)          106.7455         0.287000   
    100. A(H  29,C  20,H  31)          108.4251         0.287465   
    101. A(C   8,C  20,H  31)          110.8242         0.326901   
    102. A(H  29,C  20,H  30)          108.4329         0.287515   
    103. A(C   8,C  20,H  30)          111.3611         0.326960   
    104. A(C   8,C  20,H  29)          110.9024         0.327519   
    105. A(H  39,C  24,H  40)          106.7406         0.286994   
    106. A(H  38,C  24,H  40)          108.5179         0.287550   
    107. A(C   9,C  24,H  40)          111.4765         0.326971   
    108. A(H  38,C  24,H  39)          108.2738         0.287407   
    109. A(C   9,C  24,H  39)          110.8694         0.326799   
    110. A(C   9,C  24,H  38)          110.8102         0.327467   
    111. A(C  10,C  26,H  36)          111.6419         0.326859   
    112. A(C  10,C  26,H  35)          110.8072         0.327401   
    113. A(H  36,C  26,H  37)          106.7722         0.286976   
    114. A(H  35,C  26,H  37)          108.3932         0.287427   
    115. A(C  10,C  26,H  37)          110.7282         0.326732   
    116. A(H  35,C  26,H  36)          108.3454         0.287533   
    117. D(N   2,C   1,N   0,C   5)    178.8145         0.028634   
    118. D(N   2,C   1,N   0,C   4)      0.1160         0.028634   
    119. D(C   6,N   2,C   1,N   0)   -179.3290         0.028618   
    120. D(C   3,N   2,C   1,N   0)     -0.1285         0.028618   
    121. D(H  11,C   3,N   2,C   6)     -0.8941         0.024984   
    122. D(C   4,C   3,N   2,C   1)      0.0961         0.024984   
    123. D(C   4,C   3,N   2,C   6)    179.2918         0.024984   
    124. D(H  11,C   3,N   2,C   1)    179.9103         0.024984   
    125. D(H  12,C   4,C   3,N   2)    179.9471         0.035985   
    126. D(N   0,C   4,C   3,H  11)   -179.8100         0.035985   
    127. D(H  12,C   4,N   0,C   5)      1.2783         0.024991   
    128. D(N   0,C   4,C   3,N   2)     -0.0187         0.035985   
    129. D(H  12,C   4,N   0,C   1)    179.9670         0.024991   
    130. D(C   3,C   4,N   0,C   5)   -178.7521         0.024991   
    131. D(H  12,C   4,C   3,H  11)      0.1558         0.035985   
    132. D(C   3,C   4,N   0,C   1)     -0.0634         0.024991   
    133. D(C   8,C   5,N   0,C   1)     86.7467         0.017905   
    134. D(C   8,C   5,N   0,C   4)    -94.6969         0.017905   
    135. D(C   7,C   5,N   0,C   4)     85.5496         0.017905   
    136. D(C   7,C   5,N   0,C   1)    -93.0068         0.017905   
    137. D(C  10,C   6,N   2,C   3)    -87.2975         0.017951   
    138. D(C  10,C   6,N   2,C   1)     91.8162         0.017951   
    139. D(C   9,C   6,N   2,C   3)     92.8527         0.017951   
    140. D(C   9,C   6,N   2,C   1)    -88.0335         0.017951   
    141. D(C  19,C   7,C   5,C   8)   -178.8663         0.024668   
    142. D(C  19,C   7,C   5,N   0)      0.8772         0.024668   
    143. D(C  15,C   7,C   5,C   8)      0.2279         0.024668   
    144. D(C  15,C   7,C   5,N   0)    179.9715         0.024668   
    145. D(C  20,C   8,C   5,N   0)     -0.4241         0.024498   
    146. D(C  13,C   8,C   5,C   7)     -0.0557         0.024498   
    147. D(C  13,C   8,C   5,N   0)   -179.7983         0.024498   
    148. D(C  20,C   8,C   5,C   7)    179.3185         0.024498   
    149. D(C  24,C   9,C   6,C  10)   -179.1897         0.024707   
    150. D(C  24,C   9,C   6,N   2)      0.6537         0.024707   
    151. D(C  16,C   9,C   6,C  10)      0.1721         0.024707   
    152. D(C  16,C   9,C   6,N   2)   -179.9845         0.024707   
    153. D(C  26,C  10,C   6,C   9)    178.6514         0.024521   
    154. D(C  18,C  10,C   6,C   9)     -0.1571         0.024521   
    155. D(C  26,C  10,C   6,N   2)     -1.1920         0.024521   
    156. D(C  18,C  10,C   6,N   2)    179.9994         0.024521   
    157. D(H  21,C  13,C   8,C  20)      0.6345         0.025370   
    158. D(H  21,C  13,C   8,C   5)   -179.9978         0.025370   
    159. D(C  14,C  13,C   8,C  20)   -179.5456         0.025370   
    160. D(C  14,C  13,C   8,C   5)     -0.1780         0.025370   
    161. D(H  22,C  14,C  13,H  21)     -0.0072         0.026249   
    162. D(H  22,C  14,C  13,C   8)   -179.8254         0.026249   
    163. D(C  15,C  14,C  13,H  21)   -179.9475         0.026249   
    164. D(C  15,C  14,C  13,C   8)      0.2343         0.026249   
    165. D(H  23,C  15,C  14,H  22)     -0.0146         0.026498   
    166. D(C   7,C  15,C  14,H  22)   -179.9942         0.026498   
    167. D(C   7,C  15,C  14,C  13)     -0.0539         0.026498   
    168. D(H  23,C  15,C   7,C  19)     -1.0631         0.025200   
    169. D(H  23,C  15,C   7,C   5)    179.8495         0.025200   
    170. D(H  23,C  15,C  14,C  13)    179.9257         0.026498   
    171. D(C  14,C  15,C   7,C  19)    178.9168         0.025200   
    172. D(C  14,C  15,C   7,C   5)     -0.1707         0.025200   
    173. D(H  27,C  16,C   9,C  24)     -0.9041         0.025174   
    174. D(H  27,C  16,C   9,C   6)    179.7376         0.025174   
    175. D(C  17,C  16,C   9,C  24)    179.3224         0.025174   
    176. D(C  17,C  16,C   9,C   6)     -0.0359         0.025174   
    177. D(H  28,C  17,C  16,C   9)    179.9122         0.026488   
    178. D(C  18,C  17,C  16,H  27)   -179.8806         0.026488   
    179. D(C  18,C  17,C  16,C   9)     -0.1094         0.026488   
    180. D(H  28,C  17,C  16,H  27)      0.1410         0.026488   
    181. D(H  25,C  18,C  17,H  28)      0.1947         0.026243   
    182. D(H  25,C  18,C  17,C  16)   -179.7837         0.026243   
    183. D(C  10,C  18,C  17,H  28)   -179.8965         0.026243   
    184. D(C  10,C  18,C  17,C  16)      0.1251         0.026243   
    185. D(H  25,C  18,C  10,C  26)      1.1161         0.025343   
    186. D(H  25,C  18,C  10,C   6)    179.9151         0.025343   
    187. D(C  17,C  18,C  10,C  26)   -178.7936         0.025343   
    188. D(C  17,C  18,C  10,C   6)      0.0054         0.025343   
    189. D(H  34,C  19,C   7,C  15)      2.2220         0.012378   
    190. D(H  34,C  19,C   7,C   5)   -178.7174         0.012378   
    191. D(H  33,C  19,C   7,C  15)    123.0236         0.012378   
    192. D(H  33,C  19,C   7,C   5)    -57.9158         0.012378   
    193. D(H  32,C  19,C   7,C  15)   -118.1786         0.012378   
    194. D(H  32,C  19,C   7,C   5)     60.8821         0.012378   
    195. D(H  31,C  20,C   8,C  13)    118.4494         0.012406   
    196. D(H  31,C  20,C   8,C   5)    -60.9005         0.012406   
    197. D(H  30,C  20,C   8,C  13)   -122.8812         0.012406   
    198. D(H  30,C  20,C   8,C   5)     57.7689         0.012406   
    199. D(H  29,C  20,C   8,C  13)     -2.0304         0.012406   
    200. D(H  29,C  20,C   8,C   5)    178.6197         0.012406   
    201. D(H  40,C  24,C   9,C  16)    128.4007         0.012387   
    202. D(H  40,C  24,C   9,C   6)    -52.2607         0.012387   
    203. D(H  39,C  24,C   9,C  16)   -112.8315         0.012387   
    204. D(H  39,C  24,C   9,C   6)     66.5071         0.012387   
    205. D(H  38,C  24,C   9,C  16)      7.4266         0.012387   
    206. D(H  38,C  24,C   9,C   6)   -173.2348         0.012387   
    207. D(H  37,C  26,C  10,C  18)    116.6702         0.012353   
    208. D(H  37,C  26,C  10,C   6)    -62.0941         0.012353   
    209. D(H  36,C  26,C  10,C  18)   -124.5078         0.012353   
    210. D(H  36,C  26,C  10,C   6)     56.7280         0.012353   
    211. D(H  35,C  26,C  10,C  18)     -3.6427         0.012353   
    212. D(H  35,C  26,C  10,C   6)    177.5931         0.012353   
    -----------------------------------------------------------------

Number of atoms                         .... 41
Number of degrees of freedom            .... 212

         *************************************************************
         *                GEOMETRY OPTIMIZATION CYCLE   1            *
         *************************************************************
---------------------------------
CARTESIAN COORDINATES (ANGSTROEM)
---------------------------------
  N     -1.056538    0.058607    0.484772
  C     -0.008120   -0.051013   -0.374804
  N      1.057668   -0.068613    0.470209
  C      0.689910    0.029250    1.807219
  C     -0.661452    0.110286    1.816524
  C     -2.421075    0.141503    0.052507
  C      2.415921   -0.160255    0.021383
  C     -2.987203    1.410157   -0.134757
  C     -3.133697   -1.045857   -0.170887
  C      2.976201   -1.430086   -0.173825
  C      3.129715    1.025150   -0.207806
  H      1.416855    0.028995    2.617612
  H     -1.372433    0.198456    2.636285
  C     -4.461351   -0.938798   -0.596086
  C     -5.049740    0.310474   -0.785284
  C     -4.319384    1.474053   -0.557310
  C      4.303371   -1.496967   -0.611842
  C      5.035596   -0.335409   -0.844357
  C      4.453285    0.915209   -0.645269
  C     -2.174752    2.656885    0.093519
  C     -2.475263   -2.384370    0.030122
  H     -5.038347   -1.850578   -0.777118
  H     -6.090294    0.377025   -1.115487
  H     -4.783900    2.453224   -0.707945
  C      2.166818   -2.676229    0.067475
  H      5.030562    1.825620   -0.832376
  C      2.475088    2.367102   -0.012821
  H      4.764314   -2.477105   -0.767296
  H      6.072543   -0.404701   -1.185189
  H     -3.182348   -3.202226   -0.164856
  H     -2.091982   -2.492753    1.056975
  H     -1.612435   -2.501709   -0.644787
  H     -1.307058    2.690116   -0.585013
  H     -1.776655    2.697402    1.119565
  H     -2.782393    3.556025   -0.077369
  H      3.190625    3.180514   -0.195061
  H      2.074925    2.479463    1.007036
  H      1.625181    2.490457   -0.703268
  H      2.795927   -3.572858   -0.017748
  H      1.346293   -2.759077   -0.663473
  H      1.702554   -2.668366    1.065918

----------------------------
CARTESIAN COORDINATES (A.U.)
----------------------------
  NO LB      ZA    FRAG     MASS         X           Y           Z
   0 N     7.0000    0    14.007   -1.996567    0.110751    0.916087
   1 C     6.0000    0    12.011   -0.015344   -0.096400   -0.708278
   2 N     7.0000    0    14.007    1.998703   -0.129659    0.888565
   3 C     6.0000    0    12.011    1.303740    0.055274    3.415150
   4 C     6.0000    0    12.011   -1.249962    0.208410    3.432732
   5 C     6.0000    0    12.011   -4.575169    0.267403    0.099223
   6 C     6.0000    0    12.011    4.565429   -0.302838    0.040407
   7 C     6.0000    0    12.011   -5.644995    2.664811   -0.254654
   8 C     6.0000    0    12.011   -5.921828   -1.976383   -0.322929
   9 C     6.0000    0    12.011    5.624205   -2.702471   -0.328481
  10 C     6.0000    0    12.011    5.914304    1.937254   -0.392696
  11 H     1.0000    0     1.008    2.677467    0.054793    4.946571
  12 H     1.0000    0     1.008   -2.593522    0.375027    4.981857
  13 C     6.0000    0    12.011   -8.430732   -1.774072   -1.126439
  14 C     6.0000    0    12.011   -9.542626    0.586712   -1.483972
  15 C     6.0000    0    12.011   -8.162452    2.785556   -1.053162
  16 C     6.0000    0    12.011    8.132193   -2.828858   -1.156213
  17 C     6.0000    0    12.011    9.515898   -0.633831   -1.595603
  18 C     6.0000    0    12.011    8.415489    1.729494   -1.219382
  19 C     6.0000    0    12.011   -4.109685    5.020786    0.176726
  20 C     6.0000    0    12.011   -4.677570   -4.505807    0.056923
  21 H     1.0000    0     1.008   -9.521096   -3.497086   -1.468540
  22 H     1.0000    0     1.008  -11.508987    0.712474   -2.107966
  23 H     1.0000    0     1.008   -9.040261    4.635921   -1.337821
  24 C     6.0000    0    12.011    4.094693   -5.057341    0.127509
  25 H     1.0000    0     1.008    9.506384    3.449921   -1.572962
  26 C     6.0000    0    12.011    4.677238    4.473175   -0.024227
  27 H     1.0000    0     1.008    9.003249   -4.681051   -1.449978
  28 H     1.0000    0     1.008   11.475444   -0.764774   -2.239682
  29 H     1.0000    0     1.008   -6.013767   -6.051330   -0.311532
  30 H     1.0000    0     1.008   -3.953273   -4.710621    1.997393
  31 H     1.0000    0     1.008   -3.047061   -4.727545   -1.218472
  32 H     1.0000    0     1.008   -2.469982    5.083582   -1.105514
  33 H     1.0000    0     1.008   -3.357392    5.097350    2.115671
  34 H     1.0000    0     1.008   -5.257961    6.719913   -0.146206
  35 H     1.0000    0     1.008    6.029408    6.010300   -0.368611
  36 H     1.0000    0     1.008    3.921041    4.685506    1.903021
  37 H     1.0000    0     1.008    3.071148    4.706282   -1.328984
  38 H     1.0000    0     1.008    5.283536   -6.751724   -0.033540
  39 H     1.0000    0     1.008    2.544125   -5.213899   -1.253782
  40 H     1.0000    0     1.008    3.217362   -5.042480    2.014294

--------------------------------
INTERNAL COORDINATES (ANGSTROEM)
--------------------------------
 N      0   0   0     0.000000000000     0.00000000     0.00000000
 C      1   0   0     1.360172591631     0.00000000     0.00000000
 N      2   1   0     1.360242763933   102.26279104     0.00000000
 C      3   2   1     1.390115541944   112.91066448   359.87152952
 C      4   3   2     1.353820852172   105.95580731     0.09612736
 C      1   2   3     1.433766530565   123.21003256   178.81453248
 C      3   2   1     1.433420552022   123.28151803   180.67104524
 C      6   1   2     1.401802817472   118.48689301   266.99324795
 C      6   1   2     1.402696699600   118.85403540    86.74673163
 C      7   3   2     1.401602549665   118.70573852   271.96648462
 C      7   3   2     1.402574429804   118.64365768    91.81624731
 H      4   3   2     1.088662483743   122.63512702   179.91028128
 H      5   4   3     1.088704089018   131.44407509   179.94709937
 C      9   6   1     1.398185328098   117.77667965   180.20165139
 C     14   9   6     1.393800587142   120.71462094   359.82202896
 C     15  14   9     1.392590249980   120.35047351     0.23432352
 C     10   7   3     1.399182800218   117.77982714   180.01549156
 C     17  10   7     1.392635563621   120.73852820   359.96414232
 C     18  17  10     1.393831540971   120.32233851   359.89062956
 C      8   6   1     1.505495850710   120.74779577     0.87723387
 C      9   6   1     1.505177129881   120.61378611   359.57587184
 H     14   9   6     1.094092934051   119.16189110   180.00216437
 H     15  14   9     1.093716303023   119.81151263   180.17462389
 H     16  15  14     1.094185707605   120.16784756   179.92570665
 C     10   7   3     1.505390413312   120.84481780     0.65370516
 H     19  18  17     1.094123234280   120.11541762   180.21628748
 C     11   7   3     1.505785759027   120.71720085   358.80795286
 H     17  10   7     1.094214149423   119.13475603   179.73764290
 H     18  17  10     1.093721643854   119.84646658   179.91222066
 H     21   9   6     1.098577814727   110.90239197   178.61967194
 H     21   9   6     1.101398197600   111.36105833    57.76886012
 H     21   9   6     1.101700113622   110.82416503   299.09947069
 H     20   8   6     1.101999544279   110.88693626    60.88205518
 H     20   8   6     1.101313737166   111.51859940   302.08422698
 H     20   8   6     1.098582274780   110.83626603   181.28264735
 H     27  11   7     1.098564345641   110.80724095   177.59306894
 H     27  11   7     1.101299778911   111.64191407    56.72798035
 H     27  11   7     1.101941460885   110.72823518   297.90591784
 H     25  10   7     1.098628298721   110.81019752   186.76522853
 H     25  10   7     1.102002433805   110.86944451    66.50713380
 H     25  10   7     1.101132394511   111.47647279   307.73932677

---------------------------
INTERNAL COORDINATES (A.U.)
---------------------------
 N      0   0   0     0.000000000000     0.00000000     0.00000000
 C      1   0   0     2.570353693049     0.00000000     0.00000000
 N      2   1   0     2.570486299482   102.26279104     0.00000000
 C      3   2   1     2.626937668781   112.91066448   359.87152952
 C      4   3   2     2.558350644997   105.95580731     0.09612736
 C      1   2   3     2.709426082750   123.21003256   178.81453248
 C      3   2   1     2.708772278056   123.28151803   180.67104524
 C      6   1   2     2.649023418781   118.48689301   266.99324795
 C      6   1   2     2.650712611200   118.85403540    86.74673163
 C      7   3   2     2.648644967472   118.70573852   271.96648462
 C      7   3   2     2.650481554771   118.64365768    91.81624731
 H      4   3   2     2.057273946549   122.63512702   179.91028128
 H      5   4   3     2.057352569125   131.44407509   179.94709937
 C      9   6   1     2.642187354572   117.77667965   180.20165139
 C     14   9   6     2.633901394998   120.71462094   359.82202896
 C     15  14   9     2.631614189231   120.35047351     0.23432352
 C     10   7   3     2.644072303705   117.77982714   180.01549156
 C     17  10   7     2.631699819604   120.73852820   359.96414232
 C     18  17  10     2.633959889257   120.32233851   359.89062956
 C      8   6   1     2.844974853596   120.74779577     0.87723387
 C      9   6   1     2.844372558516   120.61378611   359.57587184
 H     14   9   6     2.067536010414   119.16189110   180.00216437
 H     15  14   9     2.066824280919   119.81151263   180.17462389
 H     16  15  14     2.067711327025   120.16784756   179.92570665
 C     10   7   3     2.844775605790   120.84481780     0.65370516
 H     19  18  17     2.067593269549   120.11541762   180.21628748
 C     11   7   3     2.845522700920   120.71720085   358.80795286
 H     17  10   7     2.067765074270   119.13475603   179.73764290
 H     18  17  10     2.066834373627   119.84646658   179.91222066
 H     21   9   6     2.076011206636   110.90239197   178.61967194
 H     21   9   6     2.081340957858   111.36105833    57.76886012
 H     21   9   6     2.081911496455   110.82416503   299.09947069
 H     20   8   6     2.082477338393   110.88693626    60.88205518
 H     20   8   6     2.081181350769   111.51859940   302.08422698
 H     20   8   6     2.076019634914   110.83626603   181.28264735
 H     27  11   7     2.075985753751   110.80724095   177.59306894
 H     27  11   7     2.081154973490   111.64191407    56.72798035
 H     27  11   7     2.082367576687   110.72823518   297.90591784
 H     25  10   7     2.076106607558   110.81019752   186.76522853
 H     25  10   7     2.082482798807   110.86944451    66.50713380
 H     25  10   7     2.080838662815   111.47647279   307.73932677

---------------------
BASIS SET INFORMATION
---------------------
There are 3 groups of distinct atoms

 Group   1 Type N   : 7s4p1d contracted to 3s2p1d pattern {511/31/1}
 Group   2 Type C   : 7s4p1d contracted to 3s2p1d pattern {511/31/1}
 Group   3 Type H   : 4s1p contracted to 2s1p pattern {31/1}

Atom   0N    basis set group =>   1
Atom   1C    basis set group =>   2
Atom   2N    basis set group =>   1
Atom   3C    basis set group =>   2
Atom   4C    basis set group =>   2
Atom   5C    basis set group =>   2
Atom   6C    basis set group =>   2
Atom   7C    basis set group =>   2
Atom   8C    basis set group =>   2
Atom   9C    basis set group =>   2
Atom  10C    basis set group =>   2
Atom  11H    basis set group =>   3
Atom  12H    basis set group =>   3
Atom  13C    basis set group =>   2
Atom  14C    basis set group =>   2
Atom  15C    basis set group =>   2
Atom  16C    basis set group =>   2
Atom  17C    basis set group =>   2
Atom  18C    basis set group =>   2
Atom  19C    basis set group =>   2
Atom  20C    basis set group =>   2
Atom  21H    basis set group =>   3
Atom  22H    basis set group =>   3
Atom  23H    basis set group =>   3
Atom  24C    basis set group =>   2
Atom  25H    basis set group =>   3
Atom  26C    basis set group =>   2
Atom  27H    basis set group =>   3
Atom  28H    basis set group =>   3
Atom  29H    basis set group =>   3
Atom  30H    basis set group =>   3
Atom  31H    basis set group =>   3
Atom  32H    basis set group =>   3
Atom  33H    basis set group =>   3
Atom  34H    basis set group =>   3
Atom  35H    basis set group =>   3
Atom  36H    basis set group =>   3
Atom  37H    basis set group =>   3
Atom  38H    basis set group =>   3
Atom  39H    basis set group =>   3
Atom  40H    basis set group =>   3
---------------------------------
AUXILIARY/J BASIS SET INFORMATION
---------------------------------
There are 3 groups of distinct atoms

 Group   1 Type N   : 12s5p4d2f1g contracted to 6s4p3d1f1g pattern {711111/2111/211/2/1}
 Group   2 Type C   : 12s5p4d2f1g contracted to 6s4p3d1f1g pattern {711111/2111/211/2/1}
 Group   3 Type H   : 5s2p1d contracted to 3s1p1d pattern {311/2/1}

Atom   0N    basis set group =>   1
Atom   1C    basis set group =>   2
Atom   2N    basis set group =>   1
Atom   3C    basis set group =>   2
Atom   4C    basis set group =>   2
Atom   5C    basis set group =>   2
Atom   6C    basis set group =>   2
Atom   7C    basis set group =>   2
Atom   8C    basis set group =>   2
Atom   9C    basis set group =>   2
Atom  10C    basis set group =>   2
Atom  11H    basis set group =>   3
Atom  12H    basis set group =>   3
Atom  13C    basis set group =>   2
Atom  14C    basis set group =>   2
Atom  15C    basis set group =>   2
Atom  16C    basis set group =>   2
Atom  17C    basis set group =>   2
Atom  18C    basis set group =>   2
Atom  19C    basis set group =>   2
Atom  20C    basis set group =>   2
Atom  21H    basis set group =>   3
Atom  22H    basis set group =>   3
Atom  23H    basis set group =>   3
Atom  24C    basis set group =>   2
Atom  25H    basis set group =>   3
Atom  26C    basis set group =>   2
Atom  27H    basis set group =>   3
Atom  28H    basis set group =>   3
Atom  29H    basis set group =>   3
Atom  30H    basis set group =>   3
Atom  31H    basis set group =>   3
Atom  32H    basis set group =>   3
Atom  33H    basis set group =>   3
Atom  34H    basis set group =>   3
Atom  35H    basis set group =>   3
Atom  36H    basis set group =>   3
Atom  37H    basis set group =>   3
Atom  38H    basis set group =>   3
Atom  39H    basis set group =>   3
Atom  40H    basis set group =>   3
------------------------------------------------------------------------------
                           ORCA GTO INTEGRAL CALCULATION
                           -- RI-GTO INTEGRALS CHOSEN --
------------------------------------------------------------------------------
------------------------------------------------------------------------------
                   ___                                                        
                  /   \      - P O W E R E D   B Y -                         
                 /     \                                                     
                 |  |  |   _    _      __       _____    __    __             
                 |  |  |  | |  | |    /  \     |  _  \  |  |  /  |          
                  \  \/   | |  | |   /    \    | | | |  |  | /  /          
                 / \  \   | |__| |  /  /\  \   | |_| |  |  |/  /          
                |  |  |   |  __  | /  /__\  \  |    /   |      \           
                |  |  |   | |  | | |   __   |  |    \   |  |\   \          
                \     /   | |  | | |  |  |  |  | |\  \  |  | \   \       
                 \___/    |_|  |_| |__|  |__|  |_| \__\ |__|  \__/        
                                                                              
                      - O R C A' S   B I G   F R I E N D -                    
                                      &                                       
                       - I N T E G R A L  F E E D E R -                       
                                                                              
 v1 FN, 2020, v2 2021                                                         
------------------------------------------------------------------------------


Reading SHARK input file 8_deprot_aq_5.SHARKINP.tmp ... ok
----------------------
SHARK INTEGRAL PACKAGE
----------------------

Number of atoms                             ...     41
Number of basis functions                   ...    394
Number of shells                            ...    186
Maximum angular momentum                    ...      2
Integral batch strategy                     ... SHARK/LIBINT Hybrid
RI-J (if used) integral strategy            ... SPLIT-RIJ (Revised 2003 algorithm where possible)
Printlevel                                  ...      1
Contraction scheme used                     ... SEGMENTED contraction
Coulomb Range Separation                    ... NOT USED
Exchange Range Separation                   ... Long Range
   Mu parameter                             ...  0.300000
   Scaling (regular/separated)              ...  0.157706  0.842294
Finite Nucleus Model                        ... NOT USED
Auxiliary Coulomb fitting basis             ... AVAILABLE
   # of basis functions in Aux-J            ...   1249
   # of shells in Aux-J                     ...    415
   Maximum angular momentum in Aux-J        ...      4
Auxiliary J/K fitting basis                 ... NOT available
Auxiliary Correlation fitting basis         ... NOT available
Auxiliary 'external' fitting basis          ... NOT available
Integral threshold                          ...     2.500000e-11
Primitive cut-off                           ...     2.500000e-12
Primitive pair pre-selection threshold      ...     2.500000e-12

Calculating pre-screening integrals         ... done (  0.1 sec) Dimension = 186
Organizing shell pair data                  ... done (  0.1 sec)
Shell pair information
Total number of shell pairs                 ...     17391
Shell pairs after pre-screening             ...     13202
Total number of primitive shell pairs       ...     62461
Primitive shell pairs kept                  ...     30395
          la=0 lb=0:   4167 shell pairs
          la=1 lb=0:   4932 shell pairs
          la=1 lb=1:   1496 shell pairs
          la=2 lb=0:   1540 shell pairs
          la=2 lb=1:    915 shell pairs
          la=2 lb=2:    152 shell pairs

Calculating one electron integrals          ... done (  0.1 sec)
Calculating RI/J V-Matrix + Cholesky decomp.... done (  0.1 sec)
Calculating Nuclear repulsion               ... done (  0.0 sec) ENN=   1592.330045146612 Eh

SHARK setup successfully completed in   0.7 seconds

Maximum memory used throughout the entire GTOINT-calculation: 79.7 MB
-------------------------------------------------------------------------------
                                 ORCA SCF
-------------------------------------------------------------------------------

------------
SCF SETTINGS
------------
Hamiltonian:
 Density Functional     Method          .... DFT(GTOs)
 Exchange Functional    Exchange        .... WB97X
 Correlation Functional Correlation     .... WB97X
 Gradients option       PostSCFGGA      .... off
 Hybrid DFT is turned on
   Fraction HF Exchange ScalHFX         ....  0.157706
   Scaling of DF-GGA-X  ScalDFX         ....  0.000000
   Scaling of DF-GGA-C  ScalDFC         ....  1.000000
   Scaling of DF-LDA-C  ScalLDAC        ....  1.000000
   Perturbative correction              ....  0.000000
   Density functional embedding theory  .... OFF
 Long-range corrected/Screened/Range-Separated Hybrid DFT is turned on
   Amount of maximum screened exact exchange              ....  0.842294
   Range separation parameter mu (erf(mu*r12)/r12)        ....  0.300000
 RI-approximation to the Coulomb term is turned on
   Number of AuxJ basis functions       .... 1249
   RIJ-COSX (HFX calculated with COS-X)).... on


General Settings:
 Integral files         IntName         .... 8_deprot_aq_5
 Hartree-Fock type      HFTyp           .... RHF
 Total Charge           Charge          ....    0
 Multiplicity           Mult            ....    1
 Number of Electrons    NEL             ....  148
 Basis Dimension        Dim             ....  394
 Nuclear Repulsion      ENuc            ....   1592.3300451466 Eh

Convergence Acceleration:
 DIIS                   CNVDIIS         .... on
   Start iteration      DIISMaxIt       ....     0
   Startup error        DIISStart       ....  0.200000
   # of expansion vecs  DIISMaxEq       ....     5
   Bias factor          DIISBfac        ....   1.050
   Max. coefficient     DIISMaxC        ....  10.000
 Trust-Rad. Augm. Hess. CNVTRAH         .... auto
   Auto Start mean grad. ratio tolernc. ....  1.125000
   Auto Start start iteration           ....    20
   Auto Start num. interpolation iter.  ....    10
   Max. Number of Micro iterations      ....    16
   Max. Number of Macro iterations      .... Maxiter - #DIIS iter
   Number of Davidson start vectors     ....     2
   Converg. threshold I  (grad. norm)   ....   1.000e-05
   Converg. threshold II (energy diff.) ....   1.000e-08
   Grad. Scal. Fac. for Micro threshold ....   0.100
   Minimum threshold for Micro iter.    ....   0.010
   NR start threshold (gradient norm)   ....   0.001
   Initial trust radius                 ....   0.400
   Minimum AH scaling param. (alpha)    ....   1.000
   Maximum AH scaling param. (alpha)    .... 1000.000
   Orbital update algorithm             .... Taylor
   White noise on init. David. guess    .... on
   Maximum white noise                  ....   0.010
   Quad. conv. algorithm                .... NR
 SOSCF                  CNVSOSCF        .... on
   Start iteration      SOSCFMaxIt      ....   150
   Startup grad/error   SOSCFStart      ....  0.001000
 Level Shifting         CNVShift        .... on
   Level shift para.    LevelShift      ....    0.2500
   Turn off err/grad.   ShiftErr        ....    0.0000
 Zerner damping         CNVZerner       .... off
 Static damping         CNVDamp         .... on
   Fraction old density DampFac         ....    0.8500
   Max. Damping (<1)    DampMax         ....    0.9800
   Min. Damping (>=0)   DampMin         ....    0.0000
   Turn off err/grad.   DampErr         ....    0.0300
 Fernandez-Rico         CNVRico         .... off

SCF Procedure:
 Maximum # iterations   MaxIter         ....   125
 SCF integral mode      SCFMode         .... Direct
   Integral package                     .... SHARK and LIBINT hybrid scheme
 Reset frequency        DirectResetFreq ....    20
 Integral Threshold     Thresh          ....  2.500e-11 Eh
 Primitive CutOff       TCut            ....  2.500e-12 Eh

Convergence Tolerance:
 Convergence Check Mode ConvCheckMode   .... Total+1el-Energy
 Convergence forced     ConvForced      .... 0
 Energy Change          TolE            ....  1.000e-08 Eh
 1-El. energy change                    ....  1.000e-05 Eh
 Orbital Gradient       TolG            ....  1.000e-05
 Orbital Rotation angle TolX            ....  1.000e-05
 DIIS Error             TolErr          ....  5.000e-07


Diagonalization of the overlap matrix:
Smallest eigenvalue                        ... 2.046e-04
Time for diagonalization                   ...    0.029 sec
Threshold for overlap eigenvalues          ... 1.000e-08
Number of eigenvalues below threshold      ... 0
Time for construction of square roots      ...    0.034 sec
Total time needed                          ...    0.064 sec

Time for model grid setup =    1.218 sec

------------------------------
INITIAL GUESS: MODEL POTENTIAL
------------------------------
Loading Hartree-Fock densities                     ... done
Calculating cut-offs                               ... done
Initializing the effective Hamiltonian             ... done
Setting up the integral package (SHARK)            ... done
Starting the Coulomb interaction                   ... done (   1.7 sec)
Reading the grid                                   ... done
Mapping shells                                     ... done
Starting the XC term evaluation                    ... done (   1.2 sec)
  promolecular density results
     # of electrons  =    148.003296063
     EX              =   -116.172393127
     EC              =     -4.929708979
     EX+EC           =   -121.102102105
Transforming the Hamiltonian                       ... done (   0.0 sec)
Diagonalizing the Hamiltonian                      ... done (   0.0 sec)
Back transforming the eigenvectors                 ... done (   0.0 sec)
Now organizing SCF variables                       ... done
                      ------------------
                      INITIAL GUESS DONE (   4.1 sec)
                      ------------------
-------------------
DFT GRID GENERATION
-------------------

General Integration Accuracy     IntAcc      ... 4.388
Radial Grid Type                 RadialGrid  ... OptM3 with GC (2021)
Angular Grid (max. ang.)         AngularGrid ... 4 (Lebedev-302)
Angular grid pruning method      GridPruning ... 4 (adaptive)
Weight generation scheme         WeightScheme... Becke
Basis function cutoff            BFCut       ... 1.0000e-11
Integration weight cutoff        WCut        ... 1.0000e-14
Angular grids for H and He will be reduced by one unit
Partially contracted basis set               ... off
Rotationally invariant grid construction     ... off

Total number of grid points                  ...   188726
Total number of batches                      ...     2971
Average number of points per batch           ...       63
Average number of grid points per atom       ...     4603
Time for grid setup =    4.094 sec

--------------------
COSX GRID GENERATION
--------------------

GRIDX 1
-------
General Integration Accuracy     IntAcc      ... 3.816
Radial Grid Type                 RadialGrid  ... OptM3 with GC (2021)
Angular Grid (max. ang.)         AngularGrid ... 1 (Lebedev-50)
Angular grid pruning method      GridPruning ... 4 (adaptive)
Weight generation scheme         WeightScheme... Becke
Basis function cutoff            BFCut       ... 1.0000e-11
Integration weight cutoff        WCut        ... 1.0000e-14
Angular grids for H and He will be reduced by one unit
Partially contracted basis set               ... on
Rotationally invariant grid construction     ... off

Total number of grid points                  ...    24034
Total number of batches                      ...      392
Average number of points per batch           ...       61
Average number of grid points per atom       ...      586
UseSFitting                                  ... on

GRIDX 2
-------
General Integration Accuracy     IntAcc      ... 4.020
Radial Grid Type                 RadialGrid  ... OptM3 with GC (2021)
Angular Grid (max. ang.)         AngularGrid ... 2 (Lebedev-110)
Angular grid pruning method      GridPruning ... 4 (adaptive)
Weight generation scheme         WeightScheme... Becke
Basis function cutoff            BFCut       ... 1.0000e-11
Integration weight cutoff        WCut        ... 1.0000e-14
Angular grids for H and He will be reduced by one unit
Partially contracted basis set               ... on
Rotationally invariant grid construction     ... off

Total number of grid points                  ...    51427
Total number of batches                      ...      823
Average number of points per batch           ...       62
Average number of grid points per atom       ...     1254
UseSFitting                                  ... on

GRIDX 3
-------
General Integration Accuracy     IntAcc      ... 4.338
Radial Grid Type                 RadialGrid  ... OptM3 with GC (2021)
Angular Grid (max. ang.)         AngularGrid ... 3 (Lebedev-194)
Angular grid pruning method      GridPruning ... 4 (adaptive)
Weight generation scheme         WeightScheme... Becke
Basis function cutoff            BFCut       ... 1.0000e-11
Integration weight cutoff        WCut        ... 1.0000e-14
Angular grids for H and He will be reduced by one unit
Partially contracted basis set               ... on
Rotationally invariant grid construction     ... off

Total number of grid points                  ...   112088
Total number of batches                      ...     1772
Average number of points per batch           ...       63
Average number of grid points per atom       ...     2734
UseSFitting                                  ... on

Time for X-Grid setup             =    5.520 sec


--------------------
CPCM SOLVATION MODEL
--------------------
CPCM parameters:
  Epsilon                                         ...      80.4000
  Refrac                                          ...       1.3300
  Rsolv                                           ...       1.3000
  Surface type                                    ... GAUSSIAN VDW
  Epsilon function type                           ...         CPCM
Radii:
 Radius for N  used is    3.5149 Bohr (=   1.8600 Ang.)
 Radius for C  used is    3.8550 Bohr (=   2.0400 Ang.)
 Radius for H  used is    2.4944 Bohr (=   1.3200 Ang.)
Calculating surface                               ...        done! (  0.0s)
GEPOL surface points                              ...         2162
GEPOL Volume                                      ...    2399.6744
GEPOL Surface-area                                ...    1216.2894
Calculating surface distance matrix               ...        done! (  0.0s)
Performing Cholesky decomposition & store         ...        done! (  0.2s)
Overall time for CPCM initialization              ...                 0.3s
--------------
SCF ITERATIONS
--------------
ITER       Energy         Delta-E        Max-DP      RMS-DP      [F,P]     Damp
               ***  Starting incremental Fock matrix formation  ***
  0   -844.3661987817   0.000000000000 0.03129950  0.00064366  0.1476898 0.8500
  1   -844.4401329983  -0.073934216618 0.02820483  0.00059511  0.1198342 0.8500
                               ***Turning on DIIS***
  2   -844.4976552258  -0.057522227560 0.02342487  0.00049200  0.0928908 0.8500
  3   -844.5412321356  -0.043576909808 0.01904607  0.00037418  0.0711809 0.8500
  4   -844.5752472958  -0.034015160166 0.01558213  0.00029889  0.0569837 0.8500
  5   -844.6022518776  -0.027004581834 0.01293335  0.00024921  0.0472429 0.8500
  6   -844.6242636665  -0.022011788839 0.01084074  0.00021127  0.0397886 0.8500
  7   -844.6424907500  -0.018227083566 0.00914663  0.00018121  0.0337198 0.8500
  8   -844.6577291466  -0.015238396536 0.05189336  0.00103578  0.0285303 0.0000
  9   -844.7397803469  -0.082051200300 0.00136159  0.00002826  0.0011075 0.0000
                      *** Initiating the SOSCF procedure ***
                           *** Shutting down DIIS ***
                      *** Re-Reading the Fockian *** 
                      *** Removing any level shift *** 
ITER      Energy       Delta-E        Grad      Rot      Max-DP    RMS-DP
 10   -844.73981195  -0.0000316058  0.000422  0.000422  0.000565  0.000014
               *** Restarting incremental Fock matrix formation ***
 11   -844.73976315   0.0000488057  0.000224  0.000509  0.000492  0.000014
 12   -844.73976512  -0.0000019718  0.000142  0.000576  0.000338  0.000010
 13   -844.73976561  -0.0000004896  0.000046  0.000100  0.000146  0.000004
 14   -844.73976571  -0.0000001002  0.000006  0.000015  0.000027  0.000001
 15   -844.73976572  -0.0000000078  0.000005  0.000015  0.000014  0.000000
                  ***Gradient check signals convergence***
              ***Rediagonalizing the Fockian in SOSCF/NRSCF***

               *****************************************************
               *                     SUCCESS                       *
               *           SCF CONVERGED AFTER  16 CYCLES          *
               *****************************************************

Old exchange energy                            =    -38.151864816 Eh
New exchange energy                            =    -38.151911855 Eh
Exchange energy change after final integration =     -0.000047038 Eh
Total energy after final integration           =   -844.739812798 Eh
Final COS-X integration done in                =   174.858 sec

----------------
TOTAL SCF ENERGY
----------------

Total Energy       :         -844.73981280 Eh          -22986.53892 eV

Components:
Nuclear Repulsion  :         1592.33004515 Eh           43329.50336 eV
Electronic Energy  :        -2437.06985794 Eh          -66316.04228 eV
One Electron Energy:        -4304.36093934 Eh         -117127.61581 eV
Two Electron Energy:         1867.29108139 Eh           50811.57354 eV
Max COSX asymmetry :            0.00000216 Eh               0.00006 eV
CPCM Dielectric    :           -0.02063179 Eh              -0.56142 eV

Virial components:
Potential Energy   :        -1679.51470856 Eh          -45701.91866 eV
Kinetic Energy     :          834.77489577 Eh           22715.37974 eV
Virial Ratio       :            2.01193725


DFT components:
N(Alpha)           :       74.000096918692 electrons
N(Beta)            :       74.000096918692 electrons
N(Total)           :      148.000193837385 electrons
E(XC)              :      -85.855533799549 Eh       
DFET-embed. en.    :        0.000000000000 Eh       
CPCM Solvation Model Properties:
Surface-charge          :           -0.03000777
Charge-correction       :           -0.00037363 Eh              -0.01017 eV
Free-energy (cav+disp)  :  This term is not implemented in the current solvation scheme

---------------
SCF CONVERGENCE
---------------

  Last Energy change         ...   -4.3127e-08  Tolerance :   1.0000e-08
  Last MAX-Density change    ...    3.9968e-15  Tolerance :   1.0000e-07
  Last RMS-Density change    ...    3.8355e-17  Tolerance :   5.0000e-09
  Last Orbital Gradient      ...    9.6100e-07  Tolerance :   1.0000e-05
  Last Orbital Rotation      ...    2.6526e-06  Tolerance :   1.0000e-05

             **** THE GBW FILE WAS UPDATED (8_deprot_aq_5.gbw) ****
             **** DENSITY 8_deprot_aq_5.scfp WAS UPDATED ****
             **** ENERGY FILE WAS UPDATED (8_deprot_aq_5.en.tmp) ****
             **** THE GBW FILE WAS UPDATED (8_deprot_aq_5.gbw) ****
             **** DENSITY 8_deprot_aq_5.scfp WAS UPDATED ****
----------------
ORBITAL ENERGIES
----------------

  NO   OCC          E(Eh)            E(eV) 
   0   2.0000     -14.459064      -393.4511 
   1   2.0000     -14.459050      -393.4508 
   2   2.0000     -10.310731      -280.5692 
   3   2.0000     -10.310676      -280.5678 
   4   2.0000     -10.303625      -280.3759 
   5   2.0000     -10.303026      -280.3596 
   6   2.0000     -10.289029      -279.9787 
   7   2.0000     -10.288953      -279.9766 
   8   2.0000     -10.288939      -279.9763 
   9   2.0000     -10.288935      -279.9762 
  10   2.0000     -10.288924      -279.9759 
  11   2.0000     -10.278143      -279.6825 
  12   2.0000     -10.278119      -279.6818 
  13   2.0000     -10.274068      -279.5716 
  14   2.0000     -10.274037      -279.5708 
  15   2.0000     -10.274007      -279.5699 
  16   2.0000     -10.273978      -279.5692 
  17   2.0000     -10.269329      -279.4427 
  18   2.0000     -10.269298      -279.4418 
  19   2.0000     -10.269105      -279.4365 
  20   2.0000     -10.268832      -279.4291 
  21   2.0000      -1.159908       -31.5627 
  22   2.0000      -1.060102       -28.8468 
  23   2.0000      -0.997891       -27.1540 
  24   2.0000      -0.976783       -26.5796 
  25   2.0000      -0.913170       -24.8486 
  26   2.0000      -0.912786       -24.8382 
  27   2.0000      -0.906991       -24.6805 
  28   2.0000      -0.873206       -23.7611 
  29   2.0000      -0.869795       -23.6683 
  30   2.0000      -0.829171       -22.5629 
  31   2.0000      -0.811110       -22.0714 
  32   2.0000      -0.801513       -21.8103 
  33   2.0000      -0.800579       -21.7849 
  34   2.0000      -0.761605       -20.7243 
  35   2.0000      -0.736927       -20.0528 
  36   2.0000      -0.698507       -19.0073 
  37   2.0000      -0.697247       -18.9731 
  38   2.0000      -0.695755       -18.9325 
  39   2.0000      -0.678798       -18.4710 
  40   2.0000      -0.650262       -17.6945 
  41   2.0000      -0.617840       -16.8123 
  42   2.0000      -0.612125       -16.6568 
  43   2.0000      -0.598424       -16.2839 
  44   2.0000      -0.591754       -16.1025 
  45   2.0000      -0.562472       -15.3056 
  46   2.0000      -0.554675       -15.0935 
  47   2.0000      -0.551206       -14.9991 
  48   2.0000      -0.536801       -14.6071 
  49   2.0000      -0.535152       -14.5622 
  50   2.0000      -0.529305       -14.4031 
  51   2.0000      -0.525120       -14.2893 
  52   2.0000      -0.524189       -14.2639 
  53   2.0000      -0.521590       -14.1932 
  54   2.0000      -0.518274       -14.1030 
  55   2.0000      -0.513998       -13.9866 
  56   2.0000      -0.513855       -13.9827 
  57   2.0000      -0.509322       -13.8594 
  58   2.0000      -0.506775       -13.7900 
  59   2.0000      -0.478787       -13.0285 
  60   2.0000      -0.476662       -12.9706 
  61   2.0000      -0.462131       -12.5752 
  62   2.0000      -0.459311       -12.4985 
  63   2.0000      -0.456247       -12.4151 
  64   2.0000      -0.451657       -12.2902 
  65   2.0000      -0.445720       -12.1287 
  66   2.0000      -0.445195       -12.1144 
  67   2.0000      -0.390332       -10.6215 
  68   2.0000      -0.349168        -9.5014 
  69   2.0000      -0.343448        -9.3457 
  70   2.0000      -0.339260        -9.2317 
  71   2.0000      -0.337291        -9.1782 
  72   2.0000      -0.333264        -9.0686 
  73   2.0000      -0.332970        -9.0606 
  74   0.0000       0.061083         1.6621 
  75   0.0000       0.067535         1.8377 
  76   0.0000       0.071860         1.9554 
  77   0.0000       0.073658         2.0043 
  78   0.0000       0.106330         2.8934 
  79   0.0000       0.114833         3.1248 
  80   0.0000       0.141926         3.8620 
  81   0.0000       0.164825         4.4851 
  82   0.0000       0.167051         4.5457 
  83   0.0000       0.172864         4.7039 
  84   0.0000       0.187144         5.0924 
  85   0.0000       0.190252         5.1770 
  86   0.0000       0.194399         5.2899 
  87   0.0000       0.202515         5.5107 
  88   0.0000       0.204262         5.5583 
  89   0.0000       0.215798         5.8722 
  90   0.0000       0.223541         6.0828 
  91   0.0000       0.225946         6.1483 
  92   0.0000       0.236722         6.4415 
  93   0.0000       0.239752         6.5240 
  94   0.0000       0.247551         6.7362 
  95   0.0000       0.249016         6.7761 
  96   0.0000       0.252430         6.8690 
  97   0.0000       0.259524         7.0620 
  98   0.0000       0.260683         7.0936 
  99   0.0000       0.263795         7.1782 
 100   0.0000       0.285346         7.7647 
 101   0.0000       0.288686         7.8556 
 102   0.0000       0.300050         8.1648 
 103   0.0000       0.301517         8.2047 
 104   0.0000       0.314923         8.5695 
 105   0.0000       0.321311         8.7433 
 106   0.0000       0.331875         9.0308 
 107   0.0000       0.338723         9.2171 
 108   0.0000       0.356588         9.7032 
 109   0.0000       0.362187         9.8556 
 110   0.0000       0.364908         9.9296 
 111   0.0000       0.394475        10.7342 
 112   0.0000       0.398431        10.8419 
 113   0.0000       0.405180        11.0255 
 114   0.0000       0.407573        11.0906 
 115   0.0000       0.427496        11.6328 
 116   0.0000       0.428754        11.6670 
 117   0.0000       0.431055        11.7296 
 118   0.0000       0.439065        11.9476 
 119   0.0000       0.443642        12.0721 
 120   0.0000       0.444841        12.1047 
 121   0.0000       0.461558        12.5596 
 122   0.0000       0.465099        12.6560 
 123   0.0000       0.492495        13.4015 
 124   0.0000       0.499983        13.6052 
 125   0.0000       0.501886        13.6570 
 126   0.0000       0.502754        13.6806 
 127   0.0000       0.509271        13.8580 
 128   0.0000       0.523244        14.2382 
 129   0.0000       0.525359        14.2957 
 130   0.0000       0.528084        14.3699 
 131   0.0000       0.537429        14.6242 
 132   0.0000       0.539651        14.6846 
 133   0.0000       0.547505        14.8984 
 134   0.0000       0.549289        14.9469 
 135   0.0000       0.551235        14.9999 
 136   0.0000       0.565301        15.3826 
 137   0.0000       0.579896        15.7798 
 138   0.0000       0.585394        15.9294 
 139   0.0000       0.586886        15.9700 
 140   0.0000       0.591486        16.0951 
 141   0.0000       0.596025        16.2187 
 142   0.0000       0.597595        16.2614 
 143   0.0000       0.602972        16.4077 
 144   0.0000       0.607779        16.5385 
 145   0.0000       0.644870        17.5478 
 146   0.0000       0.646120        17.5818 
 147   0.0000       0.659765        17.9531 
 148   0.0000       0.666280        18.1304 
 149   0.0000       0.676172        18.3996 
 150   0.0000       0.680232        18.5101 
 151   0.0000       0.685125        18.6432 
 152   0.0000       0.691750        18.8235 
 153   0.0000       0.703979        19.1562 
 154   0.0000       0.707902        19.2630 
 155   0.0000       0.709304        19.3011 
 156   0.0000       0.716014        19.4837 
 157   0.0000       0.723504        19.6875 
 158   0.0000       0.726329        19.7644 
 159   0.0000       0.736073        20.0296 
 160   0.0000       0.748821        20.3764 
 161   0.0000       0.749552        20.3963 
 162   0.0000       0.751532        20.4502 
 163   0.0000       0.752642        20.4804 
 164   0.0000       0.761744        20.7281 
 165   0.0000       0.763500        20.7759 
 166   0.0000       0.766356        20.8536 
 167   0.0000       0.768775        20.9194 
 168   0.0000       0.777801        21.1650 
 169   0.0000       0.785095        21.3635 
 170   0.0000       0.786501        21.4018 
 171   0.0000       0.787832        21.4380 
 172   0.0000       0.792266        21.5586 
 173   0.0000       0.794684        21.6245 
 174   0.0000       0.796412        21.6715 
 175   0.0000       0.797501        21.7011 
 176   0.0000       0.798174        21.7194 
 177   0.0000       0.802341        21.8328 
 178   0.0000       0.809746        22.0343 
 179   0.0000       0.820150        22.3174 
 180   0.0000       0.825154        22.4536 
 181   0.0000       0.827322        22.5126 
 182   0.0000       0.835708        22.7408 
 183   0.0000       0.850575        23.1453 
 184   0.0000       0.854346        23.2479 
 185   0.0000       0.861804        23.4509 
 186   0.0000       0.866223        23.5711 
 187   0.0000       0.869948        23.6725 
 188   0.0000       0.876697        23.8561 
 189   0.0000       0.880016        23.9465 
 190   0.0000       0.881027        23.9740 
 191   0.0000       0.896512        24.3953 
 192   0.0000       0.899727        24.4828 
 193   0.0000       0.903929        24.5972 
 194   0.0000       0.915914        24.9233 
 195   0.0000       0.918376        24.9903 
 196   0.0000       0.927642        25.2424 
 197   0.0000       0.938577        25.5400 
 198   0.0000       0.942985        25.6599 
 199   0.0000       0.947772        25.7902 
 200   0.0000       0.949968        25.8499 
 201   0.0000       0.964769        26.2527 
 202   0.0000       0.985784        26.8245 
 203   0.0000       1.023634        27.8545 
 204   0.0000       1.025888        27.9158 
 205   0.0000       1.033673        28.1277 
 206   0.0000       1.039842        28.2955 
 207   0.0000       1.066860        29.0307 
 208   0.0000       1.088723        29.6257 
 209   0.0000       1.133340        30.8397 
 210   0.0000       1.145544        31.1718 
 211   0.0000       1.160217        31.5711 
 212   0.0000       1.215214        33.0676 
 213   0.0000       1.244147        33.8550 
 214   0.0000       1.255089        34.1527 
 215   0.0000       1.258110        34.2349 
 216   0.0000       1.270341        34.5677 
 217   0.0000       1.271607        34.6022 
 218   0.0000       1.272665        34.6310 
 219   0.0000       1.276061        34.7234 
 220   0.0000       1.284894        34.9637 
 221   0.0000       1.313521        35.7427 
 222   0.0000       1.316422        35.8217 
 223   0.0000       1.338114        36.4119 
 224   0.0000       1.342248        36.5244 
 225   0.0000       1.344200        36.5775 
 226   0.0000       1.346477        36.6395 
 227   0.0000       1.354509        36.8581 
 228   0.0000       1.357654        36.9436 
 229   0.0000       1.365106        37.1464 
 230   0.0000       1.367982        37.2247 
 231   0.0000       1.396059        37.9887 
 232   0.0000       1.397424        38.0259 
 233   0.0000       1.446035        39.3486 
 234   0.0000       1.460714        39.7480 
 235   0.0000       1.466067        39.8937 
 236   0.0000       1.492277        40.6069 
 237   0.0000       1.534527        41.7566 
 238   0.0000       1.567737        42.6603 
 239   0.0000       1.600516        43.5523 
 240   0.0000       1.604269        43.6544 
 241   0.0000       1.616521        43.9878 
 242   0.0000       1.631231        44.3881 
 243   0.0000       1.636342        44.5271 
 244   0.0000       1.641827        44.6764 
 245   0.0000       1.644670        44.7538 
 246   0.0000       1.652485        44.9664 
 247   0.0000       1.658415        45.1278 
 248   0.0000       1.661050        45.1995 
 249   0.0000       1.663586        45.2685 
 250   0.0000       1.673727        45.5444 
 251   0.0000       1.681140        45.7461 
 252   0.0000       1.699181        46.2371 
 253   0.0000       1.721643        46.8483 
 254   0.0000       1.736723        47.2586 
 255   0.0000       1.763567        47.9891 
 256   0.0000       1.765306        48.0364 
 257   0.0000       1.769146        48.1409 
 258   0.0000       1.800279        48.9881 
 259   0.0000       1.810569        49.2681 
 260   0.0000       1.812683        49.3256 
 261   0.0000       1.814682        49.3800 
 262   0.0000       1.815455        49.4011 
 263   0.0000       1.817284        49.4508 
 264   0.0000       1.821822        49.5743 
 265   0.0000       1.846485        50.2454 
 266   0.0000       1.847674        50.2778 
 267   0.0000       1.863382        50.7052 
 268   0.0000       1.863948        50.7206 
 269   0.0000       1.868950        50.8567 
 270   0.0000       1.875045        51.0226 
 271   0.0000       1.890222        51.4356 
 272   0.0000       1.894027        51.5391 
 273   0.0000       1.899330        51.6834 
 274   0.0000       1.905155        51.8419 
 275   0.0000       1.908260        51.9264 
 276   0.0000       1.918844        52.2144 
 277   0.0000       1.919893        52.2430 
 278   0.0000       1.928446        52.4757 
 279   0.0000       1.929398        52.5016 
 280   0.0000       1.932556        52.5875 
 281   0.0000       1.936032        52.6821 
 282   0.0000       1.937730        52.7283 
 283   0.0000       1.961145        53.3655 
 284   0.0000       1.972161        53.6652 
 285   0.0000       1.986753        54.0623 
 286   0.0000       2.002664        54.4953 
 287   0.0000       2.008278        54.6480 
 288   0.0000       2.014789        54.8252 
 289   0.0000       2.021693        55.0131 
 290   0.0000       2.036139        55.4062 
 291   0.0000       2.037713        55.4490 
 292   0.0000       2.039414        55.4953 
 293   0.0000       2.044871        55.6438 
 294   0.0000       2.062516        56.1239 
 295   0.0000       2.064383        56.1747 
 296   0.0000       2.077358        56.5278 
 297   0.0000       2.086009        56.7632 
 298   0.0000       2.102285        57.2061 
 299   0.0000       2.108082        57.3638 
 300   0.0000       2.126854        57.8746 
 301   0.0000       2.137688        58.1694 
 302   0.0000       2.140232        58.2387 
 303   0.0000       2.158266        58.7294 
 304   0.0000       2.159835        58.7721 
 305   0.0000       2.164338        58.8946 
 306   0.0000       2.173277        59.1379 
 307   0.0000       2.180794        59.3424 
 308   0.0000       2.204763        59.9946 
 309   0.0000       2.211421        60.1758 
 310   0.0000       2.213091        60.2213 
 311   0.0000       2.215505        60.2869 
 312   0.0000       2.236028        60.8454 
 313   0.0000       2.239901        60.9508 
 314   0.0000       2.253835        61.3300 
 315   0.0000       2.258938        61.4688 
 316   0.0000       2.262242        61.5587 
 317   0.0000       2.317487        63.0620 
 318   0.0000       2.318994        63.1030 
 319   0.0000       2.339345        63.6568 
 320   0.0000       2.352886        64.0253 
 321   0.0000       2.356021        64.1106 
 322   0.0000       2.357636        64.1545 
 323   0.0000       2.372093        64.5479 
 324   0.0000       2.385931        64.9245 
 325   0.0000       2.392852        65.1128 
 326   0.0000       2.396425        65.2101 
 327   0.0000       2.400696        65.3263 
 328   0.0000       2.402996        65.3888 
 329   0.0000       2.412929        65.6591 
 330   0.0000       2.422573        65.9216 
 331   0.0000       2.442245        66.4569 
 332   0.0000       2.483647        67.5835 
 333   0.0000       2.519785        68.5668 
 334   0.0000       2.534227        68.9598 
 335   0.0000       2.537923        69.0604 
 336   0.0000       2.538485        69.0757 
 337   0.0000       2.541038        69.1452 
 338   0.0000       2.555759        69.5457 
 339   0.0000       2.556141        69.5561 
 340   0.0000       2.560807        69.6831 
 341   0.0000       2.570881        69.9572 
 342   0.0000       2.585608        70.3580 
 343   0.0000       2.607504        70.9538 
 344   0.0000       2.642883        71.9165 
 345   0.0000       2.650077        72.1123 
 346   0.0000       2.658471        72.3407 
 347   0.0000       2.664107        72.4940 
 348   0.0000       2.683640        73.0256 
 349   0.0000       2.692346        73.2624 
 350   0.0000       2.703822        73.5747 
 351   0.0000       2.707514        73.6752 
 352   0.0000       2.729442        74.2719 
 353   0.0000       2.736617        74.4671 
 354   0.0000       2.739008        74.5322 
 355   0.0000       2.765517        75.2536 
 356   0.0000       2.789762        75.9133 
 357   0.0000       2.796324        76.0918 
 358   0.0000       2.828949        76.9796 
 359   0.0000       2.839625        77.2701 
 360   0.0000       2.846580        77.4594 
 361   0.0000       2.861788        77.8732 
 362   0.0000       2.865189        77.9658 
 363   0.0000       2.865954        77.9866 
 364   0.0000       2.899656        78.9037 
 365   0.0000       2.943499        80.0967 
 366   0.0000       2.957387        80.4746 
 367   0.0000       2.966476        80.7219 
 368   0.0000       2.977022        81.0089 
 369   0.0000       3.003024        81.7164 
 370   0.0000       3.005736        81.7902 
 371   0.0000       3.042328        82.7859 
 372   0.0000       3.051275        83.0294 
 373   0.0000       3.056369        83.1680 
 374   0.0000       3.062416        83.3326 
 375   0.0000       3.066229        83.4363 
 376   0.0000       3.073997        83.6477 
 377   0.0000       3.079622        83.8008 
 378   0.0000       3.085369        83.9572 
 379   0.0000       3.086321        83.9831 
 380   0.0000       3.117207        84.8235 
 381   0.0000       3.140327        85.4526 
 382   0.0000       3.156649        85.8968 
 383   0.0000       3.174688        86.3876 
 384   0.0000       3.177359        86.4603 
 385   0.0000       3.195421        86.9518 
 386   0.0000       3.214422        87.4689 
 387   0.0000       3.373105        91.7869 
 388   0.0000       3.380136        91.9782 
 389   0.0000       3.399999        92.5187 
 390   0.0000       3.420389        93.0735 
 391   0.0000       3.609292        98.2138 
 392   0.0000       3.704164       100.7954 
 393   0.0000       3.719619       101.2160 

                    ********************************
                    * MULLIKEN POPULATION ANALYSIS *
                    ********************************

-----------------------
MULLIKEN ATOMIC CHARGES
-----------------------
   0 N :   -0.213994
   1 C :   -0.138431
   2 N :   -0.213996
   3 C :    0.046491
   4 C :    0.044507
   5 C :    0.046560
   6 C :    0.045736
   7 C :   -0.100244
   8 C :   -0.100031
   9 C :   -0.100042
  10 C :   -0.099289
  11 H :    0.070980
[...]
 10:     88.68   0.000009    0.04  0.000031  (-0.000928 -0.002425  0.004919)
 11:     96.17   0.000094    0.47  0.000304  ( 0.016825 -0.004528 -0.000269)
 12:    135.60   0.000982    4.96  0.002260  (-0.000750 -0.001230 -0.047513)
 13:    151.06   0.000147    0.74  0.000303  ( 0.000175  0.010060 -0.014196)
 14:    153.32   0.000078    0.40  0.000159  ( 0.011859 -0.004289  0.000265)
 15:    160.37   0.000195    0.99  0.000380  ( 0.013145  0.014023  0.003219)
 16:    162.59   0.000147    0.74  0.000282  (-0.005975  0.001423  0.015622)
 17:    199.45   0.002067   10.44  0.003233  (-0.056742 -0.003712 -0.000308)
 18:    209.38   0.000670    3.39  0.000999  (-0.000111 -0.000504 -0.031596)
 19:    238.99   0.000005    0.02  0.000006  (-0.000416 -0.000882 -0.002267)
 20:    239.89   0.000032    0.16  0.000041  (-0.003581 -0.005324  0.000043)
 21:    284.48   0.000826    4.18  0.000907  (-0.029778  0.004444 -0.000021)
 22:    308.22   0.003357   16.96  0.003399  ( 0.005884  0.057999 -0.000489)
 23:    337.91   0.001901    9.61  0.001755  (-0.000001 -0.000474 -0.041896)
 24:    358.15   0.000643    3.25  0.000560  (-0.000226 -0.000054 -0.023661)
 25:    362.12   0.000442    2.23  0.000381  (-0.000121 -0.000117 -0.019511)
 26:    399.25   0.000687    3.47  0.000537  (-0.022685  0.004751  0.000115)
 27:    437.21   0.000029    0.15  0.000021  ( 0.003777 -0.002502  0.000106)
 28:    485.74   0.000135    0.68  0.000087  (-0.001049 -0.009260  0.000049)
 29:    494.95   0.000000    0.00  0.000000  (-0.000016  0.000119  0.000233)
 30:    538.46   0.000057    0.29  0.000033  (-0.001074  0.005657 -0.000177)
 31:    538.91   0.000000    0.00  0.000000  ( 0.000170 -0.000387  0.000099)
 32:    543.50   0.000089    0.45  0.000051  (-0.000043 -0.007135 -0.000054)
 33:    547.22   0.000004    0.02  0.000002  (-0.000013  0.000152 -0.001569)
 34:    579.64   0.000295    1.49  0.000159  ( 0.000048  0.000131  0.012607)
 35:    594.99   0.000047    0.24  0.000025  (-0.000063 -0.000090 -0.004982)
 36:    604.31   0.000033    0.17  0.000017  (-0.003722  0.001732 -0.000124)
 37:    628.30   0.002094   10.58  0.001040  ( 0.032130 -0.002739 -0.000079)
 38:    685.57   0.000035    0.18  0.000016  (-0.000040  0.002725 -0.002908)
 39:    687.94   0.002503   12.65  0.001135  ( 0.001794 -0.033646  0.000086)
 40:    753.38   0.014015   70.83  0.005805  (-0.004768 -0.076040  0.000709)
 41:    768.69   0.000064    0.32  0.000026  ( 0.000112 -0.000207  0.005072)
 42:    779.95   0.001111    5.61  0.000444  ( 0.021006 -0.001789 -0.000021)
 43:    787.42   0.000329    1.66  0.000130  (-0.000251  0.000023 -0.011408)
 44:    796.29   0.001380    6.98  0.000541  ( 0.023050 -0.003000 -0.000846)
 45:    809.54   0.018978   95.91  0.007316  ( 0.000005 -0.000386 -0.085532)
 46:    810.50   0.003596   18.18  0.001385  (-0.036787 -0.005525 -0.000966)
 47:    887.37   0.000001    0.01  0.000000  ( 0.000006 -0.000631 -0.000065)
 48:    942.81   0.001720    8.69  0.000569  (-0.000092 -0.023843  0.000956)
 49:    942.91   0.000160    0.81  0.000053  (-0.000368  0.006849  0.002448)
 50:    944.52   0.000286    1.44  0.000094  ( 0.001096  0.009426  0.002074)
 51:    945.31   0.000220    1.11  0.000073  (-0.001193 -0.008095  0.002398)
 52:    963.98   0.008957   45.26  0.002900  ( 0.053746 -0.003297 -0.000288)
 53:    973.45   0.000840    4.24  0.000269  (-0.000275 -0.000115 -0.016406)
 54:   1007.81   0.002202   11.13  0.000682  (-0.026003  0.002150  0.000943)
 55:   1008.18   0.000172    0.87  0.000053  ( 0.004916 -0.000207  0.005383)
 56:   1035.31   0.000064    0.32  0.000019  (-0.000110  0.002326 -0.003715)
 57:   1035.75   0.000243    1.23  0.000073  (-0.000133  0.001064  0.008486)
 58:   1057.75   0.000721    3.64  0.000213  ( 0.003155 -0.004096  0.013640)
 59:   1058.06   0.001164    5.88  0.000343  (-0.002501  0.003244  0.018068)
 60:   1060.35   0.000252    1.27  0.000074  (-0.008332 -0.001178 -0.001793)
 61:   1060.97   0.003497   17.67  0.001029  ( 0.000238 -0.001441 -0.032038)
 62:   1062.11   0.000628    3.17  0.000185  ( 0.001379 -0.013444  0.001395)
 63:   1062.15   0.000255    1.29  0.000075  ( 0.001237 -0.007852  0.003409)
 64:   1087.82   0.005607   28.34  0.001609  (-0.000153 -0.000497 -0.040104)
 65:   1097.66   0.000011    0.06  0.000003  ( 0.001528 -0.000788 -0.000385)
 66:   1101.48   0.000099    0.50  0.000028  ( 0.000255  0.000071  0.005294)
 67:   1129.22   0.007695   38.89  0.002126  ( 0.046063 -0.002144 -0.000158)
 68:   1141.04   0.000211    1.07  0.000058  ( 0.000747 -0.000179 -0.007553)
 69:   1173.71   0.000590    2.98  0.000157  ( 0.000358  0.012501  0.000738)
 70:   1173.98   0.000631    3.19  0.000168  (-0.000726 -0.012889  0.001030)
 71:   1267.26   0.009198   46.48  0.002265  (-0.047492  0.003093  0.000206)
 72:   1280.27   0.000057    0.29  0.000014  ( 0.001863  0.003206  0.000487)
 73:   1280.69   0.000098    0.50  0.000024  (-0.002297 -0.004302  0.000333)
 74:   1297.45   0.000014    0.07  0.000003  (-0.000076 -0.000091 -0.001799)
 75:   1302.87   0.001233    6.23  0.000295  ( 0.017133 -0.001366 -0.000115)
 76:   1330.39   0.001482    7.49  0.000348  (-0.005651 -0.017769 -0.000214)
 77:   1330.51   0.001315    6.65  0.000308  (-0.005202 -0.016765  0.000530)
 78:   1336.83   0.002391   12.08  0.000558  ( 0.021906 -0.008840 -0.000143)
 79:   1380.00   0.001105    5.58  0.000250  (-0.000082 -0.000260 -0.015803)
 80:   1392.89   0.000058    0.30  0.000013  (-0.000970 -0.000565  0.003440)
 81:   1393.43   0.000103    0.52  0.000023  (-0.003687 -0.002948 -0.000847)
 82:   1397.16   0.000003    0.01  0.000001  ( 0.000025  0.000025  0.000772)
 83:   1400.88   0.001985   10.03  0.000442  ( 0.020731 -0.003511  0.000216)
 84:   1419.58   0.000410    2.07  0.000090  ( 0.000331 -0.000030 -0.009491)
 85:   1434.66   0.007997   40.41  0.001740  (-0.041672 -0.001143  0.001287)
 86:   1444.34   0.003912   19.77  0.000845  ( 0.007812 -0.003551  0.027777)
 87:   1445.44   0.002839   14.35  0.000613  ( 0.022578 -0.009641  0.003202)
 88:   1446.12   0.006073   30.69  0.001311  ( 0.008795 -0.005491 -0.034686)
 89:   1446.79   0.001498    7.57  0.000323  ( 0.010940 -0.013895  0.003234)
 90:   1451.00   0.001982   10.02  0.000426  ( 0.001273  0.004052 -0.020206)
 91:   1451.65   0.002599   13.13  0.000559  (-0.014411 -0.018199 -0.004448)
 92:   1456.54   0.000035    0.18  0.000008  (-0.000478 -0.000855 -0.002565)
 93:   1471.29   0.002305   11.65  0.000489  (-0.022084  0.001022  0.000257)
 94:   1533.26   0.000809    4.09  0.000165  ( 0.000566  0.012478  0.002942)
 95:   1533.49   0.009741   49.23  0.001982  ( 0.002674  0.044428 -0.001149)
 96:   1555.43   0.058464  295.45  0.011730  ( 0.108038 -0.007547 -0.000555)
 97:   1561.83   0.002343   11.84  0.000468  ( 0.000114  0.000233  0.021635)
 98:   1651.67   0.000342    1.73  0.000065  ( 0.000181  0.000026  0.008037)
 99:   1698.18   0.000074    0.38  0.000014  (-0.003665 -0.000491  0.000055)
100:   1699.88   0.000020    0.10  0.000004  (-0.000027  0.000170 -0.001925)
101:   1702.83   0.000036    0.18  0.000007  ( 0.000004 -0.000076  0.002550)
102:   1703.27   0.005151   26.03  0.000944  ( 0.000730  0.030712 -0.000170)
103:   3065.78   0.012262   61.97  0.001248  (-0.002631 -0.035210  0.001217)
104:   3066.26   0.000760    3.84  0.000077  ( 0.002206 -0.004263 -0.007368)
105:   3066.53   0.000190    0.96  0.000019  (-0.000241  0.004252  0.001080)
106:   3067.01   0.003506   17.72  0.000357  ( 0.018592 -0.003186  0.000964)
107:   3154.04   0.002169   10.96  0.000215  ( 0.002943  0.000131  0.014351)
108:   3154.39   0.002160   10.92  0.000214  (-0.002444  0.000233  0.014412)
109:   3155.56   0.000751    3.80  0.000074  ( 0.004216  0.003137  0.006831)
110:   3155.69   0.001042    5.27  0.000103  (-0.003250 -0.002469  0.009294)
111:   3185.17   0.005586   28.23  0.000547  ( 0.015325  0.017667  0.000515)
112:   3185.23   0.000518    2.62  0.000051  ( 0.001660  0.002081 -0.006606)
113:   3185.96   0.004509   22.79  0.000442  (-0.016338  0.013015 -0.002315)
114:   3186.01   0.001753    8.86  0.000172  ( 0.009557 -0.007997 -0.004054)
115:   3206.31   0.000001    0.00  0.000000  (-0.000102  0.000172  0.000117)
116:   3206.37   0.000000    0.00  0.000000  ( 0.000065 -0.000034  0.000161)
117:   3213.41   0.002896   14.63  0.000281  (-0.000760 -0.016724 -0.000977)
118:   3213.48   0.002908   14.70  0.000282  (-0.000815 -0.016743  0.001193)
119:   3227.49   0.004488   22.68  0.000434  ( 0.020543 -0.001542  0.003092)
120:   3227.52   0.001561    7.89  0.000151  ( 0.010544 -0.000920 -0.006238)
121:   3285.35   0.003168   16.01  0.000301  (-0.017313  0.001060  0.000148)
122:   3306.62   0.000693    3.50  0.000065  (-0.000015  0.000070  0.008087)

* The epsilon (eps) is given for a Dirac delta lineshape.
** The dipole moment derivative (T) already includes vibrational overlap.

The first frequency considered to be a vibration is 6
The total number of vibrations considered is 117


--------------------------
THERMOCHEMISTRY AT 298.15K
--------------------------

Temperature         ... 298.15 K
Pressure            ... 1.00 atm
Total Mass          ... 276.38 AMU

Throughout the following assumptions are being made:
  (1) The electronic state is orbitally nondegenerate
  (2) There are no thermally accessible electronically excited states
  (3) Hindered rotations indicated by low frequency modes are not
      treated as such but are treated as vibrations and this may
      cause some error
  (4) All equations used are the standard statistical mechanics
      equations for an ideal gas
  (5) All vibrations are strictly harmonic

freq.      26.78  E(vib)   ...       0.56 
freq.      29.20  E(vib)   ...       0.55 
freq.      58.73  E(vib)   ...       0.51 
freq.      63.63  E(vib)   ...       0.51 
freq.      88.68  E(vib)   ...       0.47 
freq.      96.17  E(vib)   ...       0.47 
freq.     135.60  E(vib)   ...       0.42 
freq.     151.06  E(vib)   ...       0.40 
freq.     153.32  E(vib)   ...       0.40 
freq.     160.37  E(vib)   ...       0.39 
freq.     162.59  E(vib)   ...       0.39 
freq.     199.45  E(vib)   ...       0.35 
freq.     209.38  E(vib)   ...       0.34 
freq.     238.99  E(vib)   ...       0.32 
freq.     239.89  E(vib)   ...       0.31 
freq.     284.48  E(vib)   ...       0.28 
freq.     308.22  E(vib)   ...       0.26 
freq.     337.91  E(vib)   ...       0.24 
freq.     358.15  E(vib)   ...       0.22 
freq.     362.12  E(vib)   ...       0.22 
freq.     399.25  E(vib)   ...       0.19 
freq.     437.21  E(vib)   ...       0.17 
freq.     485.74  E(vib)   ...       0.15 
freq.     494.95  E(vib)   ...       0.14 
freq.     538.46  E(vib)   ...       0.12 
freq.     538.91  E(vib)   ...       0.12 
freq.     543.50  E(vib)   ...       0.12 
freq.     547.22  E(vib)   ...       0.12 
freq.     579.64  E(vib)   ...       0.11 
freq.     594.99  E(vib)   ...       0.10 
freq.     604.31  E(vib)   ...       0.10 
freq.     628.30  E(vib)   ...       0.09 
freq.     685.57  E(vib)   ...       0.07 
freq.     687.94  E(vib)   ...       0.07 
freq.     753.38  E(vib)   ...       0.06 
freq.     768.69  E(vib)   ...       0.06 
freq.     779.95  E(vib)   ...       0.05 
freq.     787.42  E(vib)   ...       0.05 
freq.     796.29  E(vib)   ...       0.05 
freq.     809.54  E(vib)   ...       0.05 
freq.     810.50  E(vib)   ...       0.05 
freq.     887.37  E(vib)   ...       0.04 
freq.     942.81  E(vib)   ...       0.03 
freq.     942.91  E(vib)   ...       0.03 
freq.     944.52  E(vib)   ...       0.03 
freq.     945.31  E(vib)   ...       0.03 
freq.     963.98  E(vib)   ...       0.03 
freq.     973.45  E(vib)   ...       0.03 
freq.    1007.81  E(vib)   ...       0.02 
freq.    1008.18  E(vib)   ...       0.02 
freq.    1035.31  E(vib)   ...       0.02 
freq.    1035.75  E(vib)   ...       0.02 
freq.    1057.75  E(vib)   ...       0.02 
freq.    1058.06  E(vib)   ...       0.02 
freq.    1060.35  E(vib)   ...       0.02 
freq.    1060.97  E(vib)   ...       0.02 
freq.    1062.11  E(vib)   ...       0.02 
freq.    1062.15  E(vib)   ...       0.02 
freq.    1087.82  E(vib)   ...       0.02 
freq.    1097.66  E(vib)   ...       0.02 
freq.    1101.48  E(vib)   ...       0.02 
freq.    1129.22  E(vib)   ...       0.01 
freq.    1141.04  E(vib)   ...       0.01 
freq.    1173.71  E(vib)   ...       0.01 
freq.    1173.98  E(vib)   ...       0.01 
freq.    1267.26  E(vib)   ...       0.01 
freq.    1280.27  E(vib)   ...       0.01 
freq.    1280.69  E(vib)   ...       0.01 
freq.    1297.45  E(vib)   ...       0.01 
freq.    1302.87  E(vib)   ...       0.01 
freq.    1330.39  E(vib)   ...       0.01 
freq.    1330.51  E(vib)   ...       0.01 
freq.    1336.83  E(vib)   ...       0.01 
freq.    1380.00  E(vib)   ...       0.01 
freq.    1392.89  E(vib)   ...       0.00 
freq.    1393.43  E(vib)   ...       0.00 
freq.    1397.16  E(vib)   ...       0.00 
freq.    1400.88  E(vib)   ...       0.00 
freq.    1419.58  E(vib)   ...       0.00 
freq.    1434.66  E(vib)   ...       0.00 
freq.    1444.34  E(vib)   ...       0.00 
freq.    1445.44  E(vib)   ...       0.00 
freq.    1446.12  E(vib)   ...       0.00 
freq.    1446.79  E(vib)   ...       0.00 
freq.    1451.00  E(vib)   ...       0.00 
freq.    1451.65  E(vib)   ...       0.00 
freq.    1456.54  E(vib)   ...       0.00 
freq.    1471.29  E(vib)   ...       0.00 
freq.    1533.26  E(vib)   ...       0.00 
freq.    1533.49  E(vib)   ...       0.00 
freq.    1555.43  E(vib)   ...       0.00 
freq.    1561.83  E(vib)   ...       0.00 
freq.    1651.67  E(vib)   ...       0.00 
freq.    1698.18  E(vib)   ...       0.00 
freq.    1699.88  E(vib)   ...       0.00 
freq.    1702.83  E(vib)   ...       0.00 
freq.    1703.27  E(vib)   ...       0.00 
freq.    3065.78  E(vib)   ...       0.00 
freq.    3066.26  E(vib)   ...       0.00 
freq.    3066.53  E(vib)   ...       0.00 
freq.    3067.01  E(vib)   ...       0.00 
freq.    3154.04  E(vib)   ...       0.00 
freq.    3154.39  E(vib)   ...       0.00 
freq.    3155.56  E(vib)   ...       0.00 
freq.    3155.69  E(vib)   ...       0.00 
freq.    3185.17  E(vib)   ...       0.00 
freq.    3185.23  E(vib)   ...       0.00 
freq.    3185.96  E(vib)   ...       0.00 
freq.    3186.01  E(vib)   ...       0.00 
freq.    3206.31  E(vib)   ...       0.00 
freq.    3206.37  E(vib)   ...       0.00 
freq.    3213.41  E(vib)   ...       0.00 
freq.    3213.48  E(vib)   ...       0.00 
freq.    3227.49  E(vib)   ...       0.00 
freq.    3227.52  E(vib)   ...       0.00 
freq.    3285.35  E(vib)   ...       0.00 
freq.    3306.62  E(vib)   ...       0.00 

------------
INNER ENERGY
------------

The inner energy is: U= E(el) + E(ZPE) + E(vib) + E(rot) + E(trans)
    E(el)   - is the total energy from the electronic structure calculation
              = E(kin-el) + E(nuc-el) + E(el-el) + E(nuc-nuc)
    E(ZPE)  - the the zero temperature vibrational energy from the frequency calculation
    E(vib)  - the the finite temperature correction to E(ZPE) due to population
              of excited vibrational states
    E(rot)  - is the rotational thermal energy
    E(trans)- is the translational thermal energy

Summary of contributions to the inner energy U:
Electronic energy                ...   -844.74960449 Eh
Zero point energy                ...      0.34605878 Eh     217.15 kcal/mol
Thermal vibrational correction   ...      0.01640114 Eh      10.29 kcal/mol
Thermal rotational correction    ...      0.00141627 Eh       0.89 kcal/mol
Thermal translational correction ...      0.00141627 Eh       0.89 kcal/mol
-----------------------------------------------------------------------
Total thermal energy                   -844.38431203 Eh


Summary of corrections to the electronic energy:
(perhaps to be used in another calculation)
Total thermal correction                  0.01923368 Eh      12.07 kcal/mol
Non-thermal (ZPE) correction              0.34605878 Eh     217.15 kcal/mol
-----------------------------------------------------------------------
Total correction                          0.36529246 Eh     229.22 kcal/mol


--------
ENTHALPY
--------

The enthalpy is H = U + kB*T
                kB is Boltzmann's constant
Total free energy                 ...   -844.38431203 Eh 
Thermal Enthalpy correction       ...      0.00094421 Eh       0.59 kcal/mol
-----------------------------------------------------------------------
Total Enthalpy                    ...   -844.38336782 Eh


Note: Only C1 symmetry has been detected, increase convergence thresholds 
      if your molecule has a higher symmetry. Symmetry factor of 1.0 is   
      used for the rotational entropy correction. 
 

Note: Rotational entropy computed according to Herzberg 
Infrared and Raman Spectra, Chapter V,1, Van Nostrand Reinhold, 1945 
Point Group:  C1, Symmetry Number:   1  
Rotational constants in cm-1:     0.023565     0.005960     0.005193 

Vibrational entropy computed according to the QRRHO of S. Grimme
Chem.Eur.J. 2012 18 9955


-------
ENTROPY
-------

The entropy contributions are T*S = T*(S(el)+S(vib)+S(rot)+S(trans))
     S(el)   - electronic entropy
     S(vib)  - vibrational entropy
     S(rot)  - rotational entropy
     S(trans)- translational entropy
The entropies will be listed as multiplied by the temperature to get
units of energy

Electronic entropy                ...      0.00000000 Eh      0.00 kcal/mol
Vibrational entropy               ...      0.02888420 Eh     18.13 kcal/mol
Rotational entropy                ...      0.01618198 Eh     10.15 kcal/mol
Translational entropy             ...      0.02031105 Eh     12.75 kcal/mol
-----------------------------------------------------------------------
Final entropy term                ...      0.06537723 Eh     41.02 kcal/mol

In case the symmetry of your molecule has not been determined correctly
or in case you have a reason to use a different symmetry number we print 
out the resulting rotational entropy values for sn=1,12 :
 --------------------------------------------------------
|  sn= 1 | S(rot)=       0.01618198 Eh     10.15 kcal/mol|
|  sn= 2 | S(rot)=       0.01552752 Eh      9.74 kcal/mol|
|  sn= 3 | S(rot)=       0.01514469 Eh      9.50 kcal/mol|
|  sn= 4 | S(rot)=       0.01487306 Eh      9.33 kcal/mol|
|  sn= 5 | S(rot)=       0.01466238 Eh      9.20 kcal/mol|
|  sn= 6 | S(rot)=       0.01449023 Eh      9.09 kcal/mol|
|  sn= 7 | S(rot)=       0.01434469 Eh      9.00 kcal/mol|
|  sn= 8 | S(rot)=       0.01421861 Eh      8.92 kcal/mol|
|  sn= 9 | S(rot)=       0.01410740 Eh      8.85 kcal/mol|
|  sn=10 | S(rot)=       0.01400792 Eh      8.79 kcal/mol|
|  sn=11 | S(rot)=       0.01391793 Eh      8.73 kcal/mol|
|  sn=12 | S(rot)=       0.01383578 Eh      8.68 kcal/mol|
 --------------------------------------------------------


-------------------
GIBBS FREE ENERGY
-------------------

The Gibbs free energy is G = H - T*S

Total enthalpy                    ...   -844.38336782 Eh 
Total entropy correction          ...     -0.06537723 Eh    -41.02 kcal/mol
-----------------------------------------------------------------------
Final Gibbs free energy         ...   -844.44874505 Eh

For completeness - the Gibbs free energy minus the electronic energy
G-E(el)                           ...      0.30085944 Eh    188.79 kcal/mol


Timings for individual modules:

Sum of individual times         ...    15152.405 sec (= 252.540 min)
GTO integral calculation        ...        7.274 sec (=   0.121 min)   0.0 %
SCF iterations                  ...     8270.902 sec (= 137.848 min)  54.6 %
SCF Gradient evaluation         ...     2399.330 sec (=  39.989 min)  15.8 %
Geometry relaxation             ...        1.573 sec (=   0.026 min)   0.0 %
Analytical frequency calculation...     4473.326 sec (=  74.555 min)  29.5 %
                             ****ORCA TERMINATED NORMALLY****
TOTAL RUN TIME: 0 days 4 hours 12 minutes 35 seconds 135 msec
