
                                 *****************
                                 * O   R   C   A *
                                 *****************

                                            #,                                       
                                            ###                                      
                                            ####                                     
                                            #####                                    
                                            ######                                   
                                           ########,                                 
                                     ,,################,,,,,                         
                               ,,#################################,,                 
                          ,,##########################################,,             
                       ,#########################################, ''#####,          
                    ,#############################################,,   '####,        
                  ,##################################################,,,,####,       
                ,###########''''           ''''###############################       
              ,#####''   ,,,,##########,,,,          '''####'''          '####       
            ,##' ,,,,###########################,,,                        '##       
           ' ,,###''''                  '''############,,,                           
         ,,##''                                '''############,,,,        ,,,,,,###''
      ,#''                                            '''#######################'''  
     '                                                          ''''####''''         
             ,#######,   #######,   ,#######,      ##                                
            ,#'     '#,  ##    ##  ,#'     '#,    #''#        ######   ,####,        
            ##       ##  ##   ,#'  ##            #'  '#       #        #'  '#        
            ##       ##  #######   ##           ,######,      #####,   #    #        
            '#,     ,#'  ##    ##  '#,     ,#' ,#      #,         ##   #,  ,#        
             '#######'   ##     ##  '#######'  #'      '#     #####' # '####'        



                  #######################################################
                  #                        -***-                        #
                  #          Department of theory and spectroscopy      #
                  #    Directorship and core code : Frank Neese         #
                  #        Max Planck Institute fuer Kohlenforschung    #
                  #                Kaiser Wilhelm Platz 1               #
                  #                 D-45470 Muelheim/Ruhr               #
                  #                      Germany                        #
                  #                                                     #
                  #                  All rights reserved                #
                  #                        -***-                        #
                  #######################################################


                         Program Version 5.0.4 -  RELEASE  -


 With contributions from (in alphabetic order):
   Daniel Aravena         : Magnetic Suceptibility
   Michael Atanasov       : Ab Initio Ligand Field Theory (pilot matlab implementation)
   Alexander A. Auer      : GIAO ZORA, VPT2 properties, NMR spectrum
   Ute Becker             : Parallelization
   Giovanni Bistoni       : ED, misc. LED, open-shell LED, HFLD
   Martin Brehm           : Molecular dynamics
   Dmytro Bykov           : SCF Hessian
   Vijay G. Chilkuri      : MRCI spin determinant printing, contributions to CSF-ICE
   Dipayan Datta          : RHF DLPNO-CCSD density
   Achintya Kumar Dutta   : EOM-CC, STEOM-CC
   Dmitry Ganyushin       : Spin-Orbit,Spin-Spin,Magnetic field MRCI
   Miquel Garcia          : C-PCM and meta-GGA Hessian, CC/C-PCM, Gaussian charge scheme
   Yang Guo               : DLPNO-NEVPT2, F12-NEVPT2, CIM, IAO-localization
   Andreas Hansen         : Spin unrestricted coupled pair/coupled cluster methods
   Benjamin Helmich-Paris : MC-RPA, TRAH-SCF, COSX integrals
   Lee Huntington         : MR-EOM, pCC
   Robert Izsak           : Overlap fitted RIJCOSX, COSX-SCS-MP3, EOM
   Marcus Kettner         : VPT2
   Christian Kollmar      : KDIIS, OOCD, Brueckner-CCSD(T), CCSD density, CASPT2, CASPT2-K
   Simone Kossmann        : Meta GGA functionals, TD-DFT gradient, OOMP2, MP2 Hessian
   Martin Krupicka        : Initial AUTO-CI
   Lucas Lang             : DCDCAS
   Marvin Lechner         : AUTO-CI (C++ implementation), FIC-MRCC
   Dagmar Lenk            : GEPOL surface, SMD
   Dimitrios Liakos       : Extrapolation schemes; Compound Job, initial MDCI parallelization
   Dimitrios Manganas     : Further ROCIS development; embedding schemes
   Dimitrios Pantazis     : SARC Basis sets
   Anastasios Papadopoulos: AUTO-CI, single reference methods and gradients
   Taras Petrenko         : DFT Hessian,TD-DFT gradient, ASA, ECA, R-Raman, ABS, FL, XAS/XES, NRVS
   Peter Pinski           : DLPNO-MP2, DLPNO-MP2 Gradient
   Christoph Reimann      : Effective Core Potentials
   Marius Retegan         : Local ZFS, SOC
   Christoph Riplinger    : Optimizer, TS searches, QM/MM, DLPNO-CCSD(T), (RO)-DLPNO pert. Triples
   Tobias Risthaus        : Range-separated hybrids, TD-DFT gradient, RPA, STAB
   Michael Roemelt        : Original ROCIS implementation
   Masaaki Saitow         : Open-shell DLPNO-CCSD energy and density
   Barbara Sandhoefer     : DKH picture change effects
   Avijit Sen             : IP-ROCIS
   Kantharuban Sivalingam : CASSCF convergence, NEVPT2, FIC-MRCI
   Bernardo de Souza      : ESD, SOC TD-DFT
   Georgi Stoychev        : AutoAux, RI-MP2 NMR, DLPNO-MP2 response
   Willem Van den Heuvel  : Paramagnetic NMR
   Boris Wezisla          : Elementary symmetry handling
   Frank Wennmohs         : Technical directorship


 We gratefully acknowledge several colleagues who have allowed us to
 interface, adapt or use parts of their codes:
   Stefan Grimme, W. Hujo, H. Kruse, P. Pracht,  : VdW corrections, initial TS optimization,
                  C. Bannwarth, S. Ehlert          DFT functionals, gCP, sTDA/sTD-DF
   Ed Valeev, F. Pavosevic, A. Kumar             : LibInt (2-el integral package), F12 methods
   Garnet Chan, S. Sharma, J. Yang, R. Olivares  : DMRG
   Ulf Ekstrom                                   : XCFun DFT Library
   Mihaly Kallay                                 : mrcc  (arbitrary order and MRCC methods)
   Jiri Pittner, Ondrej Demel                    : Mk-CCSD
   Frank Weinhold                                : gennbo (NPA and NBO analysis)
   Christopher J. Cramer and Donald G. Truhlar   : smd solvation model
   Lars Goerigk                                  : TD-DFT with DH, B97 family of functionals
   V. Asgeirsson, H. Jonsson                     : NEB implementation
   FAccTs GmbH                                   : IRC, NEB, NEB-TS, DLPNO-Multilevel, CI-OPT
                                                   MM, QMMM, 2- and 3-layer-ONIOM, Crystal-QMMM,
                                                   LR-CPCM, SF, NACMEs, symmetry and pop. for TD-DFT,
                                                   nearIR, NL-DFT gradient (VV10), updates on ESD,
                                                   ML-optimized integration grids
   S Lehtola, MJT Oliveira, MAL Marques          : LibXC Library
   Liviu Ungur et al                             : ANISO software


 Your calculation uses the libint2 library for the computation of 2-el integrals
 For citations please refer to: http://libint.valeyev.net

 Your ORCA version has been built with support for libXC version: 5.1.0
 For citations please refer to: https://tddft.org/programs/libxc/

 This ORCA versions uses:
   CBLAS   interface :  Fast vector & matrix operations
   LAPACKE interface :  Fast linear algebra routines
   SCALAPACK package :  Parallel linear algebra routines
   Shared memory     :  Shared parallel matrices
   BLAS/LAPACK       :  OpenBLAS 0.3.15  USE64BITINT DYNAMIC_ARCH NO_AFFINITY SkylakeX SINGLE_THREADED
        Core in use  :  SkylakeX
   Copyright (c) 2011-2014, The OpenBLAS Project




***************************************
The coordinates will be read from file: 8_deprot_aq_2.xyz
***************************************


Your calculation utilizes the atom-pairwise dispersion correction
based on tight binding partial charges (D4)
Cite in your paper:
E.Caldeweyher, C.Bannwarth, S.Grimme, J.Chem.Phys., (2017), 147, 034112.
E.Caldeweyher, S.Ehlert, A.Hansen, H.Neugebauer, S.Grimme, J.Chem.Phys., (2018), in progress.
   

XCFun DFT library Copyright 2009-2010 Ulf Ekstrom and contributors.
See http://admol.org/xcfun for more information.
This is free software; see the source code for copying conditions.
There is ABSOLUTELY NO WARRANTY; not even for MERCHANTABILITY or FITNESS FOR A PARTICULAR PURPOSE.
For details see the documentation.
Scientific users of this library should cite U. Ekstrom, L. Visscher, R. Bast, A. J. Thorvaldsen and K. Ruud;
J.Chem.Theor.Comp. 2010, DOI: 10.1021/ct100117s
XCFun Version 0.99 

================================================================================

----- Orbital basis set information -----
Your calculation utilizes the basis: def2-SVP
   F. Weigend and R. Ahlrichs, Phys. Chem. Chem. Phys. 7, 3297 (2005).

----- AuxJ basis set information -----
Your calculation utilizes the auxiliary basis: def2/J
   F. Weigend, Phys. Chem. Chem. Phys. 8, 1057 (2006).

================================================================================
                                        WARNINGS
                       Please study these warnings very carefully!
================================================================================

WARNING: Old DensityContainer found on disk!
         Will remove this file - 
         If you want to keep old densities, please start your calculation with a different basename. 


WARNING: Geometry Optimization
  ===> : Switching off AutoStart
         For restart on a previous wavefunction, please use MOREAD

INFO   : the flag for use of the SHARK integral package has been found!

================================================================================
                                       INPUT FILE
================================================================================
NAME = 8_deprot_aq_2.inp
|  1> # ORCA 5.0.4 - /users/bwb16179/postgrad/2024_03/DFT_Crest_Conformers/Opt/deprot/8_deprot_aq_2.inp # write input file
|  2> # Basic Mode
|  3> #
|  4> ! Opt Freq wB97X Def2-SVP D4 SlowConv TightSCF Defgrid2 Def2/J RIJCOSX CPCM(Water)
|  5> 
|  6> 
|  7> 
|  8> %maxcore 4500
|  9> 
| 10> %geom
| 11> Maxiter 150
| 12> END
| 13> 
| 14> * xyzfile 0 1 8_deprot_aq_2.xyz
| 15> 
| 16>                          ****END OF INPUT****
================================================================================

                       *****************************
                       * Geometry Optimization Run *
                       *****************************

Geometry optimization settings:
Update method            Update   .... BFGS
Choice of coordinates    CoordSys .... Z-matrix Internals
Initial Hessian          InHess   .... Almoef's Model

Convergence Tolerances:
Energy Change            TolE     ....  5.0000e-06 Eh
Max. Gradient            TolMAXG  ....  3.0000e-04 Eh/bohr
RMS Gradient             TolRMSG  ....  1.0000e-04 Eh/bohr
Max. Displacement        TolMAXD  ....  4.0000e-03 bohr
RMS Displacement         TolRMSD  ....  2.0000e-03 bohr
Strict Convergence                ....  False
------------------------------------------------------------------------------
                        ORCA OPTIMIZATION COORDINATE SETUP
------------------------------------------------------------------------------

The optimization will be done in new redundant internal coordinates
Making redundant internal coordinates   ...  (new redundants) done
Evaluating the initial hessian          ...  (Almloef) done
Evaluating the coordinates              ...  done
Calculating the B-matrix                .... done
Calculating the G-matrix                .... done
Diagonalizing the G-matrix              .... done
Small eigenvalue found = 3.407e-03
Small eigenvalue found = 6.296e-03
Small eigenvalue found = 8.314e-03
Small eigenvalue found = 1.327e-02
Small eigenvalue found = 1.761e-02
The first mode is                       ....   95
The number of degrees of freedom        ....  117

    -----------------------------------------------------------------
                    Redundant Internal Coordinates


    -----------------------------------------------------------------
         Definition                    Initial Value    Approx d2E/dq
    -----------------------------------------------------------------
      1. B(C   1,N   0)                  1.3606         0.623327   
      2. B(N   2,C   1)                  1.3606         0.623325   
      3. B(C   3,N   2)                  1.3904         0.558856   
      4. B(C   4,C   3)                  1.3534         0.714589   
      5. B(C   4,N   0)                  1.3904         0.558854   
      6. B(C   5,N   0)                  1.4329         0.478009   
      7. B(C   6,N   2)                  1.4329         0.478012   
      8. B(C   7,C   5)                  1.4027         0.596383   
      9. B(C   8,C   5)                  1.4025         0.596652   
     10. B(C   9,C   6)                  1.4027         0.596400   
     11. B(C  10,C   6)                  1.4026         0.596633   
     12. B(H  11,C   3)                  1.0888         0.361672   
     13. B(H  12,C   4)                  1.0888         0.361671   
     14. B(C  13,C   8)                  1.3988         0.604961   
     15. B(C  14,C  13)                  1.3933         0.617164   
     16. B(C  15,C  14)                  1.3933         0.617231   
     17. B(C  15,C   7)                  1.3986         0.605441   
     18. B(C  16,C   9)                  1.3986         0.605437   
     19. B(C  17,C  16)                  1.3933         0.617235   
     20. B(C  18,C  17)                  1.3934         0.617152   
     21. B(C  18,C  10)                  1.3988         0.604967   
     22. B(C  19,C   7)                  1.5062         0.407761   
     23. B(C  20,C   8)                  1.5062         0.407694   
     24. B(H  21,C  13)                  1.0943         0.354453   
     25. B(H  22,C  14)                  1.0938         0.355045   
     26. B(H  23,C  15)                  1.0943         0.354480   
     27. B(C  24,C   9)                  1.5062         0.407759   
     28. B(H  25,C  18)                  1.0943         0.354452   
     29. B(C  26,C  10)                  1.5062         0.407691   
     30. B(H  27,C  16)                  1.0943         0.354481   
     31. B(H  28,C  17)                  1.0938         0.355045   
     32. B(H  29,C  20)                  1.1014         0.345308   
     33. B(H  30,C  20)                  1.1020         0.344579   
     34. B(H  31,C  20)                  1.0987         0.348750   
     35. B(H  32,C  19)                  1.0986         0.348846   
     36. B(H  33,C  19)                  1.1016         0.345118   
     37. B(H  34,C  19)                  1.1018         0.344763   
     38. B(H  35,C  26)                  1.1020         0.344578   
     39. B(H  36,C  26)                  1.0987         0.348751   
     40. B(H  37,C  26)                  1.1014         0.345307   
     41. B(H  38,C  24)                  1.1019         0.344758   
     42. B(H  39,C  24)                  1.0986         0.348845   
     43. B(H  40,C  24)                  1.1016         0.345128   
     44. A(C   4,N   0,C   5)          123.7427         0.401574   
     45. A(C   1,N   0,C   5)          123.3439         0.409395   
     46. A(C   1,N   0,C   4)          112.9134         0.420929   
     47. A(N   0,C   1,N   2)          102.2386         0.429234   
     48. A(C   1,N   2,C   6)          123.3456         0.409395   
     49. A(C   1,N   2,C   3)          112.9134         0.420929   
     50. A(C   3,N   2,C   6)          123.7410         0.401575   
     51. A(C   4,C   3,H  11)          131.4220         0.361797   
     52. A(N   2,C   3,C   4)          105.9674         0.434195   
     53. A(N   2,C   3,H  11)          122.6106         0.344910   
     54. A(C   3,C   4,H  12)          131.4219         0.361797   
     55. A(N   0,C   4,H  12)          122.6108         0.344910   
     56. A(N   0,C   4,C   3)          105.9673         0.434195   
     57. A(C   7,C   5,C   8)          122.4916         0.428087   
     58. A(N   0,C   5,C   8)          118.7894         0.408871   
     59. A(N   0,C   5,C   7)          118.7190         0.408838   
     60. A(N   2,C   6,C  10)          118.7874         0.408869   
     61. A(N   2,C   6,C   9)          118.7204         0.408841   
     62. A(C   9,C   6,C  10)          122.4923         0.428087   
     63. A(C  15,C   7,C  19)          121.3337         0.401159   
     64. A(C   5,C   7,C  19)          120.7737         0.400096   
     65. A(C   5,C   7,C  15)          117.8916         0.429211   
     66. A(C   5,C   8,C  13)          117.8650         0.429185   
     67. A(C  13,C   8,C  20)          121.2890         0.401092   
     68. A(C   5,C   8,C  20)          120.8436         0.400116   
     69. A(C   6,C   9,C  16)          117.8914         0.429213   
     70. A(C   6,C   9,C  24)          120.7735         0.400098   
     71. A(C  16,C   9,C  24)          121.3341         0.401158   
     72. A(C   6,C  10,C  18)          117.8645         0.429183   
     73. A(C  18,C  10,C  26)          121.2896         0.401092   
     74. A(C   6,C  10,C  26)          120.8434         0.400114   
     75. A(C   8,C  13,C  14)          120.7524         0.431798   
     76. A(C  14,C  13,H  21)          120.0708         0.351694   
     77. A(C   8,C  13,H  21)          119.1767         0.350509   
     78. A(C  13,C  14,C  15)          120.2658         0.433359   
     79. A(C  15,C  14,H  22)          119.8725         0.351799   
     80. A(C  13,C  14,H  22)          119.8616         0.351793   
     81. A(C   7,C  15,C  14)          120.7335         0.431868   
     82. A(C  14,C  15,H  23)          120.1338         0.351705   
     83. A(C   7,C  15,H  23)          119.1327         0.350561   
     84. A(C   9,C  16,C  17)          120.7332         0.431868   
     85. A(C  17,C  16,H  27)          120.1336         0.351705   
     86. A(C   9,C  16,H  27)          119.1331         0.350560   
     87. A(C  16,C  17,C  18)          120.2664         0.433358   
     88. A(C  18,C  17,H  28)          119.8617         0.351792   
     89. A(C  16,C  17,H  28)          119.8719         0.351800   
     90. A(C  10,C  18,C  17)          120.7521         0.431797   
     91. A(C  17,C  18,H  25)          120.0701         0.351692   
     92. A(C  10,C  18,H  25)          119.1777         0.350509   
     93. A(H  33,C  19,H  34)          106.9274         0.286948   
     94. A(H  32,C  19,H  34)          108.1651         0.287430   
     95. A(H  32,C  19,H  33)          108.5627         0.287476   
     96. A(C   7,C  19,H  33)          110.9672         0.326731   
     97. A(C   7,C  19,H  32)          110.8010         0.327310   
     98. A(C   7,C  19,H  34)          111.2740         0.326676   
     99. A(H  30,C  20,H  31)          108.3143         0.287393   
    100. A(H  29,C  20,H  31)          108.4842         0.287488   
    101. A(C   8,C  20,H  31)          110.7673         0.327287   
    102. A(H  29,C  20,H  30)          106.8706         0.286949   
    103. A(C   8,C  20,H  30)          110.8523         0.326639   
    104. A(C   8,C  20,H  29)          111.4080         0.326752   
    105. A(H  39,C  24,H  40)          108.5639         0.287477   
    106. A(H  38,C  24,H  40)          106.9283         0.286948   
    107. A(C   9,C  24,H  40)          110.9689         0.326733   
    108. A(H  38,C  24,H  39)          108.1640         0.287429   
    109. A(C   9,C  24,H  39)          110.8006         0.327310   
    110. A(C   9,C  24,H  38)          111.2718         0.326675   
    111. A(C  10,C  26,H  36)          110.7681         0.327286   
    112. A(C  10,C  26,H  35)          110.8519         0.326638   
    113. A(H  36,C  26,H  37)          108.4853         0.287488   
    114. A(H  35,C  26,H  37)          106.8695         0.286948   
    115. A(C  10,C  26,H  37)          111.4073         0.326752   
    116. A(H  35,C  26,H  36)          108.3145         0.287393   
    117. D(N   2,C   1,N   0,C   5)    179.9256         0.028528   
    118. D(N   2,C   1,N   0,C   4)      0.0089         0.028528   
    119. D(C   6,N   2,C   1,N   0)    179.9625         0.028528   
    120. D(C   3,N   2,C   1,N   0)      0.0346         0.028528   
    121. D(H  11,C   3,N   2,C   6)     -0.0154         0.024937   
    122. D(C   4,C   3,N   2,C   1)     -0.0654         0.024937   
    123. D(C   4,C   3,N   2,C   6)   -179.9929         0.024937   
    124. D(H  11,C   3,N   2,C   1)    179.9122         0.024937   
    125. D(H  12,C   4,C   3,N   2)   -179.9001         0.036092   
    126. D(N   0,C   4,C   3,H  11)   -179.9096         0.036092   
    127. D(H  12,C   4,N   0,C   5)      0.0042         0.024937   
    128. D(N   0,C   4,C   3,N   2)      0.0652         0.036092   
    129. D(H  12,C   4,N   0,C   1)    179.9205         0.024937   
    130. D(C   3,C   4,N   0,C   5)   -179.9649         0.024937   
    131. D(H  12,C   4,C   3,H  11)      0.1251         0.036092   
    132. D(C   3,C   4,N   0,C   1)     -0.0486         0.024937   
    133. D(C   8,C   5,N   0,C   1)     85.6286         0.018022   
    134. D(C   8,C   5,N   0,C   4)    -94.4637         0.018022   
    135. D(C   7,C   5,N   0,C   4)     85.5181         0.018022   
    136. D(C   7,C   5,N   0,C   1)    -94.3896         0.018022   
    137. D(C  10,C   6,N   2,C   3)    -94.4745         0.018022   
    138. D(C  10,C   6,N   2,C   1)     85.6054         0.018022   
    139. D(C   9,C   6,N   2,C   3)     85.5042         0.018022   
    140. D(C   9,C   6,N   2,C   1)    -94.4159         0.018022   
    141. D(C  19,C   7,C   5,C   8)   -179.6023         0.024503   
    142. D(C  19,C   7,C   5,N   0)      0.4166         0.024503   
    143. D(C  15,C   7,C   5,C   8)      0.0274         0.024503   
    144. D(C  15,C   7,C   5,N   0)   -179.9537         0.024503   
    145. D(C  20,C   8,C   5,N   0)     -0.5703         0.024527   
    146. D(C  13,C   8,C   5,C   7)      0.0076         0.024527   
    147. D(C  13,C   8,C   5,N   0)    179.9886         0.024527   
    148. D(C  20,C   8,C   5,C   7)    179.4487         0.024527   
    149. D(C  24,C   9,C   6,C  10)   -179.6042         0.024505   
    150. D(C  24,C   9,C   6,N   2)      0.4179         0.024505   
    151. D(C  16,C   9,C   6,C  10)      0.0272         0.024505   
    152. D(C  16,C   9,C   6,N   2)   -179.9507         0.024505   
    153. D(C  26,C  10,C   6,C   9)    179.4498         0.024525   
    154. D(C  18,C  10,C   6,C   9)      0.0078         0.024525   
    155. D(C  26,C  10,C   6,N   2)     -0.5723         0.024525   
    156. D(C  18,C  10,C   6,N   2)    179.9857         0.024525   
    157. D(H  21,C  13,C   8,C  20)      0.5886         0.025252   
    158. D(H  21,C  13,C   8,C   5)   -179.9729         0.025252   
    159. D(C  14,C  13,C   8,C  20)   -179.5207         0.025252   
    160. D(C  14,C  13,C   8,C   5)     -0.0822         0.025252   
    161. D(H  22,C  14,C  13,H  21)      0.0108         0.026342   
    162. D(H  22,C  14,C  13,C   8)   -179.8789         0.026342   
    163. D(C  15,C  14,C  13,H  21)   -179.9885         0.026342   
    164. D(C  15,C  14,C  13,C   8)      0.1218         0.026342   
    165. D(H  23,C  15,C  14,H  22)     -0.1499         0.026348   
    166. D(C   7,C  15,C  14,H  22)    179.9156         0.026348   
    167. D(C   7,C  15,C  14,C  13)     -0.0852         0.026348   
    168. D(H  23,C  15,C   7,C  19)     -0.2963         0.025295   
    169. D(H  23,C  15,C   7,C   5)   -179.9238         0.025295   
    170. D(H  23,C  15,C  14,C  13)    179.8493         0.026348   
    171. D(C  14,C  15,C   7,C  19)    179.6389         0.025295   
    172. D(C  14,C  15,C   7,C   5)      0.0114         0.025295   
    173. D(H  27,C  16,C   9,C  24)     -0.2915         0.025294   
    174. D(H  27,C  16,C   9,C   6)   -179.9208         0.025294   
    175. D(C  17,C  16,C   9,C  24)    179.6406         0.025294   
    176. D(C  17,C  16,C   9,C   6)      0.0114         0.025294   
    177. D(H  28,C  17,C  16,C   9)    179.9177         0.026349   
    178. D(C  18,C  17,C  16,H  27)    179.8463         0.026349   
    179. D(C  18,C  17,C  16,C   9)     -0.0851         0.026349   
    180. D(H  28,C  17,C  16,H  27)     -0.1508         0.026349   
    181. D(H  25,C  18,C  17,H  28)      0.0096         0.026341   
    182. D(H  25,C  18,C  17,C  16)   -179.9876         0.026341   
    183. D(C  10,C  18,C  17,H  28)   -179.8810         0.026341   
    184. D(C  10,C  18,C  17,C  16)      0.1218         0.026341   
    185. D(H  25,C  18,C  10,C  26)      0.5867         0.025253   
    186. D(H  25,C  18,C  10,C   6)   -179.9739         0.025253   
    187. D(C  17,C  18,C  10,C  26)   -179.5217         0.025253   
    188. D(C  17,C  18,C  10,C   6)     -0.0824         0.025253   
    189. D(H  34,C  19,C   7,C  15)    116.3604         0.012320   
    190. D(H  34,C  19,C   7,C   5)    -64.0227         0.012320   
    191. D(H  33,C  19,C   7,C  15)   -124.7048         0.012320   
    192. D(H  33,C  19,C   7,C   5)     54.9120         0.012320   
    193. D(H  32,C  19,C   7,C  15)     -4.0236         0.012320   
    194. D(H  32,C  19,C   7,C   5)    175.5932         0.012320   
    195. D(H  31,C  20,C   8,C  13)     -6.7394         0.012316   
    196. D(H  31,C  20,C   8,C   5)    173.8388         0.012316   
    197. D(H  30,C  20,C   8,C  13)    113.5298         0.012316   
    198. D(H  30,C  20,C   8,C   5)    -65.8920         0.012316   
    199. D(H  29,C  20,C   8,C  13)   -127.5949         0.012316   
    200. D(H  29,C  20,C   8,C   5)     52.9833         0.012316   
    201. D(H  40,C  24,C   9,C  16)   -124.7636         0.012319   
    202. D(H  40,C  24,C   9,C   6)     54.8550         0.012319   
    203. D(H  39,C  24,C   9,C  16)     -4.0801         0.012319   
    204. D(H  39,C  24,C   9,C   6)    175.5385         0.012319   
    205. D(H  38,C  24,C   9,C  16)    116.3009         0.012319   
    206. D(H  38,C  24,C   9,C   6)    -64.0805         0.012319   
    207. D(H  37,C  26,C  10,C  18)   -127.6129         0.012316   
    208. D(H  37,C  26,C  10,C   6)     52.9644         0.012316   
    209. D(H  36,C  26,C  10,C  18)     -6.7559         0.012316   
    210. D(H  36,C  26,C  10,C   6)    173.8214         0.012316   
    211. D(H  35,C  26,C  10,C  18)    113.5138         0.012316   
    212. D(H  35,C  26,C  10,C   6)    -65.9089         0.012316   
    -----------------------------------------------------------------

Number of atoms                         .... 41
Number of degrees of freedom            .... 212

         *************************************************************
         *                GEOMETRY OPTIMIZATION CYCLE   1            *
         *************************************************************
---------------------------------
CARTESIAN COORDINATES (ANGSTROEM)
---------------------------------
  N     -1.058194    0.042270    0.469854
  C     -0.000066   -0.000958   -0.384452
  N      1.058505   -0.042482    0.469393
  C      0.676652   -0.026618    1.806194
  C     -0.675673    0.028501    1.806490
  C     -2.421643    0.097977    0.032708
  C      2.421770   -0.098292    0.031692
  C     -3.041609    1.350844   -0.083249
  C     -3.085834   -1.101519   -0.262587
  C      3.042388   -1.351022   -0.082154
  C      3.085147    1.101029   -0.266171
  H      1.396584   -0.056139    2.622492
  H     -1.395190    0.059435    2.623102
  C     -4.416329   -1.024656   -0.687399
  C     -5.055270    0.207547   -0.809232
  C     -4.372910    1.385008   -0.510400
  C      4.373521   -1.385245   -0.509828
  C      5.055076   -0.207967   -0.811197
  C      4.415496    1.024111   -0.691424
  C     -2.288661    2.615715    0.235659
  C     -2.380099   -2.426206   -0.136859
  H     -4.955231   -1.947433   -0.923122
  H     -6.096755    0.250573   -1.140834
  H     -4.876052    2.351723   -0.609203
  C      2.290300   -2.615703    0.239531
  H      4.953783    1.946732   -0.929157
  C      2.378710    2.425548   -0.142621
  H      4.877158   -2.351861   -0.607065
  H      6.096429   -0.251044   -1.143209
  H     -1.923143   -2.545435    0.858177
  H     -1.565715   -2.508385   -0.874703
  H     -3.079665   -3.257422   -0.300776
  H     -2.901480    3.500595    0.015526
  H     -1.358128    2.678946   -0.350482
  H     -2.001321    2.652684    1.298738
  H      1.564137    2.505984   -0.880450
  H      3.077778    3.256869   -0.308118
  H      1.921857    2.546240    0.852287
  H      2.004387   -2.651232    1.303048
  H      2.903163   -3.500676    0.019893
  H      1.359026   -2.680119   -0.345288

----------------------------
CARTESIAN COORDINATES (A.U.)
----------------------------
  NO LB      ZA    FRAG     MASS         X           Y           Z
   0 N     7.0000    0    14.007   -1.999696    0.079879    0.887896
   1 C     6.0000    0    12.011   -0.000124   -0.001811   -0.726509
   2 N     7.0000    0    14.007    2.000284   -0.080279    0.887023
   3 C     6.0000    0    12.011    1.278686   -0.050301    3.413213
   4 C     6.0000    0    12.011   -1.276836    0.053859    3.413771
   5 C     6.0000    0    12.011   -4.576241    0.185149    0.061809
   6 C     6.0000    0    12.011    4.576482   -0.185745    0.059890
   7 C     6.0000    0    12.011   -5.747809    2.552726   -0.157318
   8 C     6.0000    0    12.011   -5.831380   -2.081569   -0.496217
   9 C     6.0000    0    12.011    5.749279   -2.553062   -0.155249
  10 C     6.0000    0    12.011    5.830083    2.080643   -0.502990
  11 H     1.0000    0     1.008    2.639162   -0.106087    4.955793
  12 H     1.0000    0     1.008   -2.636527    0.112317    4.956944
  13 C     6.0000    0    12.011   -8.345652   -1.936320   -1.298995
  14 C     6.0000    0    12.011   -9.553075    0.392206   -1.529227
  15 C     6.0000    0    12.011   -8.263603    2.617286   -0.964517
  16 C     6.0000    0    12.011    8.264757   -2.617734   -0.963435
  17 C     6.0000    0    12.011    9.552710   -0.393001   -1.532940
  18 C     6.0000    0    12.011    8.344078    1.935290   -1.306602
  19 C     6.0000    0    12.011   -4.324943    4.942985    0.445331
  20 C     6.0000    0    12.011   -4.497735   -4.584865   -0.258626
  21 H     1.0000    0     1.008   -9.364030   -3.680114   -1.744448
  22 H     1.0000    0     1.008  -11.521198    0.473513   -2.155864
  23 H     1.0000    0     1.008   -9.214402    4.444113   -1.151227
  24 C     6.0000    0    12.011    4.328039   -4.942963    0.452648
  25 H     1.0000    0     1.008    9.361292    3.678791   -1.755853
  26 C     6.0000    0    12.011    4.495110    4.583622   -0.269515
  27 H     1.0000    0     1.008    9.216492   -4.444374   -1.147186
  28 H     1.0000    0     1.008   11.520582   -0.474404   -2.160353
  29 H     1.0000    0     1.008   -3.634213   -4.810175    1.621720
  30 H     1.0000    0     1.008   -2.958772   -4.740160   -1.652948
  31 H     1.0000    0     1.008   -5.819724   -6.155635   -0.568383
  32 H     1.0000    0     1.008   -5.483002    6.615166    0.029341
  33 H     1.0000    0     1.008   -2.566490    5.062475   -0.662315
  34 H     1.0000    0     1.008   -3.781949    5.012846    2.454260
  35 H     1.0000    0     1.008    2.955790    4.735623   -1.663810
  36 H     1.0000    0     1.008    5.816157    6.154591   -0.582258
  37 H     1.0000    0     1.008    3.631783    4.811696    1.610589
  38 H     1.0000    0     1.008    3.787743   -5.010103    2.462404
  39 H     1.0000    0     1.008    5.486182   -6.615319    0.037592
  40 H     1.0000    0     1.008    2.568186   -5.064692   -0.652501

--------------------------------
INTERNAL COORDINATES (ANGSTROEM)
--------------------------------
 N      0   0   0     0.000000000000     0.00000000     0.00000000
 C      1   0   0     1.360640774875     0.00000000     0.00000000
 N      2   1   0     1.360641823706   102.23855528     0.00000000
 C      3   2   1     1.390360669278   112.91335951     0.03461174
 C      4   3   2     1.353446985480   105.96735564   359.93459351
 C      1   2   3     1.432896824283   123.34387483   179.92559588
 C      3   2   1     1.432895390777   123.34556197   179.96248168
 C      6   1   2     1.402669522885   118.71897801   265.61036227
 C      6   1   2     1.402546693757   118.78942588    85.62860811
 C      7   3   2     1.402661894968   118.72036725   265.58412532
 C      7   3   2     1.402555319471   118.78737760    85.60539607
 H      4   3   2     1.088814459042   122.61063266   179.91217340
 H      5   4   3     1.088814907405   131.42190557   180.09989454
 C      9   6   1     1.398781866842   117.86497421   179.98862166
 C     14   9   6     1.393345923457   120.75242512   359.91777937
 C     15  14   9     1.393316289899   120.26583709     0.12182481
 C     10   7   3     1.398567929910   117.89140988   180.04931266
 C     17  10   7     1.393314263265   120.73323506     0.00000000
 C     18  17  10     1.393350959247   120.26637554   359.91488890
 C      8   6   1     1.506164612545   120.77366173     0.41664715
 C      9   6   1     1.506209030276   120.84363961   359.42973805
 H     14   9   6     1.094302596032   119.17670447   180.02710704
 H     15  14   9     1.093848022999   119.86164474   180.12107326
 H     16  15  14     1.094281547125   120.13378835   179.84930586
 C     10   7   3     1.506165920409   120.77346939     0.41786343
 H     19  18  17     1.094303116551   120.07013865   180.01239968
 C     11   7   3     1.506210823286   120.84342862   359.42768679
 H     17  10   7     1.094281012810   119.13314004   180.07924325
 H     18  17  10     1.093848043561   119.87193787   179.91772761
 H     21   9   6     1.101417732676   111.40803356    52.98329005
 H     21   9   6     1.101992895361   110.85225800   294.10800731
 H     21   9   6     1.098718216289   110.76731947   173.83878615
 H     20   8   6     1.098643399151   110.80102230   175.59320028
 H     20   8   6     1.101567899764   110.96719526    54.91201809
 H     20   8   6     1.101847712791   111.27403121   295.97727069
 H     27  11   7     1.101993661608   110.85191420   294.09114930
 H     27  11   7     1.098717308865   110.76813141   173.82138628
 H     27  11   7     1.101418544857   111.40733253    52.96441350
 H     25  10   7     1.101851572853   111.27184807   295.91949085
 H     25  10   7     1.098644093991   110.80064703   175.53853703
 H     25  10   7     1.101560038980   110.96886892    54.85500359

---------------------------
INTERNAL COORDINATES (A.U.)
---------------------------
 N      0   0   0     0.000000000000     0.00000000     0.00000000
 C      1   0   0     2.571238431159     0.00000000     0.00000000
 N      2   1   0     2.571240413164   102.23855528     0.00000000
 C      3   2   1     2.627400892312   112.91335951     0.03461174
 C      4   3   2     2.557644139338   105.96735564   359.93459351
 C      1   2   3     2.707782576061   123.34387483   179.92559588
 C      3   2   1     2.707779867126   123.34556197   179.96248168
 C      6   1   2     2.650661254650   118.71897801   265.61036227
 C      6   1   2     2.650429141237   118.78942588    85.62860811
 C      7   3   2     2.650646839977   118.72036725   265.58412532
 C      7   3   2     2.650445441475   118.78737760    85.60539607
 H      4   3   2     2.057561138243   122.61063266   179.91217340
 H      5   4   3     2.057561985526   131.42190557   180.09989454
 C      9   6   1     2.643314649426   117.86497421   179.98862166
 C     14   9   6     2.633042205150   120.75242512   359.91777937
 C     15  14   9     2.632986205841   120.26583709     0.12182481
 C     10   7   3     2.642910367214   117.89140988   180.04931266
 C     17  10   7     2.632982376058   120.73323506     0.00000000
 C     18  17  10     2.633051721413   120.26637554   359.91488890
 C      8   6   1     2.846238630313   120.77366173     0.41664715
 C      9   6   1     2.846322567660   120.84363961   359.42973805
 H     14   9   6     2.067932214140   119.17670447   180.02710704
 H     15  14   9     2.067073195600   119.86164474   180.12107326
 H     16  15  14     2.067892437471   120.13378835   179.84930586
 C     10   7   3     2.846241101819   120.77346939     0.41786343
 H     19  18  17     2.067933197777   120.07013865   180.01239968
 C     11   7   3     2.846325955958   120.84342862   359.42768679
 H     17  10   7     2.067891427761   119.13314004   180.07924325
 H     18  17  10     2.067073234456   119.87193787   179.91772761
 H     21   9   6     2.081377873802   111.40803356    52.98329005
 H     21   9   6     2.082464773758   110.85225800   294.10800731
 H     21   9   6     2.076276527136   110.76731947   173.83878615
 H     20   8   6     2.076135143237   110.80102230   175.59320028
 H     20   8   6     2.081661648473   110.96719526    54.91201809
 H     20   8   6     2.082190418462   111.27403121   295.97727069
 H     27  11   7     2.082466221756   110.85191420   294.09114930
 H     27  11   7     2.076274812354   110.76813141   173.82138628
 H     27  11   7     2.081379408602   111.40733253    52.96441350
 H     25  10   7     2.082197712923   111.27184807   295.91949085
 H     25  10   7     2.076136456294   110.80064703   175.53853703
 H     25  10   7     2.081646793743   110.96886892    54.85500359

---------------------
BASIS SET INFORMATION
---------------------
There are 3 groups of distinct atoms

 Group   1 Type N   : 7s4p1d contracted to 3s2p1d pattern {511/31/1}
 Group   2 Type C   : 7s4p1d contracted to 3s2p1d pattern {511/31/1}
 Group   3 Type H   : 4s1p contracted to 2s1p pattern {31/1}

Atom   0N    basis set group =>   1
Atom   1C    basis set group =>   2
Atom   2N    basis set group =>   1
Atom   3C    basis set group =>   2
Atom   4C    basis set group =>   2
Atom   5C    basis set group =>   2
Atom   6C    basis set group =>   2
Atom   7C    basis set group =>   2
Atom   8C    basis set group =>   2
Atom   9C    basis set group =>   2
Atom  10C    basis set group =>   2
Atom  11H    basis set group =>   3
Atom  12H    basis set group =>   3
Atom  13C    basis set group =>   2
Atom  14C    basis set group =>   2
Atom  15C    basis set group =>   2
Atom  16C    basis set group =>   2
Atom  17C    basis set group =>   2
Atom  18C    basis set group =>   2
Atom  19C    basis set group =>   2
Atom  20C    basis set group =>   2
Atom  21H    basis set group =>   3
Atom  22H    basis set group =>   3
Atom  23H    basis set group =>   3
Atom  24C    basis set group =>   2
Atom  25H    basis set group =>   3
Atom  26C    basis set group =>   2
Atom  27H    basis set group =>   3
Atom  28H    basis set group =>   3
Atom  29H    basis set group =>   3
Atom  30H    basis set group =>   3
Atom  31H    basis set group =>   3
Atom  32H    basis set group =>   3
Atom  33H    basis set group =>   3
Atom  34H    basis set group =>   3
Atom  35H    basis set group =>   3
Atom  36H    basis set group =>   3
Atom  37H    basis set group =>   3
Atom  38H    basis set group =>   3
Atom  39H    basis set group =>   3
Atom  40H    basis set group =>   3
---------------------------------
AUXILIARY/J BASIS SET INFORMATION
---------------------------------
There are 3 groups of distinct atoms

 Group   1 Type N   : 12s5p4d2f1g contracted to 6s4p3d1f1g pattern {711111/2111/211/2/1}
 Group   2 Type C   : 12s5p4d2f1g contracted to 6s4p3d1f1g pattern {711111/2111/211/2/1}
 Group   3 Type H   : 5s2p1d contracted to 3s1p1d pattern {311/2/1}

Atom   0N    basis set group =>   1
Atom   1C    basis set group =>   2
Atom   2N    basis set group =>   1
Atom   3C    basis set group =>   2
Atom   4C    basis set group =>   2
Atom   5C    basis set group =>   2
Atom   6C    basis set group =>   2
Atom   7C    basis set group =>   2
Atom   8C    basis set group =>   2
Atom   9C    basis set group =>   2
Atom  10C    basis set group =>   2
Atom  11H    basis set group =>   3
Atom  12H    basis set group =>   3
Atom  13C    basis set group =>   2
Atom  14C    basis set group =>   2
Atom  15C    basis set group =>   2
Atom  16C    basis set group =>   2
Atom  17C    basis set group =>   2
Atom  18C    basis set group =>   2
Atom  19C    basis set group =>   2
Atom  20C    basis set group =>   2
Atom  21H    basis set group =>   3
Atom  22H    basis set group =>   3
Atom  23H    basis set group =>   3
Atom  24C    basis set group =>   2
Atom  25H    basis set group =>   3
Atom  26C    basis set group =>   2
Atom  27H    basis set group =>   3
Atom  28H    basis set group =>   3
Atom  29H    basis set group =>   3
Atom  30H    basis set group =>   3
Atom  31H    basis set group =>   3
Atom  32H    basis set group =>   3
Atom  33H    basis set group =>   3
Atom  34H    basis set group =>   3
Atom  35H    basis set group =>   3
Atom  36H    basis set group =>   3
Atom  37H    basis set group =>   3
Atom  38H    basis set group =>   3
Atom  39H    basis set group =>   3
Atom  40H    basis set group =>   3
------------------------------------------------------------------------------
                           ORCA GTO INTEGRAL CALCULATION
                           -- RI-GTO INTEGRALS CHOSEN --
------------------------------------------------------------------------------
------------------------------------------------------------------------------
                   ___                                                        
                  /   \      - P O W E R E D   B Y -                         
                 /     \                                                     
                 |  |  |   _    _      __       _____    __    __             
                 |  |  |  | |  | |    /  \     |  _  \  |  |  /  |          
                  \  \/   | |  | |   /    \    | | | |  |  | /  /          
                 / \  \   | |__| |  /  /\  \   | |_| |  |  |/  /          
                |  |  |   |  __  | /  /__\  \  |    /   |      \           
                |  |  |   | |  | | |   __   |  |    \   |  |\   \          
                \     /   | |  | | |  |  |  |  | |\  \  |  | \   \       
                 \___/    |_|  |_| |__|  |__|  |_| \__\ |__|  \__/        
                                                                              
                      - O R C A' S   B I G   F R I E N D -                    
                                      &                                       
                       - I N T E G R A L  F E E D E R -                       
                                                                              
 v1 FN, 2020, v2 2021                                                         
------------------------------------------------------------------------------


Reading SHARK input file 8_deprot_aq_2.SHARKINP.tmp ... ok
----------------------
SHARK INTEGRAL PACKAGE
----------------------

Number of atoms                             ...     41
Number of basis functions                   ...    394
Number of shells                            ...    186
Maximum angular momentum                    ...      2
Integral batch strategy                     ... SHARK/LIBINT Hybrid
RI-J (if used) integral strategy            ... SPLIT-RIJ (Revised 2003 algorithm where possible)
Printlevel                                  ...      1
Contraction scheme used                     ... SEGMENTED contraction
Coulomb Range Separation                    ... NOT USED
Exchange Range Separation                   ... Long Range
   Mu parameter                             ...  0.300000
   Scaling (regular/separated)              ...  0.157706  0.842294
Finite Nucleus Model                        ... NOT USED
Auxiliary Coulomb fitting basis             ... AVAILABLE
   # of basis functions in Aux-J            ...   1249
   # of shells in Aux-J                     ...    415
   Maximum angular momentum in Aux-J        ...      4
Auxiliary J/K fitting basis                 ... NOT available
Auxiliary Correlation fitting basis         ... NOT available
Auxiliary 'external' fitting basis          ... NOT available
Integral threshold                          ...     2.500000e-11
Primitive cut-off                           ...     2.500000e-12
Primitive pair pre-selection threshold      ...     2.500000e-12

Calculating pre-screening integrals         ... done (  0.1 sec) Dimension = 186
Organizing shell pair data                  ... done (  0.1 sec)
Shell pair information
Total number of shell pairs                 ...     17391
Shell pairs after pre-screening             ...     13186
Total number of primitive shell pairs       ...     62461
Primitive shell pairs kept                  ...     30341
          la=0 lb=0:   4162 shell pairs
          la=1 lb=0:   4924 shell pairs
          la=1 lb=1:   1495 shell pairs
          la=2 lb=0:   1537 shell pairs
          la=2 lb=1:    916 shell pairs
          la=2 lb=2:    152 shell pairs

Calculating one electron integrals          ... done (  0.1 sec)
Calculating RI/J V-Matrix + Cholesky decomp.... done (  0.1 sec)
Calculating Nuclear repulsion               ... done (  0.0 sec) ENN=   1591.500741501480 Eh

SHARK setup successfully completed in   0.6 seconds

Maximum memory used throughout the entire GTOINT-calculation: 79.6 MB
-------------------------------------------------------------------------------
                                 ORCA SCF
-------------------------------------------------------------------------------

------------
SCF SETTINGS
------------
Hamiltonian:
 Density Functional     Method          .... DFT(GTOs)
 Exchange Functional    Exchange        .... WB97X
 Correlation Functional Correlation     .... WB97X
 Gradients option       PostSCFGGA      .... off
 Hybrid DFT is turned on
   Fraction HF Exchange ScalHFX         ....  0.157706
   Scaling of DF-GGA-X  ScalDFX         ....  0.000000
   Scaling of DF-GGA-C  ScalDFC         ....  1.000000
   Scaling of DF-LDA-C  ScalLDAC        ....  1.000000
   Perturbative correction              ....  0.000000
   Density functional embedding theory  .... OFF
 Long-range corrected/Screened/Range-Separated Hybrid DFT is turned on
   Amount of maximum screened exact exchange              ....  0.842294
   Range separation parameter mu (erf(mu*r12)/r12)        ....  0.300000
 RI-approximation to the Coulomb term is turned on
   Number of AuxJ basis functions       .... 1249
   RIJ-COSX (HFX calculated with COS-X)).... on


General Settings:
 Integral files         IntName         .... 8_deprot_aq_2
 Hartree-Fock type      HFTyp           .... RHF
 Total Charge           Charge          ....    0
 Multiplicity           Mult            ....    1
 Number of Electrons    NEL             ....  148
 Basis Dimension        Dim             ....  394
 Nuclear Repulsion      ENuc            ....   1591.5007415015 Eh

Convergence Acceleration:
 DIIS                   CNVDIIS         .... on
   Start iteration      DIISMaxIt       ....     0
   Startup error        DIISStart       ....  0.200000
   # of expansion vecs  DIISMaxEq       ....     5
   Bias factor          DIISBfac        ....   1.050
   Max. coefficient     DIISMaxC        ....  10.000
 Trust-Rad. Augm. Hess. CNVTRAH         .... auto
   Auto Start mean grad. ratio tolernc. ....  1.125000
   Auto Start start iteration           ....    20
   Auto Start num. interpolation iter.  ....    10
   Max. Number of Micro iterations      ....    16
   Max. Number of Macro iterations      .... Maxiter - #DIIS iter
   Number of Davidson start vectors     ....     2
   Converg. threshold I  (grad. norm)   ....   1.000e-05
   Converg. threshold II (energy diff.) ....   1.000e-08
   Grad. Scal. Fac. for Micro threshold ....   0.100
   Minimum threshold for Micro iter.    ....   0.010
   NR start threshold (gradient norm)   ....   0.001
   Initial trust radius                 ....   0.400
   Minimum AH scaling param. (alpha)    ....   1.000
   Maximum AH scaling param. (alpha)    .... 1000.000
   Orbital update algorithm             .... Taylor
   White noise on init. David. guess    .... on
   Maximum white noise                  ....   0.010
   Quad. conv. algorithm                .... NR
 SOSCF                  CNVSOSCF        .... on
   Start iteration      SOSCFMaxIt      ....   150
   Startup grad/error   SOSCFStart      ....  0.001000
 Level Shifting         CNVShift        .... on
   Level shift para.    LevelShift      ....    0.2500
   Turn off err/grad.   ShiftErr        ....    0.0000
 Zerner damping         CNVZerner       .... off
 Static damping         CNVDamp         .... on
   Fraction old density DampFac         ....    0.8500
   Max. Damping (<1)    DampMax         ....    0.9800
   Min. Damping (>=0)   DampMin         ....    0.0000
   Turn off err/grad.   DampErr         ....    0.0300
 Fernandez-Rico         CNVRico         .... off

SCF Procedure:
 Maximum # iterations   MaxIter         ....   125
 SCF integral mode      SCFMode         .... Direct
   Integral package                     .... SHARK and LIBINT hybrid scheme
 Reset frequency        DirectResetFreq ....    20
 Integral Threshold     Thresh          ....  2.500e-11 Eh
 Primitive CutOff       TCut            ....  2.500e-12 Eh

Convergence Tolerance:
 Convergence Check Mode ConvCheckMode   .... Total+1el-Energy
 Convergence forced     ConvForced      .... 0
 Energy Change          TolE            ....  1.000e-08 Eh
 1-El. energy change                    ....  1.000e-05 Eh
 Orbital Gradient       TolG            ....  1.000e-05
 Orbital Rotation angle TolX            ....  1.000e-05
 DIIS Error             TolErr          ....  5.000e-07


Diagonalization of the overlap matrix:
Smallest eigenvalue                        ... 2.047e-04
Time for diagonalization                   ...    0.029 sec
Threshold for overlap eigenvalues          ... 1.000e-08
Number of eigenvalues below threshold      ... 0
Time for construction of square roots      ...    0.018 sec
Total time needed                          ...    0.047 sec

Time for model grid setup =    1.180 sec

------------------------------
INITIAL GUESS: MODEL POTENTIAL
------------------------------
Loading Hartree-Fock densities                     ... done
Calculating cut-offs                               ... done
Initializing the effective Hamiltonian             ... done
Setting up the integral package (SHARK)            ... done
Starting the Coulomb interaction                   ... done (   1.6 sec)
Reading the grid                                   ... done
Mapping shells                                     ... done
Starting the XC term evaluation                    ... done (   1.2 sec)
  promolecular density results
     # of electrons  =    148.002400370
     EX              =   -116.170517775
     EC              =     -4.929389927
     EX+EC           =   -121.099907702
Transforming the Hamiltonian                       ... done (   0.0 sec)
Diagonalizing the Hamiltonian                      ... done (   0.0 sec)
Back transforming the eigenvectors                 ... done (   0.0 sec)
Now organizing SCF variables                       ... done
                      ------------------
                      INITIAL GUESS DONE (   4.0 sec)
                      ------------------
-------------------
DFT GRID GENERATION
-------------------

General Integration Accuracy     IntAcc      ... 4.388
Radial Grid Type                 RadialGrid  ... OptM3 with GC (2021)
Angular Grid (max. ang.)         AngularGrid ... 4 (Lebedev-302)
Angular grid pruning method      GridPruning ... 4 (adaptive)
Weight generation scheme         WeightScheme... Becke
Basis function cutoff            BFCut       ... 1.0000e-11
Integration weight cutoff        WCut        ... 1.0000e-14
Angular grids for H and He will be reduced by one unit
Partially contracted basis set               ... off
Rotationally invariant grid construction     ... off

Total number of grid points                  ...   188663
Total number of batches                      ...     2970
Average number of points per batch           ...       63
Average number of grid points per atom       ...     4602
Time for grid setup =    4.123 sec

--------------------
COSX GRID GENERATION
--------------------

GRIDX 1
-------
General Integration Accuracy     IntAcc      ... 3.816
Radial Grid Type                 RadialGrid  ... OptM3 with GC (2021)
Angular Grid (max. ang.)         AngularGrid ... 1 (Lebedev-50)
Angular grid pruning method      GridPruning ... 4 (adaptive)
Weight generation scheme         WeightScheme... Becke
Basis function cutoff            BFCut       ... 1.0000e-11
Integration weight cutoff        WCut        ... 1.0000e-14
Angular grids for H and He will be reduced by one unit
Partially contracted basis set               ... on
Rotationally invariant grid construction     ... off

Total number of grid points                  ...    24032
Total number of batches                      ...      396
Average number of points per batch           ...       60
Average number of grid points per atom       ...      586
UseSFitting                                  ... on

GRIDX 2
-------
General Integration Accuracy     IntAcc      ... 4.020
Radial Grid Type                 RadialGrid  ... OptM3 with GC (2021)
Angular Grid (max. ang.)         AngularGrid ... 2 (Lebedev-110)
Angular grid pruning method      GridPruning ... 4 (adaptive)
Weight generation scheme         WeightScheme... Becke
Basis function cutoff            BFCut       ... 1.0000e-11
Integration weight cutoff        WCut        ... 1.0000e-14
Angular grids for H and He will be reduced by one unit
Partially contracted basis set               ... on
Rotationally invariant grid construction     ... off

Total number of grid points                  ...    51440
Total number of batches                      ...      828
Average number of points per batch           ...       62
Average number of grid points per atom       ...     1255
UseSFitting                                  ... on

GRIDX 3
-------
General Integration Accuracy     IntAcc      ... 4.338
Radial Grid Type                 RadialGrid  ... OptM3 with GC (2021)
Angular Grid (max. ang.)         AngularGrid ... 3 (Lebedev-194)
Angular grid pruning method      GridPruning ... 4 (adaptive)
Weight generation scheme         WeightScheme... Becke
Basis function cutoff            BFCut       ... 1.0000e-11
Integration weight cutoff        WCut        ... 1.0000e-14
Angular grids for H and He will be reduced by one unit
Partially contracted basis set               ... on
Rotationally invariant grid construction     ... off

Total number of grid points                  ...   112066
Total number of batches                      ...     1776
Average number of points per batch           ...       63
Average number of grid points per atom       ...     2733
UseSFitting                                  ... on

Time for X-Grid setup             =    5.749 sec


--------------------
CPCM SOLVATION MODEL
--------------------
CPCM parameters:
  Epsilon                                         ...      80.4000
  Refrac                                          ...       1.3300
  Rsolv                                           ...       1.3000
  Surface type                                    ... GAUSSIAN VDW
  Epsilon function type                           ...         CPCM
Radii:
 Radius for N  used is    3.5149 Bohr (=   1.8600 Ang.)
 Radius for C  used is    3.8550 Bohr (=   2.0400 Ang.)
 Radius for H  used is    2.4944 Bohr (=   1.3200 Ang.)
Calculating surface                               ...        done! (  0.0s)
GEPOL surface points                              ...         2162
GEPOL Volume                                      ...    2408.4688
GEPOL Surface-area                                ...    1221.6720
Calculating surface distance matrix               ...        done! (  0.0s)
Performing Cholesky decomposition & store         ...        done! (  0.2s)
Overall time for CPCM initialization              ...                 0.3s
--------------
SCF ITERATIONS
--------------
ITER       Energy         Delta-E        Max-DP      RMS-DP      [F,P]     Damp
               ***  Starting incremental Fock matrix formation  ***
  0   -844.3663989053   0.000000000000 0.03128766  0.00064354  0.1480478 0.8500
  1   -844.4403290678  -0.073930162450 0.02819479  0.00059506  0.1201193 0.8500
                               ***Turning on DIIS***
  2   -844.4978458858  -0.057516818024 0.02316857  0.00049198  0.0931057 0.8500
  3   -844.5414170802  -0.043571194446 0.01877592  0.00037420  0.0713409 0.8500
  4   -844.5754272593  -0.034010179022 0.01530634  0.00029892  0.0571109 0.8500
  5   -844.6024278064  -0.027000547178 0.01266364  0.00024923  0.0473490 0.8500
  6   -844.6244365728  -0.022008766316 0.01058556  0.00021127  0.0398787 0.8500
  7   -844.6426614186  -0.018224845843 0.00890650  0.00018120  0.0337968 0.8500
  8   -844.6578981645  -0.015236745856 0.05042580  0.00103570  0.0285955 0.0000
  9   -844.7399431921  -0.082045027672 0.00136222  0.00002835  0.0011086 0.0000
                      *** Initiating the SOSCF procedure ***
                           *** Shutting down DIIS ***
                      *** Re-Reading the Fockian *** 
                      *** Removing any level shift *** 
ITER      Energy       Delta-E        Grad      Rot      Max-DP    RMS-DP
 10   -844.73997487  -0.0000316794  0.000413  0.000413  0.000565  0.000014
               *** Restarting incremental Fock matrix formation ***
 11   -844.73990171   0.0000731626  0.000229  0.000520  0.000488  0.000014
 12   -844.73990369  -0.0000019778  0.000139  0.000563  0.000337  0.000010
 13   -844.73990417  -0.0000004859  0.000045  0.000097  0.000158  0.000004
 14   -844.73990427  -0.0000000948  0.000006  0.000015  0.000030  0.000001
 15   -844.73990427  -0.0000000043  0.000005  0.000015  0.000014  0.000000
                  ***Gradient check signals convergence***
              ***Rediagonalizing the Fockian in SOSCF/NRSCF***

               *****************************************************
               *                     SUCCESS                       *
               *           SCF CONVERGED AFTER  16 CYCLES          *
               *****************************************************

Old exchange energy                            =    -38.151153898 Eh
New exchange energy                            =    -38.151203524 Eh
Exchange energy change after final integration =     -0.000049626 Eh
Total energy after final integration           =   -844.739953946 Eh
Final COS-X integration done in                =   171.120 sec

----------------
TOTAL SCF ENERGY
----------------

Total Energy       :         -844.73995395 Eh          -22986.54276 eV

Components:
Nuclear Repulsion  :         1591.50074150 Eh           43306.93686 eV
Electronic Energy  :        -2436.24069545 Eh          -66293.47962 eV
One Electron Energy:        -4302.70465571 Eh         -117082.54604 eV
Two Electron Energy:         1866.46396026 Eh           50789.06642 eV
Max COSX asymmetry :            0.00000200 Eh               0.00005 eV
CPCM Dielectric    :           -0.02075192 Eh              -0.56469 eV

Virial components:
Potential Energy   :        -1679.50312241 Eh          -45701.60339 eV
Kinetic Energy     :          834.76316847 Eh           22715.06063 eV
Virial Ratio       :            2.01195164


DFT components:
N(Alpha)           :       74.000162379726 electrons
N(Beta)            :       74.000162379726 electrons
N(Total)           :      148.000324759451 electrons
E(XC)              :      -85.853010142018 Eh       
DFET-embed. en.    :        0.000000000000 Eh       
CPCM Solvation Model Properties:
Surface-charge          :           -0.03000794
Charge-correction       :           -0.00037520 Eh              -0.01021 eV
Free-energy (cav+disp)  :  This term is not implemented in the current solvation scheme

---------------
SCF CONVERGENCE
---------------

  Last Energy change         ...   -4.7807e-08  Tolerance :   1.0000e-08
  Last MAX-Density change    ...    3.5527e-15  Tolerance :   1.0000e-07
  Last RMS-Density change    ...    3.5876e-17  Tolerance :   5.0000e-09
  Last Orbital Gradient      ...    9.6046e-07  Tolerance :   1.0000e-05
  Last Orbital Rotation      ...    2.6808e-06  Tolerance :   1.0000e-05

             **** THE GBW FILE WAS UPDATED (8_deprot_aq_2.gbw) ****
             **** DENSITY 8_deprot_aq_2.scfp WAS UPDATED ****
             **** ENERGY FILE WAS UPDATED (8_deprot_aq_2.en.tmp) ****
             **** THE GBW FILE WAS UPDATED (8_deprot_aq_2.gbw) ****
             **** DENSITY 8_deprot_aq_2.scfp WAS UPDATED ****
----------------
ORBITAL ENERGIES
----------------

  NO   OCC          E(Eh)            E(eV) 
   0   2.0000     -14.459281      -393.4570 
   1   2.0000     -14.459275      -393.4569 
   2   2.0000     -10.310941      -280.5750 
   3   2.0000     -10.310891      -280.5736 
   4   2.0000     -10.303670      -280.3771 
   5   2.0000     -10.303073      -280.3609 
   6   2.0000     -10.289233      -279.9843 
   7   2.0000     -10.289058      -279.9795 
   8   2.0000     -10.289055      -279.9794 
   9   2.0000     -10.289041      -279.9790 
  10   2.0000     -10.289032      -279.9788 
  11   2.0000     -10.278187      -279.6837 
  12   2.0000     -10.278187      -279.6837 
  13   2.0000     -10.274030      -279.5706 
  14   2.0000     -10.274028      -279.5705 
  15   2.0000     -10.274016      -279.5702 
  16   2.0000     -10.274015      -279.5702 
  17   2.0000     -10.269349      -279.4432 
  18   2.0000     -10.269347      -279.4431 
  19   2.0000     -10.269004      -279.4338 
  20   2.0000     -10.268999      -279.4337 
  21   2.0000      -1.159915       -31.5629 
  22   2.0000      -1.060209       -28.8498 
  23   2.0000      -0.997790       -27.1512 
  24   2.0000      -0.976765       -26.5791 
  25   2.0000      -0.913030       -24.8448 
  26   2.0000      -0.912699       -24.8358 
  27   2.0000      -0.907006       -24.6809 
  28   2.0000      -0.873136       -23.7592 
  29   2.0000      -0.869862       -23.6701 
  30   2.0000      -0.829286       -22.5660 
  31   2.0000      -0.811130       -22.0720 
  32   2.0000      -0.801295       -21.8044 
  33   2.0000      -0.800370       -21.7792 
  34   2.0000      -0.761720       -20.7275 
  35   2.0000      -0.736908       -20.0523 
  36   2.0000      -0.698699       -19.0126 
  37   2.0000      -0.696817       -18.9613 
  38   2.0000      -0.695864       -18.9354 
  39   2.0000      -0.678817       -18.4716 
  40   2.0000      -0.650310       -17.6958 
  41   2.0000      -0.617835       -16.8121 
  42   2.0000      -0.612081       -16.6556 
  43   2.0000      -0.598348       -16.2819 
  44   2.0000      -0.591730       -16.1018 
  45   2.0000      -0.562581       -15.3086 
  46   2.0000      -0.554780       -15.0963 
  47   2.0000      -0.551412       -15.0047 
  48   2.0000      -0.536716       -14.6048 
  49   2.0000      -0.534866       -14.5545 
  50   2.0000      -0.529619       -14.4117 
  51   2.0000      -0.525085       -14.2883 
  52   2.0000      -0.524264       -14.2659 
  53   2.0000      -0.521560       -14.1924 
  54   2.0000      -0.518592       -14.1116 
  55   2.0000      -0.513690       -13.9782 
  56   2.0000      -0.513560       -13.9747 
  57   2.0000      -0.509306       -13.8589 
  58   2.0000      -0.506635       -13.7862 
  59   2.0000      -0.478733       -13.0270 
  60   2.0000      -0.476401       -12.9635 
  61   2.0000      -0.462062       -12.5733 
  62   2.0000      -0.459426       -12.5016 
  63   2.0000      -0.456201       -12.4139 
  64   2.0000      -0.451704       -12.2915 
  65   2.0000      -0.445736       -12.1291 
  66   2.0000      -0.444970       -12.1082 
  67   2.0000      -0.390596       -10.6287 
  68   2.0000      -0.348648        -9.4872 
  69   2.0000      -0.344044        -9.3619 
  70   2.0000      -0.339121        -9.2280 
  71   2.0000      -0.337375        -9.1804 
  72   2.0000      -0.333492        -9.0748 
  73   2.0000      -0.332999        -9.0614 
  74   0.0000       0.061171         1.6645 
  75   0.0000       0.067137         1.8269 
  76   0.0000       0.072104         1.9620 
  77   0.0000       0.073425         1.9980 
  78   0.0000       0.106195         2.8897 
  79   0.0000       0.114970         3.1285 
  80   0.0000       0.142054         3.8655 
  81   0.0000       0.164862         4.4861 
  82   0.0000       0.166973         4.5436 
  83   0.0000       0.173142         4.7114 
  84   0.0000       0.187493         5.1019 
  85   0.0000       0.188045         5.1170 
  86   0.0000       0.194551         5.2940 
  87   0.0000       0.204021         5.5517 
  88   0.0000       0.205536         5.5929 
  89   0.0000       0.215210         5.8562 
  90   0.0000       0.224933         6.1208 
  91   0.0000       0.228423         6.2157 
  92   0.0000       0.235477         6.4077 
  93   0.0000       0.240285         6.5385 
  94   0.0000       0.247307         6.7296 
  95   0.0000       0.247559         6.7364 
  96   0.0000       0.252477         6.8703 
  97   0.0000       0.259467         7.0605 
  98   0.0000       0.260879         7.0989 
  99   0.0000       0.263749         7.1770 
 100   0.0000       0.282930         7.6989 
 101   0.0000       0.287667         7.8278 
 102   0.0000       0.290562         7.9066 
 103   0.0000       0.302649         8.2355 
 104   0.0000       0.314578         8.5601 
 105   0.0000       0.315002         8.5716 
 106   0.0000       0.333653         9.0792 
 107   0.0000       0.337930         9.1955 
 108   0.0000       0.357343         9.7238 
 109   0.0000       0.364480         9.9180 
 110   0.0000       0.368030        10.0146 
 111   0.0000       0.395364        10.7584 
 112   0.0000       0.399403        10.8683 
 113   0.0000       0.404782        11.0147 
 114   0.0000       0.407433        11.0868 
 115   0.0000       0.425325        11.5737 
 116   0.0000       0.431014        11.7285 
 117   0.0000       0.431108        11.7310 
 118   0.0000       0.438330        11.9276 
 119   0.0000       0.441031        12.0011 
 120   0.0000       0.448349        12.2002 
 121   0.0000       0.461063        12.5462 
 122   0.0000       0.464408        12.6372 
 123   0.0000       0.491319        13.3695 
 124   0.0000       0.495200        13.4751 
 125   0.0000       0.500466        13.6184 
 126   0.0000       0.506314        13.7775 
 127   0.0000       0.509274        13.8580 
 128   0.0000       0.522736        14.2244 
 129   0.0000       0.524037        14.2598 
 130   0.0000       0.528442        14.3796 
 131   0.0000       0.536718        14.6048 
 132   0.0000       0.538559        14.6549 
 133   0.0000       0.548119        14.9151 
 134   0.0000       0.549909        14.9638 
 135   0.0000       0.552344        15.0301 
 136   0.0000       0.565232        15.3807 
 137   0.0000       0.577622        15.7179 
 138   0.0000       0.585936        15.9441 
 139   0.0000       0.587592        15.9892 
 140   0.0000       0.590529        16.0691 
 141   0.0000       0.596154        16.2222 
 142   0.0000       0.597111        16.2482 
 143   0.0000       0.603564        16.4238 
 144   0.0000       0.606953        16.5160 
 145   0.0000       0.641953        17.4684 
 146   0.0000       0.650683        17.7060 
 147   0.0000       0.650938        17.7129 
 148   0.0000       0.668463        18.1898 
 149   0.0000       0.675130        18.3712 
 150   0.0000       0.680955        18.5297 
 151   0.0000       0.686053        18.6685 
 152   0.0000       0.691385        18.8135 
 153   0.0000       0.700982        19.0747 
 154   0.0000       0.703522        19.1438 
 155   0.0000       0.716919        19.5084 
 156   0.0000       0.721683        19.6380 
 157   0.0000       0.722546        19.6615 
 158   0.0000       0.722988        19.6735 
 159   0.0000       0.736174        20.0323 
 160   0.0000       0.747869        20.3505 
 161   0.0000       0.749596        20.3976 
 162   0.0000       0.750981        20.4352 
 163   0.0000       0.752751        20.4834 
 164   0.0000       0.761018        20.7083 
 165   0.0000       0.761487        20.7211 
 166   0.0000       0.766823        20.8663 
 167   0.0000       0.769935        20.9510 
 168   0.0000       0.774731        21.0815 
 169   0.0000       0.782166        21.2838 
 170   0.0000       0.783938        21.3320 
 171   0.0000       0.790428        21.5086 
 172   0.0000       0.794940        21.6314 
 173   0.0000       0.795054        21.6345 
 174   0.0000       0.796434        21.6721 
 175   0.0000       0.797692        21.7063 
 176   0.0000       0.801070        21.7982 
 177   0.0000       0.805297        21.9133 
 178   0.0000       0.812086        22.0980 
 179   0.0000       0.820396        22.3241 
 180   0.0000       0.823539        22.4096 
 181   0.0000       0.825968        22.4757 
 182   0.0000       0.834833        22.7170 
 183   0.0000       0.849486        23.1157 
 184   0.0000       0.851594        23.1731 
 185   0.0000       0.860916        23.4267 
 186   0.0000       0.866999        23.5923 
 187   0.0000       0.867131        23.5958 
 188   0.0000       0.876305        23.8455 
 189   0.0000       0.876797        23.8589 
 190   0.0000       0.881062        23.9749 
 191   0.0000       0.896496        24.3949 
 192   0.0000       0.900734        24.5102 
 193   0.0000       0.905988        24.6532 
 194   0.0000       0.912369        24.8268 
 195   0.0000       0.918467        24.9928 
 196   0.0000       0.930376        25.3168 
 197   0.0000       0.940574        25.5943 
 198   0.0000       0.947579        25.7849 
 199   0.0000       0.950446        25.8630 
 200   0.0000       0.951135        25.8817 
 201   0.0000       0.961603        26.1665 
 202   0.0000       0.983005        26.7489 
 203   0.0000       1.021664        27.8009 
 204   0.0000       1.028591        27.9894 
 205   0.0000       1.032742        28.1023 
 206   0.0000       1.040615        28.3166 
 207   0.0000       1.067713        29.0539 
 208   0.0000       1.087884        29.6028 
 209   0.0000       1.131585        30.7920 
 210   0.0000       1.147821        31.2338 
 211   0.0000       1.161144        31.5963 
 212   0.0000       1.214149        33.0387 
 213   0.0000       1.244470        33.8637 
 214   0.0000       1.252189        34.0738 
 215   0.0000       1.256384        34.1880 
 216   0.0000       1.266458        34.4621 
 217   0.0000       1.273946        34.6658 
 218   0.0000       1.275466        34.7072 
 219   0.0000       1.277698        34.7679 
 220   0.0000       1.288126        35.0517 
 221   0.0000       1.314142        35.7596 
 222   0.0000       1.321253        35.9531 
 223   0.0000       1.334468        36.3127 
 224   0.0000       1.341494        36.5039 
 225   0.0000       1.343165        36.5494 
 226   0.0000       1.344090        36.5745 
 227   0.0000       1.354427        36.8558 
 228   0.0000       1.357927        36.9511 
 229   0.0000       1.362799        37.0837 
 230   0.0000       1.367653        37.2157 
 231   0.0000       1.395836        37.9826 
 232   0.0000       1.397408        38.0254 
 233   0.0000       1.447125        39.3783 
 234   0.0000       1.457594        39.6632 
 235   0.0000       1.469920        39.9986 
 236   0.0000       1.495902        40.7056 
 237   0.0000       1.534519        41.7564 
 238   0.0000       1.565991        42.6128 
 239   0.0000       1.600695        43.5571 
 240   0.0000       1.605518        43.6884 
 241   0.0000       1.618043        44.0292 
 242   0.0000       1.623606        44.1806 
 243   0.0000       1.635299        44.4987 
 244   0.0000       1.637818        44.5673 
 245   0.0000       1.647828        44.8397 
 246   0.0000       1.649410        44.8827 
 247   0.0000       1.657863        45.1128 
 248   0.0000       1.658387        45.1270 
 249   0.0000       1.668642        45.4060 
 250   0.0000       1.672785        45.5188 
 251   0.0000       1.684405        45.8350 
 252   0.0000       1.696620        46.1674 
 253   0.0000       1.724716        46.9319 
 254   0.0000       1.735021        47.2123 
 255   0.0000       1.763646        47.9913 
 256   0.0000       1.767431        48.0942 
 257   0.0000       1.770472        48.1770 
 258   0.0000       1.797389        48.9094 
 259   0.0000       1.808910        49.2229 
 260   0.0000       1.812563        49.3224 
 261   0.0000       1.813769        49.3552 
 262   0.0000       1.816773        49.4369 
 263   0.0000       1.818291        49.4782 
 264   0.0000       1.823416        49.6177 
 265   0.0000       1.844927        50.2030 
 266   0.0000       1.851574        50.3839 
 267   0.0000       1.862162        50.6720 
 268   0.0000       1.864898        50.7465 
 269   0.0000       1.869839        50.8809 
 270   0.0000       1.873570        50.9824 
 271   0.0000       1.883197        51.2444 
 272   0.0000       1.901803        51.7507 
 273   0.0000       1.903509        51.7971 
 274   0.0000       1.906771        51.8859 
 275   0.0000       1.906902        51.8894 
 276   0.0000       1.919444        52.2307 
 277   0.0000       1.920188        52.2510 
 278   0.0000       1.926794        52.4307 
 279   0.0000       1.929559        52.5060 
 280   0.0000       1.932799        52.5941 
 281   0.0000       1.937107        52.7114 
 282   0.0000       1.937471        52.7213 
 283   0.0000       1.959023        53.3077 
 284   0.0000       1.963367        53.4259 
 285   0.0000       1.987967        54.0953 
 286   0.0000       2.001868        54.4736 
 287   0.0000       2.006872        54.6098 
 288   0.0000       2.016758        54.8788 
 289   0.0000       2.020139        54.9708 
 290   0.0000       2.028791        55.2062 
 291   0.0000       2.036858        55.4257 
 292   0.0000       2.045840        55.6701 
 293   0.0000       2.049045        55.7573 
 294   0.0000       2.062315        56.1184 
 295   0.0000       2.063634        56.1543 
 296   0.0000       2.078935        56.5707 
 297   0.0000       2.085975        56.7623 
 298   0.0000       2.101603        57.1875 
 299   0.0000       2.106595        57.3234 
 300   0.0000       2.129007        57.9332 
 301   0.0000       2.140151        58.2365 
 302   0.0000       2.140464        58.2450 
 303   0.0000       2.153424        58.5977 
 304   0.0000       2.157903        58.7195 
 305   0.0000       2.163002        58.8583 
 306   0.0000       2.173461        59.1429 
 307   0.0000       2.182436        59.3871 
 308   0.0000       2.204675        59.9923 
 309   0.0000       2.208002        60.0828 
 310   0.0000       2.213828        60.2413 
 311   0.0000       2.214817        60.2682 
 312   0.0000       2.233322        60.7718 
 313   0.0000       2.240380        60.9638 
 314   0.0000       2.252626        61.2971 
 315   0.0000       2.257712        61.4355 
 316   0.0000       2.265510        61.6477 
 317   0.0000       2.317339        63.0580 
 318   0.0000       2.318625        63.0930 
 319   0.0000       2.341538        63.7165 
 320   0.0000       2.353830        64.0510 
 321   0.0000       2.356156        64.1143 
 322   0.0000       2.357638        64.1546 
 323   0.0000       2.369111        64.4668 
 324   0.0000       2.385556        64.9143 
 325   0.0000       2.394621        65.1610 
 326   0.0000       2.395040        65.1723 
 327   0.0000       2.399156        65.2844 
 328   0.0000       2.400618        65.3241 
 329   0.0000       2.411719        65.6262 
 330   0.0000       2.422694        65.9249 
 331   0.0000       2.441725        66.4427 
 332   0.0000       2.481740        67.5316 
 333   0.0000       2.519839        68.5683 
 334   0.0000       2.536520        69.0222 
 335   0.0000       2.537045        69.0365 
 336   0.0000       2.538268        69.0698 
 337   0.0000       2.541674        69.1625 
 338   0.0000       2.554752        69.5183 
 339   0.0000       2.556417        69.5637 
 340   0.0000       2.558876        69.6306 
 341   0.0000       2.569982        69.9328 
 342   0.0000       2.584531        70.3287 
 343   0.0000       2.607530        70.9545 
 344   0.0000       2.639663        71.8289 
 345   0.0000       2.644398        71.9577 
 346   0.0000       2.664955        72.5171 
 347   0.0000       2.667039        72.5738 
 348   0.0000       2.683252        73.0150 
 349   0.0000       2.691395        73.2366 
 350   0.0000       2.703733        73.5723 
 351   0.0000       2.707148        73.6652 
 352   0.0000       2.727871        74.2291 
 353   0.0000       2.733422        74.3802 
 354   0.0000       2.736963        74.4766 
 355   0.0000       2.764462        75.2248 
 356   0.0000       2.789945        75.9183 
 357   0.0000       2.796967        76.1093 
 358   0.0000       2.828921        76.9788 
 359   0.0000       2.839396        77.2639 
 360   0.0000       2.846478        77.4566 
 361   0.0000       2.860535        77.8391 
 362   0.0000       2.865574        77.9762 
 363   0.0000       2.866097        77.9905 
 364   0.0000       2.899119        78.8890 
 365   0.0000       2.943852        80.1063 
 366   0.0000       2.956897        80.4613 
 367   0.0000       2.964865        80.6781 
 368   0.0000       2.975594        80.9700 
 369   0.0000       3.002926        81.7138 
 370   0.0000       3.006021        81.7980 
 371   0.0000       3.044289        82.8393 
 372   0.0000       3.051947        83.0477 
 373   0.0000       3.054370        83.1136 
 374   0.0000       3.061711        83.3134 
 375   0.0000       3.063496        83.3620 
 376   0.0000       3.068439        83.4965 
 377   0.0000       3.078355        83.7663 
 378   0.0000       3.083788        83.9141 
 379   0.0000       3.086145        83.9783 
 380   0.0000       3.117329        84.8268 
 381   0.0000       3.140728        85.4636 
 382   0.0000       3.155513        85.8659 
 383   0.0000       3.172859        86.3379 
 384   0.0000       3.176909        86.4481 
 385   0.0000       3.194448        86.9253 
 386   0.0000       3.214764        87.4782 
 387   0.0000       3.373902        91.8085 
 388   0.0000       3.374416        91.8225 
 389   0.0000       3.402180        92.5780 
 390   0.0000       3.420968        93.0893 
 391   0.0000       3.609026        98.2066 
 392   0.0000       3.703741       100.7839 
 393   0.0000       3.719116       101.2023 

                    ********************************
                    * MULLIKEN POPULATION ANALYSIS *
                    ********************************

-----------------------
MULLIKEN ATOMIC CHARGES
-----------------------
   0 N :   -0.214013
   1 C :   -0.136785
   2 N :   -0.214017
   3 C :    0.045451
   4 C :    0.045452
   5 C :    0.046736
   6 C :    0.046734
   7 C :   -0.100710
   8 C :   -0.101013
   9 C :   -0.100719
  10 C :   -0.101012
  11 H :    0.071233
[...]
 10:     86.26   0.000011    0.05  0.000038  (-0.000057 -0.000335  0.006182)
 11:     95.23   0.000094    0.47  0.000307  ( 0.015147 -0.008800 -0.000047)
 12:    129.17   0.000262    1.33  0.000634  ( 0.000298  0.000680  0.025161)
 13:    135.00   0.000242    1.23  0.000560  (-0.003521 -0.023393  0.000899)
 14:    136.92   0.000933    4.71  0.002126  ( 0.000037  0.000248  0.046111)
 15:    150.70   0.000292    1.48  0.000605  (-0.021626 -0.011733 -0.000027)
 16:    152.95   0.000011    0.05  0.000022  ( 0.001824  0.000894 -0.004178)
 17:    198.04   0.002075   10.49  0.003270  (-0.056984 -0.004795 -0.000049)
 18:    209.29   0.000681    3.44  0.001015  ( 0.000013 -0.000052 -0.031860)
 19:    236.67   0.000005    0.03  0.000007  (-0.000039 -0.000195 -0.002675)
 20:    237.52   0.000024    0.12  0.000032  (-0.001635 -0.005382  0.000071)
 21:    283.76   0.000815    4.12  0.000896  (-0.029848  0.002319  0.000004)
 22:    308.13   0.003372   17.04  0.003415  (-0.004008 -0.058301  0.000040)
 23:    336.75   0.001844    9.32  0.001709  ( 0.000005 -0.000028 -0.041339)
 24:    358.41   0.000636    3.21  0.000554  ( 0.000006 -0.000037 -0.023529)
 25:    361.22   0.000487    2.46  0.000421  (-0.000029 -0.000003 -0.020516)
 26:    399.21   0.000689    3.48  0.000538  (-0.022837  0.004085  0.000004)
 27:    436.97   0.000031    0.15  0.000022  ( 0.004064 -0.002308  0.000014)
 28:    484.96   0.000134    0.68  0.000086  (-0.000970 -0.009232 -0.000000)
 29:    494.16   0.000000    0.00  0.000000  ( 0.000018  0.000010  0.000555)
 30:    537.14   0.000056    0.28  0.000033  (-0.001464  0.005524 -0.000038)
 31:    537.53   0.000000    0.00  0.000000  ( 0.000071 -0.000263 -0.000293)
 32:    543.36   0.000094    0.48  0.000054  ( 0.000243 -0.007344  0.000003)
 33:    547.07   0.000004    0.02  0.000002  ( 0.000009  0.000012 -0.001499)
 34:    579.31   0.000319    1.61  0.000172  ( 0.000001  0.000015  0.013107)
 35:    594.77   0.000046    0.23  0.000024  (-0.000012 -0.000006 -0.004894)
 36:    603.80   0.000031    0.15  0.000016  (-0.003704  0.001437  0.000004)
 37:    628.15   0.002078   10.50  0.001032  (-0.032082  0.001798  0.000003)
 38:    685.27   0.000021    0.11  0.000010  ( 0.000030 -0.000215  0.003113)
 39:    687.44   0.002693   13.61  0.001223  ( 0.003014 -0.034836  0.000029)
 40:    751.51   0.013837   69.93  0.005746  (-0.002996 -0.075743  0.000051)
 41:    768.45   0.000053    0.27  0.000022  (-0.000007 -0.000031  0.004645)
 42:    779.70   0.001109    5.61  0.000444  (-0.021057  0.000773 -0.000010)
 43:    786.79   0.000414    2.09  0.000164  (-0.000026  0.000007 -0.012808)
 44:    795.77   0.001456    7.36  0.000571  (-0.023723  0.002830  0.000029)
 45:    808.61   0.018831   95.16  0.007267  (-0.002083 -0.000465 -0.085222)
 46:    809.51   0.003603   18.21  0.001389  (-0.036336 -0.006700  0.004864)
 47:    885.76   0.000000    0.00  0.000000  ( 0.000018 -0.000041 -0.000276)
 48:    941.26   0.000642    3.25  0.000213  ( 0.001046 -0.014555  0.000021)
 49:    941.34   0.000226    1.14  0.000075  (-0.000612  0.008630  0.000119)
 50:    943.54   0.001429    7.22  0.000473  ( 0.000318 -0.021737  0.000400)
 51:    943.56   0.000066    0.33  0.000022  (-0.000007  0.001615  0.004369)
 52:    963.95   0.009030   45.63  0.002923  ( 0.054045 -0.001578 -0.000003)
 53:    973.20   0.000815    4.12  0.000261  ( 0.000003  0.000009  0.016162)
 54:   1006.62   0.002246   11.35  0.000696  (-0.026354  0.001323 -0.000012)
 55:   1007.00   0.000063    0.32  0.000020  ( 0.000082  0.000015  0.004428)
 56:   1035.36   0.000027    0.13  0.000008  ( 0.000268  0.002661 -0.000918)
 57:   1035.65   0.000379    1.92  0.000114  ( 0.000009 -0.000234 -0.010691)
 58:   1055.85   0.000783    3.96  0.000231  ( 0.002338 -0.005805  0.013862)
 59:   1055.91   0.001050    5.31  0.000310  (-0.001954  0.004737  0.016856)
 60:   1059.44   0.000222    1.12  0.000065  ( 0.007896  0.001616  0.000575)
 61:   1060.10   0.003577   18.08  0.001053  (-0.000151  0.000088  0.032449)
 62:   1061.97   0.000753    3.81  0.000221  (-0.002788  0.014615  0.000085)
 63:   1062.05   0.000035    0.18  0.000010  (-0.000571  0.002718 -0.001571)
 64:   1087.36   0.005657   28.59  0.001623  (-0.000001 -0.000055 -0.040292)
 65:   1097.15   0.000025    0.13  0.000007  ( 0.002607 -0.000651 -0.000051)
 66:   1100.83   0.000092    0.47  0.000026  (-0.000003 -0.000001 -0.005109)
 67:   1127.25   0.007544   38.12  0.002088  ( 0.045684 -0.001146 -0.000015)
 68:   1139.36   0.000217    1.10  0.000059  (-0.000015  0.000009  0.007708)
 69:   1173.59   0.000219    1.11  0.000058  (-0.000032  0.007602 -0.000706)
 70:   1173.59   0.000961    4.86  0.000256  (-0.000093  0.015985  0.000313)
 71:   1266.90   0.009310   47.05  0.002293  (-0.047849  0.001940  0.000001)
 72:   1279.04   0.000004    0.02  0.000001  (-0.000069 -0.000159 -0.000951)
 73:   1279.18   0.000209    1.05  0.000051  ( 0.003176  0.006386 -0.000027)
 74:   1296.85   0.000020    0.10  0.000005  (-0.000004 -0.000003  0.002182)
 75:   1302.14   0.001263    6.39  0.000303  (-0.017393  0.000541  0.000011)
 76:   1330.35   0.002765   13.97  0.000649  (-0.006993 -0.024487 -0.000022)
 77:   1330.39   0.000013    0.06  0.000003  (-0.000444 -0.001530  0.000661)
 78:   1337.01   0.002342   11.84  0.000547  ( 0.021763 -0.008545 -0.000001)
 79:   1380.01   0.001094    5.53  0.000247  (-0.000004 -0.000002 -0.015726)
 80:   1391.55   0.000051    0.26  0.000011  ( 0.000112  0.000049 -0.003366)
 81:   1392.07   0.000145    0.73  0.000032  ( 0.004945  0.002833  0.000057)
 82:   1396.36   0.000012    0.06  0.000003  (-0.000031  0.000010 -0.001644)
 83:   1399.86   0.001936    9.78  0.000432  (-0.020478  0.003489 -0.000031)
 84:   1418.81   0.000509    2.57  0.000112  (-0.000041  0.000002  0.010577)
 85:   1433.17   0.006946   35.10  0.001512  ( 0.038719  0.003639 -0.000097)
 86:   1442.07   0.003508   17.73  0.000759  ( 0.000402 -0.000104  0.027551)
 87:   1444.47   0.005841   29.52  0.001262  (-0.032674  0.013936  0.000123)
 88:   1445.62   0.006485   32.77  0.001400  (-0.000201 -0.000068  0.037414)
 89:   1445.74   0.000262    1.32  0.000057  ( 0.001326  0.007373  0.000689)
 90:   1450.31   0.001138    5.75  0.000245  (-0.000194 -0.000598  0.015635)
 91:   1450.84   0.002546   12.87  0.000548  ( 0.011782  0.020213  0.000468)
 92:   1455.94   0.000047    0.24  0.000010  ( 0.000061  0.000093  0.003183)
 93:   1470.94   0.002292   11.58  0.000486  ( 0.022052 -0.000110 -0.000009)
 94:   1533.34   0.000053    0.27  0.000011  ( 0.000009  0.000154 -0.003293)
 95:   1533.53   0.010541   53.27  0.002145  (-0.001274 -0.046297  0.000030)
 96:   1554.99   0.058414  295.20  0.011723  (-0.108172  0.004667  0.000025)
 97:   1561.39   0.002341   11.83  0.000468  (-0.000019 -0.000015 -0.021632)
 98:   1651.70   0.000343    1.73  0.000065  ( 0.000002  0.000009  0.008050)
 99:   1698.07   0.000082    0.42  0.000015  ( 0.003873  0.000304  0.000003)
100:   1699.77   0.000022    0.11  0.000004  (-0.000001  0.000030 -0.001992)
101:   1702.97   0.000039    0.20  0.000007  ( 0.000005 -0.000038 -0.002680)
102:   1703.41   0.005137   25.96  0.000941  ( 0.000045 -0.030677  0.000030)
103:   3065.75   0.012442   62.87  0.001266  ( 0.002855  0.035472  0.000197)
104:   3066.19   0.000605    3.06  0.000062  ( 0.000159 -0.001149  0.007764)
105:   3066.58   0.000002    0.01  0.000000  (-0.000202  0.000273  0.000300)
106:   3067.02   0.003691   18.65  0.000376  (-0.018568  0.005546  0.000098)
107:   3154.23   0.003134   15.84  0.000310  (-0.002043 -0.000131  0.017489)
108:   3154.28   0.001360    6.88  0.000135  (-0.003174 -0.000250 -0.011156)
109:   3155.55   0.000497    2.51  0.000049  ( 0.004983  0.003795  0.003157)
110:   3155.58   0.001099    5.55  0.000109  (-0.001514 -0.001143  0.010251)
111:   3185.07   0.005599   28.30  0.000549  (-0.014208 -0.018618 -0.000359)
112:   3185.14   0.000479    2.42  0.000047  (-0.000781 -0.001081  0.006722)
113:   3185.78   0.005504   27.81  0.000539  ( 0.018870 -0.013460  0.001379)
114:   3185.81   0.000744    3.76  0.000073  (-0.005955  0.004309  0.004336)
115:   3206.35   0.000001    0.00  0.000000  ( 0.000227  0.000060  0.000001)
116:   3206.37   0.000000    0.00  0.000000  ( 0.000003 -0.000002 -0.000150)
117:   3213.41   0.002495   12.61  0.000242  ( 0.000325  0.015513  0.001227)
118:   3213.41   0.003308   16.72  0.000321  ( 0.000371  0.017885 -0.001093)
119:   3227.58   0.005531   27.95  0.000535  ( 0.023096 -0.001142 -0.000178)
120:   3227.60   0.000506    2.56  0.000049  ( 0.000578 -0.000024  0.006974)
121:   3285.48   0.003137   15.85  0.000298  ( 0.017252 -0.000545 -0.000007)
122:   3306.75   0.000678    3.43  0.000064  (-0.000002  0.000008  0.008001)

* The epsilon (eps) is given for a Dirac delta lineshape.
** The dipole moment derivative (T) already includes vibrational overlap.

The first frequency considered to be a vibration is 6
The total number of vibrations considered is 117


--------------------------
THERMOCHEMISTRY AT 298.15K
--------------------------

Temperature         ... 298.15 K
Pressure            ... 1.00 atm
Total Mass          ... 276.38 AMU

Throughout the following assumptions are being made:
  (1) The electronic state is orbitally nondegenerate
  (2) There are no thermally accessible electronically excited states
  (3) Hindered rotations indicated by low frequency modes are not
      treated as such but are treated as vibrations and this may
      cause some error
  (4) All equations used are the standard statistical mechanics
      equations for an ideal gas
  (5) All vibrations are strictly harmonic

freq.      19.64  E(vib)   ...       0.56 
freq.      20.22  E(vib)   ...       0.56 
freq.      56.68  E(vib)   ...       0.52 
freq.      58.09  E(vib)   ...       0.51 
freq.      86.26  E(vib)   ...       0.48 
freq.      95.23  E(vib)   ...       0.47 
freq.     129.17  E(vib)   ...       0.43 
freq.     135.00  E(vib)   ...       0.42 
freq.     136.92  E(vib)   ...       0.42 
freq.     150.70  E(vib)   ...       0.40 
freq.     152.95  E(vib)   ...       0.40 
freq.     198.04  E(vib)   ...       0.35 
freq.     209.29  E(vib)   ...       0.34 
freq.     236.67  E(vib)   ...       0.32 
freq.     237.52  E(vib)   ...       0.32 
freq.     283.76  E(vib)   ...       0.28 
freq.     308.13  E(vib)   ...       0.26 
freq.     336.75  E(vib)   ...       0.24 
freq.     358.41  E(vib)   ...       0.22 
freq.     361.22  E(vib)   ...       0.22 
freq.     399.21  E(vib)   ...       0.19 
freq.     436.97  E(vib)   ...       0.17 
freq.     484.96  E(vib)   ...       0.15 
freq.     494.16  E(vib)   ...       0.14 
freq.     537.14  E(vib)   ...       0.12 
freq.     537.53  E(vib)   ...       0.12 
freq.     543.36  E(vib)   ...       0.12 
freq.     547.07  E(vib)   ...       0.12 
freq.     579.31  E(vib)   ...       0.11 
freq.     594.77  E(vib)   ...       0.10 
freq.     603.80  E(vib)   ...       0.10 
freq.     628.15  E(vib)   ...       0.09 
freq.     685.27  E(vib)   ...       0.07 
freq.     687.44  E(vib)   ...       0.07 
freq.     751.51  E(vib)   ...       0.06 
freq.     768.45  E(vib)   ...       0.06 
freq.     779.70  E(vib)   ...       0.05 
freq.     786.79  E(vib)   ...       0.05 
freq.     795.77  E(vib)   ...       0.05 
freq.     808.61  E(vib)   ...       0.05 
freq.     809.51  E(vib)   ...       0.05 
freq.     885.76  E(vib)   ...       0.04 
freq.     941.26  E(vib)   ...       0.03 
freq.     941.34  E(vib)   ...       0.03 
freq.     943.54  E(vib)   ...       0.03 
freq.     943.56  E(vib)   ...       0.03 
freq.     963.95  E(vib)   ...       0.03 
freq.     973.20  E(vib)   ...       0.03 
freq.    1006.62  E(vib)   ...       0.02 
freq.    1007.00  E(vib)   ...       0.02 
freq.    1035.36  E(vib)   ...       0.02 
freq.    1035.65  E(vib)   ...       0.02 
freq.    1055.85  E(vib)   ...       0.02 
freq.    1055.91  E(vib)   ...       0.02 
freq.    1059.44  E(vib)   ...       0.02 
freq.    1060.10  E(vib)   ...       0.02 
freq.    1061.97  E(vib)   ...       0.02 
freq.    1062.05  E(vib)   ...       0.02 
freq.    1087.36  E(vib)   ...       0.02 
freq.    1097.15  E(vib)   ...       0.02 
freq.    1100.83  E(vib)   ...       0.02 
freq.    1127.25  E(vib)   ...       0.01 
freq.    1139.36  E(vib)   ...       0.01 
freq.    1173.59  E(vib)   ...       0.01 
freq.    1173.59  E(vib)   ...       0.01 
freq.    1266.90  E(vib)   ...       0.01 
freq.    1279.04  E(vib)   ...       0.01 
freq.    1279.18  E(vib)   ...       0.01 
freq.    1296.85  E(vib)   ...       0.01 
freq.    1302.14  E(vib)   ...       0.01 
freq.    1330.35  E(vib)   ...       0.01 
freq.    1330.39  E(vib)   ...       0.01 
freq.    1337.01  E(vib)   ...       0.01 
freq.    1380.01  E(vib)   ...       0.01 
freq.    1391.55  E(vib)   ...       0.00 
freq.    1392.07  E(vib)   ...       0.00 
freq.    1396.36  E(vib)   ...       0.00 
freq.    1399.86  E(vib)   ...       0.00 
freq.    1418.81  E(vib)   ...       0.00 
freq.    1433.17  E(vib)   ...       0.00 
freq.    1442.07  E(vib)   ...       0.00 
freq.    1444.47  E(vib)   ...       0.00 
freq.    1445.62  E(vib)   ...       0.00 
freq.    1445.74  E(vib)   ...       0.00 
freq.    1450.31  E(vib)   ...       0.00 
freq.    1450.84  E(vib)   ...       0.00 
freq.    1455.94  E(vib)   ...       0.00 
freq.    1470.94  E(vib)   ...       0.00 
freq.    1533.34  E(vib)   ...       0.00 
freq.    1533.53  E(vib)   ...       0.00 
freq.    1554.99  E(vib)   ...       0.00 
freq.    1561.39  E(vib)   ...       0.00 
freq.    1651.70  E(vib)   ...       0.00 
freq.    1698.07  E(vib)   ...       0.00 
freq.    1699.77  E(vib)   ...       0.00 
freq.    1702.97  E(vib)   ...       0.00 
freq.    1703.41  E(vib)   ...       0.00 
freq.    3065.75  E(vib)   ...       0.00 
freq.    3066.19  E(vib)   ...       0.00 
freq.    3066.58  E(vib)   ...       0.00 
freq.    3067.02  E(vib)   ...       0.00 
freq.    3154.23  E(vib)   ...       0.00 
freq.    3154.28  E(vib)   ...       0.00 
freq.    3155.55  E(vib)   ...       0.00 
freq.    3155.58  E(vib)   ...       0.00 
freq.    3185.07  E(vib)   ...       0.00 
freq.    3185.14  E(vib)   ...       0.00 
freq.    3185.78  E(vib)   ...       0.00 
freq.    3185.81  E(vib)   ...       0.00 
freq.    3206.35  E(vib)   ...       0.00 
freq.    3206.37  E(vib)   ...       0.00 
freq.    3213.41  E(vib)   ...       0.00 
freq.    3213.41  E(vib)   ...       0.00 
freq.    3227.58  E(vib)   ...       0.00 
freq.    3227.60  E(vib)   ...       0.00 
freq.    3285.48  E(vib)   ...       0.00 
freq.    3306.75  E(vib)   ...       0.00 

------------
INNER ENERGY
------------

The inner energy is: U= E(el) + E(ZPE) + E(vib) + E(rot) + E(trans)
    E(el)   - is the total energy from the electronic structure calculation
              = E(kin-el) + E(nuc-el) + E(el-el) + E(nuc-nuc)
    E(ZPE)  - the the zero temperature vibrational energy from the frequency calculation
    E(vib)  - the the finite temperature correction to E(ZPE) due to population
              of excited vibrational states
    E(rot)  - is the rotational thermal energy
    E(trans)- is the translational thermal energy

Summary of contributions to the inner energy U:
Electronic energy                ...   -844.74956406 Eh
Zero point energy                ...      0.34572215 Eh     216.94 kcal/mol
Thermal vibrational correction   ...      0.01658227 Eh      10.41 kcal/mol
Thermal rotational correction    ...      0.00141627 Eh       0.89 kcal/mol
Thermal translational correction ...      0.00141627 Eh       0.89 kcal/mol
-----------------------------------------------------------------------
Total thermal energy                   -844.38442710 Eh


Summary of corrections to the electronic energy:
(perhaps to be used in another calculation)
Total thermal correction                  0.01941481 Eh      12.18 kcal/mol
Non-thermal (ZPE) correction              0.34572215 Eh     216.94 kcal/mol
-----------------------------------------------------------------------
Total correction                          0.36513696 Eh     229.13 kcal/mol


--------
ENTHALPY
--------

The enthalpy is H = U + kB*T
                kB is Boltzmann's constant
Total free energy                 ...   -844.38442710 Eh 
Thermal Enthalpy correction       ...      0.00094421 Eh       0.59 kcal/mol
-----------------------------------------------------------------------
Total Enthalpy                    ...   -844.38348289 Eh


Note: Only C1 symmetry has been detected, increase convergence thresholds 
      if your molecule has a higher symmetry. Symmetry factor of 1.0 is   
      used for the rotational entropy correction. 
 

Note: Rotational entropy computed according to Herzberg 
Infrared and Raman Spectra, Chapter V,1, Van Nostrand Reinhold, 1945 
Point Group:  C1, Symmetry Number:   1  
Rotational constants in cm-1:     0.023565     0.005960     0.005195 

Vibrational entropy computed according to the QRRHO of S. Grimme
Chem.Eur.J. 2012 18 9955


-------
ENTROPY
-------

The entropy contributions are T*S = T*(S(el)+S(vib)+S(rot)+S(trans))
     S(el)   - electronic entropy
     S(vib)  - vibrational entropy
     S(rot)  - rotational entropy
     S(trans)- translational entropy
The entropies will be listed as multiplied by the temperature to get
units of energy

Electronic entropy                ...      0.00000000 Eh      0.00 kcal/mol
Vibrational entropy               ...      0.02959239 Eh     18.57 kcal/mol
Rotational entropy                ...      0.01618181 Eh     10.15 kcal/mol
Translational entropy             ...      0.02031105 Eh     12.75 kcal/mol
-----------------------------------------------------------------------
Final entropy term                ...      0.06608525 Eh     41.47 kcal/mol

In case the symmetry of your molecule has not been determined correctly
or in case you have a reason to use a different symmetry number we print 
out the resulting rotational entropy values for sn=1,12 :
 --------------------------------------------------------
|  sn= 1 | S(rot)=       0.01618181 Eh     10.15 kcal/mol|
|  sn= 2 | S(rot)=       0.01552735 Eh      9.74 kcal/mol|
|  sn= 3 | S(rot)=       0.01514452 Eh      9.50 kcal/mol|
|  sn= 4 | S(rot)=       0.01487290 Eh      9.33 kcal/mol|
|  sn= 5 | S(rot)=       0.01466221 Eh      9.20 kcal/mol|
|  sn= 6 | S(rot)=       0.01449006 Eh      9.09 kcal/mol|
|  sn= 7 | S(rot)=       0.01434452 Eh      9.00 kcal/mol|
|  sn= 8 | S(rot)=       0.01421844 Eh      8.92 kcal/mol|
|  sn= 9 | S(rot)=       0.01410723 Eh      8.85 kcal/mol|
|  sn=10 | S(rot)=       0.01400775 Eh      8.79 kcal/mol|
|  sn=11 | S(rot)=       0.01391776 Eh      8.73 kcal/mol|
|  sn=12 | S(rot)=       0.01383561 Eh      8.68 kcal/mol|
 --------------------------------------------------------


-------------------
GIBBS FREE ENERGY
-------------------

The Gibbs free energy is G = H - T*S

Total enthalpy                    ...   -844.38348289 Eh 
Total entropy correction          ...     -0.06608525 Eh    -41.47 kcal/mol
-----------------------------------------------------------------------
Final Gibbs free energy         ...   -844.44956813 Eh

For completeness - the Gibbs free energy minus the electronic energy
G-E(el)                           ...      0.29999593 Eh    188.25 kcal/mol


Timings for individual modules:

Sum of individual times         ...     7370.267 sec (= 122.838 min)
GTO integral calculation        ...        1.232 sec (=   0.021 min)   0.0 %
SCF iterations                  ...     1847.267 sec (=  30.788 min)  25.1 %
SCF Gradient evaluation         ...      250.566 sec (=   4.176 min)   3.4 %
Geometry relaxation             ...        0.179 sec (=   0.003 min)   0.0 %
Analytical frequency calculation...     5271.024 sec (=  87.850 min)  71.5 %
                             ****ORCA TERMINATED NORMALLY****
TOTAL RUN TIME: 0 days 2 hours 2 minutes 51 seconds 429 msec
