
                                 *****************
                                 * O   R   C   A *
                                 *****************

                                            #,                                       
                                            ###                                      
                                            ####                                     
                                            #####                                    
                                            ######                                   
                                           ########,                                 
                                     ,,################,,,,,                         
                               ,,#################################,,                 
                          ,,##########################################,,             
                       ,#########################################, ''#####,          
                    ,#############################################,,   '####,        
                  ,##################################################,,,,####,       
                ,###########''''           ''''###############################       
              ,#####''   ,,,,##########,,,,          '''####'''          '####       
            ,##' ,,,,###########################,,,                        '##       
           ' ,,###''''                  '''############,,,                           
         ,,##''                                '''############,,,,        ,,,,,,###''
      ,#''                                            '''#######################'''  
     '                                                          ''''####''''         
             ,#######,   #######,   ,#######,      ##                                
            ,#'     '#,  ##    ##  ,#'     '#,    #''#        ######   ,####,        
            ##       ##  ##   ,#'  ##            #'  '#       #        #'  '#        
            ##       ##  #######   ##           ,######,      #####,   #    #        
            '#,     ,#'  ##    ##  '#,     ,#' ,#      #,         ##   #,  ,#        
             '#######'   ##     ##  '#######'  #'      '#     #####' # '####'        



                  #######################################################
                  #                        -***-                        #
                  #          Department of theory and spectroscopy      #
                  #    Directorship and core code : Frank Neese         #
                  #        Max Planck Institute fuer Kohlenforschung    #
                  #                Kaiser Wilhelm Platz 1               #
                  #                 D-45470 Muelheim/Ruhr               #
                  #                      Germany                        #
                  #                                                     #
                  #                  All rights reserved                #
                  #                        -***-                        #
                  #######################################################


                         Program Version 5.0.4 -  RELEASE  -


 With contributions from (in alphabetic order):
   Daniel Aravena         : Magnetic Suceptibility
   Michael Atanasov       : Ab Initio Ligand Field Theory (pilot matlab implementation)
   Alexander A. Auer      : GIAO ZORA, VPT2 properties, NMR spectrum
   Ute Becker             : Parallelization
   Giovanni Bistoni       : ED, misc. LED, open-shell LED, HFLD
   Martin Brehm           : Molecular dynamics
   Dmytro Bykov           : SCF Hessian
   Vijay G. Chilkuri      : MRCI spin determinant printing, contributions to CSF-ICE
   Dipayan Datta          : RHF DLPNO-CCSD density
   Achintya Kumar Dutta   : EOM-CC, STEOM-CC
   Dmitry Ganyushin       : Spin-Orbit,Spin-Spin,Magnetic field MRCI
   Miquel Garcia          : C-PCM and meta-GGA Hessian, CC/C-PCM, Gaussian charge scheme
   Yang Guo               : DLPNO-NEVPT2, F12-NEVPT2, CIM, IAO-localization
   Andreas Hansen         : Spin unrestricted coupled pair/coupled cluster methods
   Benjamin Helmich-Paris : MC-RPA, TRAH-SCF, COSX integrals
   Lee Huntington         : MR-EOM, pCC
   Robert Izsak           : Overlap fitted RIJCOSX, COSX-SCS-MP3, EOM
   Marcus Kettner         : VPT2
   Christian Kollmar      : KDIIS, OOCD, Brueckner-CCSD(T), CCSD density, CASPT2, CASPT2-K
   Simone Kossmann        : Meta GGA functionals, TD-DFT gradient, OOMP2, MP2 Hessian
   Martin Krupicka        : Initial AUTO-CI
   Lucas Lang             : DCDCAS
   Marvin Lechner         : AUTO-CI (C++ implementation), FIC-MRCC
   Dagmar Lenk            : GEPOL surface, SMD
   Dimitrios Liakos       : Extrapolation schemes; Compound Job, initial MDCI parallelization
   Dimitrios Manganas     : Further ROCIS development; embedding schemes
   Dimitrios Pantazis     : SARC Basis sets
   Anastasios Papadopoulos: AUTO-CI, single reference methods and gradients
   Taras Petrenko         : DFT Hessian,TD-DFT gradient, ASA, ECA, R-Raman, ABS, FL, XAS/XES, NRVS
   Peter Pinski           : DLPNO-MP2, DLPNO-MP2 Gradient
   Christoph Reimann      : Effective Core Potentials
   Marius Retegan         : Local ZFS, SOC
   Christoph Riplinger    : Optimizer, TS searches, QM/MM, DLPNO-CCSD(T), (RO)-DLPNO pert. Triples
   Tobias Risthaus        : Range-separated hybrids, TD-DFT gradient, RPA, STAB
   Michael Roemelt        : Original ROCIS implementation
   Masaaki Saitow         : Open-shell DLPNO-CCSD energy and density
   Barbara Sandhoefer     : DKH picture change effects
   Avijit Sen             : IP-ROCIS
   Kantharuban Sivalingam : CASSCF convergence, NEVPT2, FIC-MRCI
   Bernardo de Souza      : ESD, SOC TD-DFT
   Georgi Stoychev        : AutoAux, RI-MP2 NMR, DLPNO-MP2 response
   Willem Van den Heuvel  : Paramagnetic NMR
   Boris Wezisla          : Elementary symmetry handling
   Frank Wennmohs         : Technical directorship


 We gratefully acknowledge several colleagues who have allowed us to
 interface, adapt or use parts of their codes:
   Stefan Grimme, W. Hujo, H. Kruse, P. Pracht,  : VdW corrections, initial TS optimization,
                  C. Bannwarth, S. Ehlert          DFT functionals, gCP, sTDA/sTD-DF
   Ed Valeev, F. Pavosevic, A. Kumar             : LibInt (2-el integral package), F12 methods
   Garnet Chan, S. Sharma, J. Yang, R. Olivares  : DMRG
   Ulf Ekstrom                                   : XCFun DFT Library
   Mihaly Kallay                                 : mrcc  (arbitrary order and MRCC methods)
   Jiri Pittner, Ondrej Demel                    : Mk-CCSD
   Frank Weinhold                                : gennbo (NPA and NBO analysis)
   Christopher J. Cramer and Donald G. Truhlar   : smd solvation model
   Lars Goerigk                                  : TD-DFT with DH, B97 family of functionals
   V. Asgeirsson, H. Jonsson                     : NEB implementation
   FAccTs GmbH                                   : IRC, NEB, NEB-TS, DLPNO-Multilevel, CI-OPT
                                                   MM, QMMM, 2- and 3-layer-ONIOM, Crystal-QMMM,
                                                   LR-CPCM, SF, NACMEs, symmetry and pop. for TD-DFT,
                                                   nearIR, NL-DFT gradient (VV10), updates on ESD,
                                                   ML-optimized integration grids
   S Lehtola, MJT Oliveira, MAL Marques          : LibXC Library
   Liviu Ungur et al                             : ANISO software


 Your calculation uses the libint2 library for the computation of 2-el integrals
 For citations please refer to: http://libint.valeyev.net

 Your ORCA version has been built with support for libXC version: 5.1.0
 For citations please refer to: https://tddft.org/programs/libxc/

 This ORCA versions uses:
   CBLAS   interface :  Fast vector & matrix operations
   LAPACKE interface :  Fast linear algebra routines
   SCALAPACK package :  Parallel linear algebra routines
   Shared memory     :  Shared parallel matrices
   BLAS/LAPACK       :  OpenBLAS 0.3.15  USE64BITINT DYNAMIC_ARCH NO_AFFINITY SkylakeX SINGLE_THREADED
        Core in use  :  SkylakeX
   Copyright (c) 2011-2014, The OpenBLAS Project




***************************************
The coordinates will be read from file: 8_prot_aq_4.xyz
***************************************


Your calculation utilizes the atom-pairwise dispersion correction
based on tight binding partial charges (D4)
Cite in your paper:
E.Caldeweyher, C.Bannwarth, S.Grimme, J.Chem.Phys., (2017), 147, 034112.
E.Caldeweyher, S.Ehlert, A.Hansen, H.Neugebauer, S.Grimme, J.Chem.Phys., (2018), in progress.
   

XCFun DFT library Copyright 2009-2010 Ulf Ekstrom and contributors.
See http://admol.org/xcfun for more information.
This is free software; see the source code for copying conditions.
There is ABSOLUTELY NO WARRANTY; not even for MERCHANTABILITY or FITNESS FOR A PARTICULAR PURPOSE.
For details see the documentation.
Scientific users of this library should cite U. Ekstrom, L. Visscher, R. Bast, A. J. Thorvaldsen and K. Ruud;
J.Chem.Theor.Comp. 2010, DOI: 10.1021/ct100117s
XCFun Version 0.99 

================================================================================

----- Orbital basis set information -----
Your calculation utilizes the basis: def2-SVP
   F. Weigend and R. Ahlrichs, Phys. Chem. Chem. Phys. 7, 3297 (2005).

----- AuxJ basis set information -----
Your calculation utilizes the auxiliary basis: def2/J
   F. Weigend, Phys. Chem. Chem. Phys. 8, 1057 (2006).

================================================================================
                                        WARNINGS
                       Please study these warnings very carefully!
================================================================================

WARNING: Old DensityContainer found on disk!
         Will remove this file - 
         If you want to keep old densities, please start your calculation with a different basename. 


WARNING: Geometry Optimization
  ===> : Switching off AutoStart
         For restart on a previous wavefunction, please use MOREAD

INFO   : the flag for use of the SHARK integral package has been found!

================================================================================
                                       INPUT FILE
================================================================================
NAME = 8_prot_aq_4.inp
|  1> # ORCA 5.0.4 - /users/bwb16179/postgrad/2024_03/DFT_Crest_Conformers/Opt/prot/8_prot_aq_4.inp # write input file
|  2> # Basic Mode
|  3> #
|  4> ! Opt Freq wB97X Def2-SVP D4 SlowConv TightSCF Defgrid2 Def2/J RIJCOSX CPCM(Water)
|  5> 
|  6> 
|  7> 
|  8> %maxcore 4500
|  9> 
| 10> %geom
| 11> Maxiter 150
| 12> END
| 13> 
| 14> * xyzfile 1 1 8_prot_aq_4.xyz
| 15> 
| 16>                          ****END OF INPUT****
================================================================================

                       *****************************
                       * Geometry Optimization Run *
                       *****************************

Geometry optimization settings:
Update method            Update   .... BFGS
Choice of coordinates    CoordSys .... Z-matrix Internals
Initial Hessian          InHess   .... Almoef's Model

Convergence Tolerances:
Energy Change            TolE     ....  5.0000e-06 Eh
Max. Gradient            TolMAXG  ....  3.0000e-04 Eh/bohr
RMS Gradient             TolRMSG  ....  1.0000e-04 Eh/bohr
Max. Displacement        TolMAXD  ....  4.0000e-03 bohr
RMS Displacement         TolRMSD  ....  2.0000e-03 bohr
Strict Convergence                ....  False
------------------------------------------------------------------------------
                        ORCA OPTIMIZATION COORDINATE SETUP
------------------------------------------------------------------------------

The optimization will be done in new redundant internal coordinates
Making redundant internal coordinates   ...  (new redundants) done
Evaluating the initial hessian          ...  (Almloef) done
Evaluating the coordinates              ...  done
Calculating the B-matrix                .... done
Calculating the G-matrix                .... done
Diagonalizing the G-matrix              .... done
Small eigenvalue found = 3.543e-03
Small eigenvalue found = 5.992e-03
Small eigenvalue found = 8.220e-03
Small eigenvalue found = 1.338e-02
Small eigenvalue found = 1.797e-02
The first mode is                       ....   99
The number of degrees of freedom        ....  120

    -----------------------------------------------------------------
                    Redundant Internal Coordinates


    -----------------------------------------------------------------
         Definition                    Initial Value    Approx d2E/dq
    -----------------------------------------------------------------
      1. B(C   1,N   0)                  1.3312         0.694435   
      2. B(N   2,C   1)                  1.3312         0.694440   
      3. B(H   3,C   1)                  1.0910         0.358799   
      4. B(C   4,N   2)                  1.3827         0.574780   
      5. B(C   5,N   0)                  1.3827         0.574774   
      6. B(C   5,C   4)                  1.3593         0.699509   
      7. B(C   6,N   0)                  1.4428         0.460873   
      8. B(C   7,N   2)                  1.4428         0.460880   
      9. B(C   8,C   6)                  1.4011         0.599939   
     10. B(C   9,C   6)                  1.4012         0.599613   
     11. B(C  10,C   7)                  1.4012         0.599625   
     12. B(C  11,C   7)                  1.4011         0.599940   
     13. B(H  12,C   4)                  1.0883         0.362351   
     14. B(H  13,C   5)                  1.0883         0.362350   
     15. B(C  14,C   8)                  1.3980         0.606791   
     16. B(C  15,C   8)                  1.5060         0.408038   
     17. B(C  16,C   9)                  1.3976         0.607491   
     18. B(C  17,C  10)                  1.3976         0.607492   
     19. B(C  18,C  17)                  1.3933         0.617203   
     20. B(C  19,C  18)                  1.3931         0.617701   
     21. B(C  19,C  11)                  1.3980         0.606794   
     22. B(C  20,C  16)                  1.3933         0.617205   
     23. B(C  20,C  14)                  1.3931         0.617716   
     24. B(H  21,C  16)                  1.0937         0.355208   
     25. B(C  22,C  11)                  1.5060         0.408033   
     26. B(C  23,C  10)                  1.5057         0.408508   
     27. B(H  24,C  17)                  1.0937         0.355208   
     28. B(H  25,C  18)                  1.0936         0.355403   
     29. B(H  26,C  19)                  1.0938         0.355166   
     30. B(H  27,C  20)                  1.0936         0.355403   
     31. B(H  28,C  14)                  1.0938         0.355166   
     32. B(C  29,C   9)                  1.5057         0.408501   
     33. B(H  30,C  15)                  1.1013         0.345417   
     34. B(H  31,C  15)                  1.1024         0.344040   
     35. B(H  32,C  15)                  1.0981         0.349571   
     36. B(H  33,C  29)                  1.1019         0.344742   
     37. B(H  34,C  29)                  1.0981         0.349605   
     38. B(H  35,C  29)                  1.1017         0.344990   
     39. B(H  36,C  23)                  1.1019         0.344742   
     40. B(H  37,C  23)                  1.0981         0.349606   
     41. B(H  38,C  23)                  1.1017         0.344988   
     42. B(H  39,C  22)                  1.1013         0.345413   
     43. B(H  40,C  22)                  1.1024         0.344039   
     44. B(H  41,C  22)                  1.0981         0.349572   
     45. A(C   5,N   0,C   6)          126.1007         0.400979   
     46. A(C   1,N   0,C   5)          108.8102         0.431314   
     47. A(C   1,N   0,C   6)          125.0886         0.414623   
     48. A(N   2,C   1,H   3)          125.6928         0.357321   
     49. A(N   0,C   1,N   2)          108.6149         0.446286   
     50. A(N   0,C   1,H   3)          125.6923         0.357321   
     51. A(C   1,N   2,C   7)          125.0893         0.414625   
     52. A(C   1,N   2,C   4)          108.8104         0.431316   
     53. A(C   4,N   2,C   7)          126.0998         0.400981   
     54. A(C   5,C   4,H  12)          131.3836         0.360598   
     55. A(N   2,C   4,H  12)          121.7342         0.346652   
     56. A(N   2,C   4,C   5)          106.8822         0.434724   
     57. A(C   4,C   5,H  13)          131.3834         0.360598   
     58. A(N   0,C   5,H  13)          121.7343         0.346651   
     59. A(N   0,C   5,C   4)          106.8822         0.434724   
     60. A(C   8,C   6,C   9)          123.8040         0.428924   
     61. A(N   0,C   6,C   9)          118.0913         0.406594   
     62. A(N   0,C   6,C   8)          118.1047         0.406633   
     63. A(N   2,C   7,C  10)          118.0922         0.406597   
     64. A(C  10,C   7,C  11)          123.8052         0.428926   
     65. A(N   2,C   7,C  11)          118.1025         0.406635   
     66. A(C   6,C   8,C  15)          121.4529         0.400563   
     67. A(C   6,C   8,C  14)          117.0302         0.429841   
     68. A(C  14,C   8,C  15)          121.5155         0.401365   
     69. A(C   6,C   9,C  29)          121.3575         0.400604   
     70. A(C   6,C   9,C  16)          117.0563         0.429888   
     71. A(C  16,C   9,C  29)          121.5861         0.401526   
     72. A(C   7,C  10,C  17)          117.0558         0.429890   
     73. A(C  17,C  10,C  23)          121.5872         0.401528   
     74. A(C   7,C  10,C  23)          121.3569         0.400607   
     75. A(C   7,C  11,C  19)          117.0299         0.429842   
     76. A(C   7,C  11,C  22)          121.4502         0.400562   
     77. A(C  19,C  11,C  22)          121.5185         0.401364   
     78. A(C   8,C  14,C  20)          120.7590         0.432101   
     79. A(C  20,C  14,H  28)          120.1664         0.351866   
     80. A(C   8,C  14,H  28)          119.0745         0.350807   
     81. A(H  31,C  15,H  32)          107.8282         0.287429   
     82. A(H  30,C  15,H  32)          108.3256         0.287608   
     83. A(H  30,C  15,H  31)          107.2755         0.286892   
     84. A(C   8,C  15,H  31)          111.1990         0.326600   
     85. A(C   8,C  15,H  30)          111.5805         0.326815   
     86. A(C   8,C  15,H  32)          110.4782         0.327459   
     87. A(C   9,C  16,H  21)          119.0350         0.350882   
     88. A(C  20,C  16,H  21)          120.2265         0.351824   
     89. A(C   9,C  16,C  20)          120.7385         0.432127   
     90. A(C  10,C  17,C  18)          120.7380         0.432127   
     91. A(C  18,C  17,H  24)          120.2266         0.351824   
     92. A(C  10,C  17,H  24)          119.0354         0.350882   
     93. A(C  17,C  18,C  19)          120.6130         0.433423   
     94. A(C  19,C  18,H  25)          119.6978         0.351905   
     95. A(C  17,C  18,H  25)          119.6892         0.351857   
     96. A(C  11,C  19,C  18)          120.7581         0.432100   
     97. A(C  18,C  19,H  26)          120.1661         0.351865   
     98. A(C  11,C  19,H  26)          119.0757         0.350807   
     99. A(C  16,C  20,H  27)          119.6899         0.351857   
    100. A(C  14,C  20,H  27)          119.6981         0.351906   
    101. A(C  14,C  20,C  16)          120.6120         0.433425   
    102. A(H  40,C  22,H  41)          107.8293         0.287429   
    103. A(C  11,C  22,H  40)          111.1989         0.326599   
    104. A(H  39,C  22,H  41)          108.3266         0.287608   
    105. A(C  11,C  22,H  41)          110.4795         0.327458   
    106. A(H  39,C  22,H  40)          107.2749         0.286892   
    107. A(C  11,C  22,H  39)          111.5778         0.326813   
    108. A(H  37,C  23,H  38)          108.2423         0.287557   
    109. A(H  36,C  23,H  38)          107.2576         0.286928   
    110. A(C  10,C  23,H  38)          111.4869         0.326810   
    111. A(H  36,C  23,H  37)          108.0233         0.287525   
    112. A(C  10,C  23,H  37)          110.5283         0.327526   
    113. A(C  10,C  23,H  36)          111.1546         0.326771   
    114. A(H  34,C  29,H  35)          108.2423         0.287557   
    115. A(H  33,C  29,H  35)          107.2580         0.286928   
    116. A(C   9,C  29,H  35)          111.4884         0.326809   
    117. A(H  33,C  29,H  34)          108.0213         0.287525   
    118. A(C   9,C  29,H  34)          110.5282         0.327525   
    119. A(C   9,C  29,H  33)          111.1547         0.326770   
    120. D(N   2,C   1,N   0,C   5)      0.0038         0.039843   
    121. D(N   2,C   1,N   0,C   6)   -179.7425         0.039843   
    122. D(H   3,C   1,N   0,C   6)      0.2559         0.039843   
    123. D(H   3,C   1,N   0,C   5)   -179.9977         0.039843   
    124. D(C   7,N   2,C   1,N   0)   -179.7360         0.039844   
    125. D(C   4,N   2,C   1,H   3)   -179.9947         0.039844   
    126. D(C   4,N   2,C   1,N   0)      0.0037         0.039844   
    127. D(C   7,N   2,C   1,H   3)      0.2655         0.039844   
    128. D(H  12,C   4,N   2,C   7)     -0.2116         0.026467   
    129. D(H  12,C   4,N   2,C   1)   -179.9481         0.026467   
    130. D(C   5,C   4,N   2,C   7)    179.7266         0.026467   
    131. D(C   5,C   4,N   2,C   1)     -0.0099         0.026467   
    132. D(H  13,C   5,N   0,C   1)   -179.9573         0.026467   
    133. D(H  13,C   5,C   4,N   2)    179.9523         0.034458   
    134. D(C   4,C   5,N   0,C   6)    179.7332         0.026467   
    135. D(C   4,C   5,N   0,C   1)     -0.0099         0.026467   
    136. D(N   0,C   5,C   4,H  12)    179.9418         0.034458   
    137. D(H  13,C   5,C   4,H  12)     -0.1178         0.034458   
    138. D(N   0,C   5,C   4,N   2)      0.0119         0.034458   
    139. D(H  13,C   5,N   0,C   6)     -0.2142         0.026467   
    140. D(C   9,C   6,N   0,C   5)     85.2564         0.016734   
    141. D(C   9,C   6,N   0,C   1)    -95.0408         0.016734   
    142. D(C   8,C   6,N   0,C   5)    -94.6729         0.016734   
    143. D(C   8,C   6,N   0,C   1)     85.0299         0.016734   
    144. D(C  11,C   7,N   2,C   4)    -94.6710         0.016734   
    145. D(C  10,C   7,N   2,C   4)     85.2589         0.016734   
    146. D(C  10,C   7,N   2,C   1)    -95.0459         0.016734   
    147. D(C  11,C   7,N   2,C   1)     85.0242         0.016734   
    148. D(C  15,C   8,C   6,N   0)     -0.4834         0.024812   
    149. D(C  14,C   8,C   6,C   9)      0.0216         0.024812   
    150. D(C  14,C   8,C   6,N   0)    179.9465         0.024812   
    151. D(C  15,C   8,C   6,C   9)    179.5917         0.024812   
    152. D(C  29,C   9,C   6,C   8)    179.8723         0.024784   
    153. D(C  29,C   9,C   6,N   0)     -0.0527         0.024784   
    154. D(C  16,C   9,C   6,C   8)     -0.0273         0.024784   
    155. D(C  16,C   9,C   6,N   0)   -179.9523         0.024784   
    156. D(C  23,C  10,C   7,C  11)    179.8767         0.024785   
    157. D(C  23,C  10,C   7,N   2)     -0.0489         0.024785   
    158. D(C  17,C  10,C   7,C  11)     -0.0236         0.024785   
    159. D(C  17,C  10,C   7,N   2)   -179.9492         0.024785   
    160. D(C  22,C  11,C   7,C  10)    179.5888         0.024812   
    161. D(C  22,C  11,C   7,N   2)     -0.4857         0.024812   
    162. D(C  19,C  11,C   7,C  10)      0.0194         0.024812   
    163. D(C  19,C  11,C   7,N   2)    179.9450         0.024812   
    164. D(H  28,C  14,C   8,C  15)      0.5542         0.025414   
    165. D(C  20,C  14,C   8,C  15)   -179.5810         0.025414   
    166. D(H  28,C  14,C   8,C   6)   -179.8760         0.025414   
    167. D(C  20,C  14,C   8,C   6)     -0.0111         0.025414   
    168. D(H  32,C  15,C   8,C  14)     -8.3725         0.012336   
    169. D(H  32,C  15,C   8,C   6)    172.0767         0.012336   
    170. D(H  31,C  15,C   8,C  14)    111.3225         0.012336   
    171. D(H  31,C  15,C   8,C   6)    -68.2283         0.012336   
    172. D(H  30,C  15,C   8,C  14)   -128.9456         0.012336   
    173. D(H  30,C  15,C   8,C   6)     51.5035         0.012336   
    174. D(H  21,C  16,C   9,C  29)      0.1387         0.025476   
    175. D(H  21,C  16,C   9,C   6)   -179.9620         0.025476   
    176. D(C  20,C  16,C   9,C  29)   -179.8765         0.025476   
    177. D(C  20,C  16,C   9,C   6)      0.0228         0.025476   
    178. D(H  24,C  17,C  10,C  23)      0.1376         0.025476   
    179. D(H  24,C  17,C  10,C   7)   -179.9623         0.025476   
    180. D(C  18,C  17,C  10,C  23)   -179.8799         0.025476   
    181. D(C  18,C  17,C  10,C   7)      0.0202         0.025476   
    182. D(C  19,C  18,C  17,C  10)     -0.0139         0.026346   
    183. D(H  25,C  18,C  17,H  24)     -0.1082         0.026346   
    184. D(H  25,C  18,C  17,C  10)    179.9095         0.026346   
    185. D(C  19,C  18,C  17,H  24)    179.9684         0.026346   
    186. D(H  26,C  19,C  18,H  25)     -0.0462         0.026391   
    187. D(H  26,C  19,C  18,C  17)    179.8772         0.026391   
    188. D(C  11,C  19,C  18,H  25)   -179.9140         0.026391   
    189. D(C  11,C  19,C  18,C  17)      0.0094         0.026391   
    190. D(H  26,C  19,C  11,C  22)      0.5501         0.025414   
    191. D(H  26,C  19,C  11,C   7)   -179.8808         0.025414   
    192. D(C  18,C  19,C  11,C  22)   -179.5807         0.025414   
    193. D(C  18,C  19,C  11,C   7)     -0.0116         0.025414   
    194. D(H  27,C  20,C  16,H  21)     -0.1084         0.026346   
    195. D(H  27,C  20,C  16,C   9)    179.9070         0.026346   
    196. D(C  14,C  20,C  16,H  21)    179.9705         0.026346   
    197. D(C  14,C  20,C  16,C   9)     -0.0141         0.026346   
    198. D(H  27,C  20,C  14,H  28)     -0.0497         0.026392   
    199. D(H  27,C  20,C  14,C   8)   -179.9131         0.026392   
    200. D(C  16,C  20,C  14,H  28)    179.8713         0.026392   
    201. D(C  16,C  20,C  14,C   8)      0.0080         0.026392   
    202. D(H  41,C  22,C  11,C  19)     -8.3583         0.012335   
    203. D(H  41,C  22,C  11,C   7)    172.0916         0.012335   
    204. D(H  40,C  22,C  11,C  19)    111.3388         0.012335   
    205. D(H  40,C  22,C  11,C   7)    -68.2112         0.012335   
    206. D(H  39,C  22,C  11,C  19)   -128.9319         0.012335   
    207. D(H  39,C  22,C  11,C   7)     51.5181         0.012335   
    208. D(H  38,C  23,C  10,C  17)   -126.1715         0.012363   
    209. D(H  38,C  23,C  10,C   7)     53.9327         0.012363   
    210. D(H  37,C  23,C  10,C  17)     -5.7320         0.012363   
    211. D(H  37,C  23,C  10,C   7)    174.3722         0.012363   
    212. D(H  36,C  23,C  10,C  17)    114.2121         0.012363   
    213. D(H  36,C  23,C  10,C   7)    -65.6837         0.012363   
    214. D(H  35,C  29,C   9,C  16)   -126.1600         0.012363   
    215. D(H  35,C  29,C   9,C   6)     53.9449         0.012363   
    216. D(H  34,C  29,C   9,C  16)     -5.7196         0.012363   
    217. D(H  34,C  29,C   9,C   6)    174.3854         0.012363   
    218. D(H  33,C  29,C   9,C  16)    114.2220         0.012363   
    219. D(H  33,C  29,C   9,C   6)    -65.6730         0.012363   
    -----------------------------------------------------------------

Number of atoms                         .... 42
Number of degrees of freedom            .... 219

         *************************************************************
         *                GEOMETRY OPTIMIZATION CYCLE   1            *
         *************************************************************
---------------------------------
CARTESIAN COORDINATES (ANGSTROEM)
---------------------------------
  N     -1.081052    0.014747    0.515223
  C      0.000011   -0.000379   -0.261475
  N      1.081108   -0.013837    0.515204
  H     -0.000019   -0.001574   -1.352460
  C      0.679627   -0.007193    1.838331
  C     -0.679506    0.010946    1.838344
  C     -2.443429    0.026941    0.040300
  C      2.443466   -0.026917    0.040266
  C     -3.044448   -1.199454   -0.272234
  C     -3.089126    1.264652   -0.080134
  C      3.089294   -1.264807   -0.077547
  C      3.044309    1.198886   -0.274911
  H      1.399069   -0.015004    2.654877
  H     -1.398905    0.020661    2.654909
  C     -4.365073   -1.161600   -0.729189
  C     -2.297123   -2.499317   -0.131390
  C     -4.408496    1.251217   -0.541108
  C      4.408668   -1.252191   -0.538530
  C      5.038677   -0.052185   -0.861699
  C      4.364932    1.160228   -0.731798
  C     -5.038666    0.050607   -0.861707
  H     -4.943134    2.199357   -0.647984
  C      2.296738    2.498910   -0.136845
  C      2.390939   -2.550006    0.279655
  H      4.943426   -2.200488   -0.643398
  H      6.072033   -0.062144   -1.219443
  H      4.867210    2.098083   -0.985663
  H     -6.072029    0.059924   -1.219445
  H     -4.867488   -2.099948   -0.980948
  C     -2.390655    2.550539    0.274377
  H     -1.839867   -2.597703    0.865691
  H     -1.484846   -2.574523   -0.872927
  H     -2.973710   -3.350181   -0.286421
  H     -2.166629    2.597314    1.352212
  H     -3.020443    3.413473    0.020550
  H     -1.434231    2.651688   -0.262928
  H      2.167059   -2.594612    1.357613
  H      3.020718   -3.413422    0.027450
  H      1.434439   -2.652253   -0.257310
  H      1.839702    2.599413    0.860129
  H      1.484250    2.572241   -0.878341
  H      2.973089    3.349578   -0.293957

----------------------------
CARTESIAN COORDINATES (A.U.)
----------------------------
  NO LB      ZA    FRAG     MASS         X           Y           Z
   0 N     7.0000    0    14.007   -2.042892    0.027867    0.973631
   1 C     6.0000    0    12.011    0.000021   -0.000716   -0.494116
   2 N     7.0000    0    14.007    2.042997   -0.026148    0.973595
   3 H     1.0000    0     1.008   -0.000035   -0.002975   -2.555778
   4 C     6.0000    0    12.011    1.284308   -0.013594    3.473942
   5 C     6.0000    0    12.011   -1.284079    0.020685    3.473967
   6 C     6.0000    0    12.011   -4.617411    0.050910    0.076157
   7 C     6.0000    0    12.011    4.617482   -0.050867    0.076092
   8 C     6.0000    0    12.011   -5.753172   -2.266639   -0.514448
   9 C     6.0000    0    12.011   -5.837602    2.389846   -0.151432
  10 C     6.0000    0    12.011    5.837920   -2.390139   -0.146542
  11 C     6.0000    0    12.011    5.752910    2.265567   -0.519506
  12 H     1.0000    0     1.008    2.643857   -0.028353    5.016991
  13 H     1.0000    0     1.008   -2.643547    0.039043    5.017050
  14 C     6.0000    0    12.011   -8.248792   -2.195106   -1.377968
  15 C     6.0000    0    12.011   -4.340934   -4.723024   -0.248291
  16 C     6.0000    0    12.011   -8.330849    2.364457   -1.022546
  17 C     6.0000    0    12.011    8.331176   -2.366298   -1.017675
  18 C     6.0000    0    12.011    9.521720   -0.098615   -1.628376
  19 C     6.0000    0    12.011    8.248527    2.192514   -1.382899
  20 C     6.0000    0    12.011   -9.521699    0.095634   -1.628389
  21 H     1.0000    0     1.008   -9.341169    4.156183   -1.224512
  22 C     6.0000    0    12.011    4.340206    4.722255   -0.258599
  23 C     6.0000    0    12.011    4.518219   -4.818814    0.528471
  24 H     1.0000    0     1.008    9.341721   -4.158321   -1.215846
  25 H     1.0000    0     1.008   11.474479   -0.117434   -2.304414
  26 H     1.0000    0     1.008    9.197694    3.964802   -1.862633
  27 H     1.0000    0     1.008  -11.474472    0.113240   -2.304418
  28 H     1.0000    0     1.008   -9.198219   -3.968327   -1.853724
  29 C     6.0000    0    12.011   -4.517683    4.819820    0.518497
  30 H     1.0000    0     1.008   -3.476845   -4.908946    1.635919
  31 H     1.0000    0     1.008   -2.805953   -4.865143   -1.649594
  32 H     1.0000    0     1.008   -5.619497   -6.330925   -0.541256
  33 H     1.0000    0     1.008   -4.094335    4.908212    2.555310
  34 H     1.0000    0     1.008   -5.707811    6.450529    0.038833
  35 H     1.0000    0     1.008   -2.710303    5.010965   -0.496861
  36 H     1.0000    0     1.008    4.095147   -4.903106    2.565516
  37 H     1.0000    0     1.008    5.708329   -6.450433    0.051872
  38 H     1.0000    0     1.008    2.710697   -5.012033   -0.486245
  39 H     1.0000    0     1.008    3.476534    4.912178    1.625408
  40 H     1.0000    0     1.008    2.804826    4.860832   -1.659824
  41 H     1.0000    0     1.008    5.618324    6.329786   -0.555499

--------------------------------
INTERNAL COORDINATES (ANGSTROEM)
--------------------------------
 N      0   0   0     0.000000000000     0.00000000     0.00000000
 C      1   0   0     1.331234952263     0.00000000     0.00000000
 N      2   1   0     1.331232919894   108.61491471     0.00000000
 H      2   1   3     1.090985375163   125.69226378   179.99844636
 C      3   2   1     1.382712701902   108.81042911     0.00000000
 C      5   3   2     1.359253266934   106.88221605     0.00000000
 C      1   2   3     1.442834440717   125.08855008   180.25748767
 C      3   2   1     1.442830204203   125.08925065   180.26395562
 C      7   1   2     1.401051204069   118.10468097    85.02993003
 C      7   1   2     1.401199241799   118.09127535   264.95920891
 C      8   3   2     1.401193595943   118.09222940   264.95407332
 C      8   3   2     1.401050631005   118.10249219    85.02417063
 H      5   3   2     1.088303981165   121.73418540   180.05194709
 H      6   5   3     1.088304611763   131.38344358   179.95227868
 C      9   7   1     1.397959936031   117.03017403   179.94648344
 C      9   7   1     1.505979496190   121.45292926   359.51659110
 C     10   7   1     1.397646002698   117.05632689   180.04772712
 C     11   8   3     1.397645410424   117.05580318   180.05080142
 C     18  11   8     1.393328564445   120.73803431     0.00000000
 C     19  18  11     1.393108833210   120.61300019     0.00000000
 C     15   9   7     1.393102547998   120.75895664     0.00000000
 H     17  10   7     1.093723301991   119.03495628   180.03804031
 C     12   8   3     1.505982825652   121.45020498   359.51433298
 C     11   8   3     1.505666382532   121.35688258   359.95113585
 H     18  11   8     1.093723312408   119.03539774   180.03768673
 H     19  18  11     1.093574017812   119.68919816   179.90952628
 H     20  19  18     1.093755592149   120.16610832   179.87716677
 H     21  15   9     1.093573703072   119.69807189   180.08692268
 H     15   9   7     1.093755732093   119.07447354   180.12402132
 C     10   7   1     1.505670591212   121.35750572   359.94732953
 H     16   9   7     1.101332334163   111.58046447    51.50354914
 H     16   9   7     1.102419077757   111.19904506   291.77173346
 H     16   9   7     1.098077686180   110.47819475   172.07671131
 H     30  10   7     1.101864083804   111.15466950   294.32699204
 H     30  10   7     1.098051356333   110.52824781   174.38537948
 H     30  10   7     1.101669050491   111.48835456    53.94491243
 H     24  11   8     1.101864180361   111.15459135   294.31629780
 H     24  11   8     1.098050912855   110.52833735   174.37224131
 H     24  11   8     1.101670064899   111.48690370    53.93274069
 H     23  12   8     1.101335020979   111.57781382    51.51811127
 H     23  12   8     1.102420389461   111.19892696   291.78882095
 H     23  12   8     1.098076913643   110.47945765   172.09163296

---------------------------
INTERNAL COORDINATES (A.U.)
---------------------------
 N      0   0   0     0.000000000000     0.00000000     0.00000000
 C      1   0   0     2.515669479681     0.00000000     0.00000000
 N      2   1   0     2.515665639059   108.61491471     0.00000000
 H      2   1   3     2.061663575171   125.69226378   179.99844636
 C      3   2   1     2.612948328489   108.81042911     0.00000000
 C      5   3   2     2.568616421143   106.88221605     0.00000000
 C      1   2   3     2.726561949545   125.08855008   180.25748767
 C      3   2   1     2.726553943694   125.08925065   180.26395562
 C      7   1   2     2.647603075290   118.10468097    85.02993003
 C      7   1   2     2.647882826058   118.09127535   264.95920891
 C      8   3   2     2.647872156936   118.09222940   264.95407332
 C      8   3   2     2.647601992356   118.10249219    85.02417063
 H      5   3   2     2.056596474859   121.73418540   180.05194709
 H      6   5   3     2.056597666515   131.38344358   179.95227868
 C      9   7   1     2.641761425293   117.03017403   179.94648344
 C      9   7   1     2.845888811099   121.45292926   359.51659110
 C     10   7   1     2.641168177269   117.05632689   180.04772712
 C     11   8   3     2.641167058033   117.05580318   180.05080142
 C     18  11   8     2.633009401370   120.73803431     0.00000000
 C     19  18  11     2.632594169514   120.61300019     0.00000000
 C     15   9   7     2.632582292184   120.75895664     0.00000000
 H     17  10   7     2.066837507051   119.03495628   180.03804031
 C     12   8   3     2.845895102872   121.45020498   359.51433298
 C     11   8   3     2.845297112038   121.35688258   359.95113585
 H     18  11   8     2.066837526736   119.03539774   180.03768673
 H     19  18  11     2.066555400837   119.68919816   179.90952628
 H     20  19  18     2.066898526606   120.16610832   179.87716677
 H     21  15   9     2.066554806064   119.69807189   180.08692268
 H     15   9   7     2.066898791063   119.07447354   180.12402132
 C     10   7   1     2.845305065290   121.35750572   359.94732953
 H     16   9   7     2.081216494001   111.58046447    51.50354914
 H     16   9   7     2.083270141770   111.19904506   291.77173346
 H     16   9   7     2.075066100650   110.47819475   172.07671131
 H     30  10   7     2.082221355194   111.15466950   294.32699204
 H     30  10   7     2.075016344451   110.52824781   174.38537948
 H     30  10   7     2.081852795645   111.48835456    53.94491243
 H     24  11   8     2.082221537660   111.15459135   294.31629780
 H     24  11   8     2.075015506398   110.52833735   174.37224131
 H     24  11   8     2.081854712598   111.48690370    53.93274069
 H     23  12   8     2.081221571346   111.57781382    51.51811127
 H     23  12   8     2.083272620533   111.19892696   291.78882095
 H     23  12   8     2.075064640767   110.47945765   172.09163296

---------------------
BASIS SET INFORMATION
---------------------
There are 3 groups of distinct atoms

 Group   1 Type N   : 7s4p1d contracted to 3s2p1d pattern {511/31/1}
 Group   2 Type C   : 7s4p1d contracted to 3s2p1d pattern {511/31/1}
 Group   3 Type H   : 4s1p contracted to 2s1p pattern {31/1}

Atom   0N    basis set group =>   1
Atom   1C    basis set group =>   2
Atom   2N    basis set group =>   1
Atom   3H    basis set group =>   3
Atom   4C    basis set group =>   2
Atom   5C    basis set group =>   2
Atom   6C    basis set group =>   2
Atom   7C    basis set group =>   2
Atom   8C    basis set group =>   2
Atom   9C    basis set group =>   2
Atom  10C    basis set group =>   2
Atom  11C    basis set group =>   2
Atom  12H    basis set group =>   3
Atom  13H    basis set group =>   3
Atom  14C    basis set group =>   2
Atom  15C    basis set group =>   2
Atom  16C    basis set group =>   2
Atom  17C    basis set group =>   2
Atom  18C    basis set group =>   2
Atom  19C    basis set group =>   2
Atom  20C    basis set group =>   2
Atom  21H    basis set group =>   3
Atom  22C    basis set group =>   2
Atom  23C    basis set group =>   2
Atom  24H    basis set group =>   3
Atom  25H    basis set group =>   3
Atom  26H    basis set group =>   3
Atom  27H    basis set group =>   3
Atom  28H    basis set group =>   3
Atom  29C    basis set group =>   2
Atom  30H    basis set group =>   3
Atom  31H    basis set group =>   3
Atom  32H    basis set group =>   3
Atom  33H    basis set group =>   3
Atom  34H    basis set group =>   3
Atom  35H    basis set group =>   3
Atom  36H    basis set group =>   3
Atom  37H    basis set group =>   3
Atom  38H    basis set group =>   3
Atom  39H    basis set group =>   3
Atom  40H    basis set group =>   3
Atom  41H    basis set group =>   3
---------------------------------
AUXILIARY/J BASIS SET INFORMATION
---------------------------------
There are 3 groups of distinct atoms

 Group   1 Type N   : 12s5p4d2f1g contracted to 6s4p3d1f1g pattern {711111/2111/211/2/1}
 Group   2 Type C   : 12s5p4d2f1g contracted to 6s4p3d1f1g pattern {711111/2111/211/2/1}
 Group   3 Type H   : 5s2p1d contracted to 3s1p1d pattern {311/2/1}

Atom   0N    basis set group =>   1
Atom   1C    basis set group =>   2
Atom   2N    basis set group =>   1
Atom   3H    basis set group =>   3
Atom   4C    basis set group =>   2
Atom   5C    basis set group =>   2
Atom   6C    basis set group =>   2
Atom   7C    basis set group =>   2
Atom   8C    basis set group =>   2
Atom   9C    basis set group =>   2
Atom  10C    basis set group =>   2
Atom  11C    basis set group =>   2
Atom  12H    basis set group =>   3
Atom  13H    basis set group =>   3
Atom  14C    basis set group =>   2
Atom  15C    basis set group =>   2
Atom  16C    basis set group =>   2
Atom  17C    basis set group =>   2
Atom  18C    basis set group =>   2
Atom  19C    basis set group =>   2
Atom  20C    basis set group =>   2
Atom  21H    basis set group =>   3
Atom  22C    basis set group =>   2
Atom  23C    basis set group =>   2
Atom  24H    basis set group =>   3
Atom  25H    basis set group =>   3
Atom  26H    basis set group =>   3
Atom  27H    basis set group =>   3
Atom  28H    basis set group =>   3
Atom  29C    basis set group =>   2
Atom  30H    basis set group =>   3
Atom  31H    basis set group =>   3
Atom  32H    basis set group =>   3
Atom  33H    basis set group =>   3
Atom  34H    basis set group =>   3
Atom  35H    basis set group =>   3
Atom  36H    basis set group =>   3
Atom  37H    basis set group =>   3
Atom  38H    basis set group =>   3
Atom  39H    basis set group =>   3
Atom  40H    basis set group =>   3
Atom  41H    basis set group =>   3
------------------------------------------------------------------------------
                           ORCA GTO INTEGRAL CALCULATION
                           -- RI-GTO INTEGRALS CHOSEN --
------------------------------------------------------------------------------
------------------------------------------------------------------------------
                   ___                                                        
                  /   \      - P O W E R E D   B Y -                         
                 /     \                                                     
                 |  |  |   _    _      __       _____    __    __             
                 |  |  |  | |  | |    /  \     |  _  \  |  |  /  |          
                  \  \/   | |  | |   /    \    | | | |  |  | /  /          
                 / \  \   | |__| |  /  /\  \   | |_| |  |  |/  /          
                |  |  |   |  __  | /  /__\  \  |    /   |      \           
                |  |  |   | |  | | |   __   |  |    \   |  |\   \          
                \     /   | |  | | |  |  |  |  | |\  \  |  | \   \       
                 \___/    |_|  |_| |__|  |__|  |_| \__\ |__|  \__/        
                                                                              
                      - O R C A' S   B I G   F R I E N D -                    
                                      &                                       
                       - I N T E G R A L  F E E D E R -                       
                                                                              
 v1 FN, 2020, v2 2021                                                         
------------------------------------------------------------------------------


Reading SHARK input file 8_prot_aq_4.SHARKINP.tmp ... ok
----------------------
SHARK INTEGRAL PACKAGE
----------------------

Number of atoms                             ...     42
Number of basis functions                   ...    399
Number of shells                            ...    189
Maximum angular momentum                    ...      2
Integral batch strategy                     ... SHARK/LIBINT Hybrid
RI-J (if used) integral strategy            ... SPLIT-RIJ (Revised 2003 algorithm where possible)
Printlevel                                  ...      1
Contraction scheme used                     ... SEGMENTED contraction
Coulomb Range Separation                    ... NOT USED
Exchange Range Separation                   ... Long Range
   Mu parameter                             ...  0.300000
   Scaling (regular/separated)              ...  0.157706  0.842294
Finite Nucleus Model                        ... NOT USED
Auxiliary Coulomb fitting basis             ... AVAILABLE
   # of basis functions in Aux-J            ...   1260
   # of shells in Aux-J                     ...    420
   Maximum angular momentum in Aux-J        ...      4
Auxiliary J/K fitting basis                 ... NOT available
Auxiliary Correlation fitting basis         ... NOT available
Auxiliary 'external' fitting basis          ... NOT available
Integral threshold                          ...     2.500000e-11
Primitive cut-off                           ...     2.500000e-12
Primitive pair pre-selection threshold      ...     2.500000e-12

Calculating pre-screening integrals         ... done (  0.1 sec) Dimension = 189
Organizing shell pair data                  ... done (  0.1 sec)
Shell pair information
Total number of shell pairs                 ...     17955
Shell pairs after pre-screening             ...     13681
Total number of primitive shell pairs       ...     64239
Primitive shell pairs kept                  ...     31356
          la=0 lb=0:   4355 shell pairs
          la=1 lb=0:   5115 shell pairs
          la=1 lb=1:   1546 shell pairs
          la=2 lb=0:   1579 shell pairs
          la=2 lb=1:    935 shell pairs
          la=2 lb=2:    151 shell pairs

Calculating one electron integrals          ... done (  0.1 sec)
Calculating RI/J V-Matrix + Cholesky decomp.... done (  0.1 sec)
Calculating Nuclear repulsion               ... done (  0.0 sec) ENN=   1614.457004101172 Eh

SHARK setup successfully completed in   0.9 seconds

Maximum memory used throughout the entire GTOINT-calculation: 81.1 MB
-------------------------------------------------------------------------------
                                 ORCA SCF
-------------------------------------------------------------------------------

------------
SCF SETTINGS
------------
Hamiltonian:
 Density Functional     Method          .... DFT(GTOs)
 Exchange Functional    Exchange        .... WB97X
 Correlation Functional Correlation     .... WB97X
 Gradients option       PostSCFGGA      .... off
 Hybrid DFT is turned on
   Fraction HF Exchange ScalHFX         ....  0.157706
   Scaling of DF-GGA-X  ScalDFX         ....  0.000000
   Scaling of DF-GGA-C  ScalDFC         ....  1.000000
   Scaling of DF-LDA-C  ScalLDAC        ....  1.000000
   Perturbative correction              ....  0.000000
   Density functional embedding theory  .... OFF
 Long-range corrected/Screened/Range-Separated Hybrid DFT is turned on
   Amount of maximum screened exact exchange              ....  0.842294
   Range separation parameter mu (erf(mu*r12)/r12)        ....  0.300000
 RI-approximation to the Coulomb term is turned on
   Number of AuxJ basis functions       .... 1260
   RIJ-COSX (HFX calculated with COS-X)).... on


General Settings:
 Integral files         IntName         .... 8_prot_aq_4
 Hartree-Fock type      HFTyp           .... RHF
 Total Charge           Charge          ....    1
 Multiplicity           Mult            ....    1
 Number of Electrons    NEL             ....  148
 Basis Dimension        Dim             ....  399
 Nuclear Repulsion      ENuc            ....   1614.4570041012 Eh

Convergence Acceleration:
 DIIS                   CNVDIIS         .... on
   Start iteration      DIISMaxIt       ....     0
   Startup error        DIISStart       ....  0.200000
   # of expansion vecs  DIISMaxEq       ....     5
   Bias factor          DIISBfac        ....   1.050
   Max. coefficient     DIISMaxC        ....  10.000
 Trust-Rad. Augm. Hess. CNVTRAH         .... auto
   Auto Start mean grad. ratio tolernc. ....  1.125000
   Auto Start start iteration           ....    20
   Auto Start num. interpolation iter.  ....    10
   Max. Number of Micro iterations      ....    16
   Max. Number of Macro iterations      .... Maxiter - #DIIS iter
   Number of Davidson start vectors     ....     2
   Converg. threshold I  (grad. norm)   ....   1.000e-05
   Converg. threshold II (energy diff.) ....   1.000e-08
   Grad. Scal. Fac. for Micro threshold ....   0.100
   Minimum threshold for Micro iter.    ....   0.010
   NR start threshold (gradient norm)   ....   0.001
   Initial trust radius                 ....   0.400
   Minimum AH scaling param. (alpha)    ....   1.000
   Maximum AH scaling param. (alpha)    .... 1000.000
   Orbital update algorithm             .... Taylor
   White noise on init. David. guess    .... on
   Maximum white noise                  ....   0.010
   Quad. conv. algorithm                .... NR
 SOSCF                  CNVSOSCF        .... on
   Start iteration      SOSCFMaxIt      ....   150
   Startup grad/error   SOSCFStart      ....  0.001000
 Level Shifting         CNVShift        .... on
   Level shift para.    LevelShift      ....    0.2500
   Turn off err/grad.   ShiftErr        ....    0.0000
 Zerner damping         CNVZerner       .... off
 Static damping         CNVDamp         .... on
   Fraction old density DampFac         ....    0.8500
   Max. Damping (<1)    DampMax         ....    0.9800
   Min. Damping (>=0)   DampMin         ....    0.0000
   Turn off err/grad.   DampErr         ....    0.0300
 Fernandez-Rico         CNVRico         .... off

SCF Procedure:
 Maximum # iterations   MaxIter         ....   125
 SCF integral mode      SCFMode         .... Direct
   Integral package                     .... SHARK and LIBINT hybrid scheme
 Reset frequency        DirectResetFreq ....    20
 Integral Threshold     Thresh          ....  2.500e-11 Eh
 Primitive CutOff       TCut            ....  2.500e-12 Eh

Convergence Tolerance:
 Convergence Check Mode ConvCheckMode   .... Total+1el-Energy
 Convergence forced     ConvForced      .... 0
 Energy Change          TolE            ....  1.000e-08 Eh
 1-El. energy change                    ....  1.000e-05 Eh
 Orbital Gradient       TolG            ....  1.000e-05
 Orbital Rotation angle TolX            ....  1.000e-05
 DIIS Error             TolErr          ....  5.000e-07


Diagonalization of the overlap matrix:
Smallest eigenvalue                        ... 2.066e-04
Time for diagonalization                   ...    0.032 sec
Threshold for overlap eigenvalues          ... 1.000e-08
Number of eigenvalues below threshold      ... 0
Time for construction of square roots      ...    0.031 sec
Total time needed                          ...    0.064 sec

Time for model grid setup =    1.424 sec

------------------------------
INITIAL GUESS: MODEL POTENTIAL
------------------------------
Loading Hartree-Fock densities                     ... done
Calculating cut-offs                               ... done
Initializing the effective Hamiltonian             ... done
Setting up the integral package (SHARK)            ... done
Starting the Coulomb interaction                   ... done (   1.7 sec)
Reading the grid                                   ... done
Mapping shells                                     ... done
Starting the XC term evaluation                    ... done (   1.4 sec)
  promolecular density results
     # of electrons  =    149.008078028
     EX              =   -116.530309676
     EC              =     -4.968138768
     EX+EC           =   -121.498448444
Transforming the Hamiltonian                       ... done (   0.0 sec)
Diagonalizing the Hamiltonian                      ... done (   0.0 sec)
Back transforming the eigenvectors                 ... done (   0.0 sec)
Now organizing SCF variables                       ... done
                      ------------------
                      INITIAL GUESS DONE (   4.5 sec)
                      ------------------
-------------------
DFT GRID GENERATION
-------------------

General Integration Accuracy     IntAcc      ... 4.388
Radial Grid Type                 RadialGrid  ... OptM3 with GC (2021)
Angular Grid (max. ang.)         AngularGrid ... 4 (Lebedev-302)
Angular grid pruning method      GridPruning ... 4 (adaptive)
Weight generation scheme         WeightScheme... Becke
Basis function cutoff            BFCut       ... 1.0000e-11
Integration weight cutoff        WCut        ... 1.0000e-14
Angular grids for H and He will be reduced by one unit
Partially contracted basis set               ... off
Rotationally invariant grid construction     ... off

Total number of grid points                  ...   191713
Total number of batches                      ...     3017
Average number of points per batch           ...       63
Average number of grid points per atom       ...     4565
Time for grid setup =    4.964 sec

--------------------
COSX GRID GENERATION
--------------------

GRIDX 1
-------
General Integration Accuracy     IntAcc      ... 3.816
Radial Grid Type                 RadialGrid  ... OptM3 with GC (2021)
Angular Grid (max. ang.)         AngularGrid ... 1 (Lebedev-50)
Angular grid pruning method      GridPruning ... 4 (adaptive)
Weight generation scheme         WeightScheme... Becke
Basis function cutoff            BFCut       ... 1.0000e-11
Integration weight cutoff        WCut        ... 1.0000e-14
Angular grids for H and He will be reduced by one unit
Partially contracted basis set               ... on
Rotationally invariant grid construction     ... off

Total number of grid points                  ...    24416
Total number of batches                      ...      399
Average number of points per batch           ...       61
Average number of grid points per atom       ...      581
UseSFitting                                  ... on

GRIDX 2
-------
General Integration Accuracy     IntAcc      ... 4.020
Radial Grid Type                 RadialGrid  ... OptM3 with GC (2021)
Angular Grid (max. ang.)         AngularGrid ... 2 (Lebedev-110)
Angular grid pruning method      GridPruning ... 4 (adaptive)
Weight generation scheme         WeightScheme... Becke
Basis function cutoff            BFCut       ... 1.0000e-11
Integration weight cutoff        WCut        ... 1.0000e-14
Angular grids for H and He will be reduced by one unit
Partially contracted basis set               ... on
Rotationally invariant grid construction     ... off

Total number of grid points                  ...    52102
Total number of batches                      ...      836
Average number of points per batch           ...       62
Average number of grid points per atom       ...     1241
UseSFitting                                  ... on

GRIDX 3
-------
General Integration Accuracy     IntAcc      ... 4.338
Radial Grid Type                 RadialGrid  ... OptM3 with GC (2021)
Angular Grid (max. ang.)         AngularGrid ... 3 (Lebedev-194)
Angular grid pruning method      GridPruning ... 4 (adaptive)
Weight generation scheme         WeightScheme... Becke
Basis function cutoff            BFCut       ... 1.0000e-11
Integration weight cutoff        WCut        ... 1.0000e-14
Angular grids for H and He will be reduced by one unit
Partially contracted basis set               ... on
Rotationally invariant grid construction     ... off

Total number of grid points                  ...   113427
Total number of batches                      ...     1795
Average number of points per batch           ...       63
Average number of grid points per atom       ...     2701
UseSFitting                                  ... on

Time for X-Grid setup             =    6.594 sec


--------------------
CPCM SOLVATION MODEL
--------------------
CPCM parameters:
  Epsilon                                         ...      80.4000
  Refrac                                          ...       1.3300
  Rsolv                                           ...       1.3000
  Surface type                                    ... GAUSSIAN VDW
  Epsilon function type                           ...         CPCM
Radii:
 Radius for N  used is    3.5149 Bohr (=   1.8600 Ang.)
 Radius for C  used is    3.8550 Bohr (=   2.0400 Ang.)
 Radius for H  used is    2.4944 Bohr (=   1.3200 Ang.)
Calculating surface                               ...        done! (  0.0s)
GEPOL surface points                              ...         2230
GEPOL Volume                                      ...    2410.9042
GEPOL Surface-area                                ...    1228.7493
Calculating surface distance matrix               ...        done! (  0.0s)
Performing Cholesky decomposition & store         ...        done! (  0.2s)
Overall time for CPCM initialization              ...                 0.3s
--------------
SCF ITERATIONS
--------------
ITER       Energy         Delta-E        Max-DP      RMS-DP      [F,P]     Damp
               ***  Starting incremental Fock matrix formation  ***
  0   -844.8922331462   0.000000000000 0.03119511  0.00062660  0.1447791 0.8500
  1   -844.9614195245  -0.069186378329 0.02814190  0.00057769  0.1173905 0.8500
                               ***Turning on DIIS***
  2   -845.0148146087  -0.053395084169 0.02214092  0.00047687  0.0909357 0.8500
  3   -845.0549345929  -0.040119984200 0.01409186  0.00036270  0.0696389 0.8500
  4   -845.0861039762  -0.031169383301 0.00954211  0.00029051  0.0557038 0.8500
  5   -845.1107726927  -0.024668716469 0.00726260  0.00024268  0.0461255 0.8500
  6   -845.1308620510  -0.020089358329 0.00588197  0.00020599  0.0388102 0.8500
  7   -845.1474980776  -0.016636026612 0.00500731  0.00017681  0.0328726 0.8500
  8   -845.1614132491  -0.013915171486 0.02845308  0.00101110  0.0278142 0.0000
  9   -845.2363567329  -0.074943483773 0.00139352  0.00002821  0.0011535 0.0000
                      *** Initiating the SOSCF procedure ***
                           *** Shutting down DIIS ***
                      *** Re-Reading the Fockian *** 
                      *** Removing any level shift *** 
ITER      Energy       Delta-E        Grad      Rot      Max-DP    RMS-DP
 10   -845.23638976  -0.0000330284  0.000578  0.000578  0.000758  0.000014
               *** Restarting incremental Fock matrix formation ***
 11   -845.23630631   0.0000834471  0.000259  0.000623  0.000559  0.000015
 12   -845.23630891  -0.0000025962  0.000192  0.000877  0.000507  0.000011
 13   -845.23630960  -0.0000006902  0.000066  0.000157  0.000196  0.000005
 14   -845.23630976  -0.0000001586  0.000009  0.000025  0.000036  0.000001
 15   -845.23630978  -0.0000000178  0.000005  0.000015  0.000013  0.000000
                  ***Gradient check signals convergence***
              ***Rediagonalizing the Fockian in SOSCF/NRSCF***

               *****************************************************
               *                     SUCCESS                       *
               *           SCF CONVERGED AFTER  16 CYCLES          *
               *****************************************************

Old exchange energy                            =    -38.185517100 Eh
New exchange energy                            =    -38.185524088 Eh
Exchange energy change after final integration =     -0.000006988 Eh
Total energy after final integration           =   -845.236316767 Eh
Final COS-X integration done in                =   195.459 sec

----------------
TOTAL SCF ENERGY
----------------

Total Energy       :         -845.23631677 Eh          -23000.04948 eV

Components:
Nuclear Repulsion  :         1614.45700410 Eh           43931.60852 eV
Electronic Energy  :        -2459.69332087 Eh          -66931.65800 eV
One Electron Energy:        -4326.46159856 Eh         -117729.00532 eV
Two Electron Energy:         1866.76827769 Eh           50797.34732 eV
Max COSX asymmetry :            0.00000295 Eh               0.00008 eV
CPCM Dielectric    :           -0.07621570 Eh              -2.07393 eV

Virial components:
Potential Energy   :        -1680.38260851 Eh          -45725.53542 eV
Kinetic Energy     :          835.14629175 Eh           22725.48594 eV
Virial Ratio       :            2.01208175


DFT components:
N(Alpha)           :       73.999971556648 electrons
N(Beta)            :       73.999971556648 electrons
N(Total)           :      147.999943113295 electrons
E(XC)              :      -85.948736064422 Eh       
DFET-embed. en.    :        0.000000000000 Eh       
CPCM Solvation Model Properties:
Surface-charge          :           -1.02647519
Charge-correction       :            0.00299547 Eh               0.08151 eV
Free-energy (cav+disp)  :  This term is not implemented in the current solvation scheme

---------------
SCF CONVERGENCE
---------------

  Last Energy change         ...   -2.4679e-09  Tolerance :   1.0000e-08
  Last MAX-Density change    ...    3.5527e-15  Tolerance :   1.0000e-07
  Last RMS-Density change    ...    3.5120e-17  Tolerance :   5.0000e-09
  Last Orbital Gradient      ...    1.1651e-06  Tolerance :   1.0000e-05
  Last Orbital Rotation      ...    4.5146e-06  Tolerance :   1.0000e-05

             **** THE GBW FILE WAS UPDATED (8_prot_aq_4.gbw) ****
             **** DENSITY 8_prot_aq_4.scfp WAS UPDATED ****
             **** ENERGY FILE WAS UPDATED (8_prot_aq_4.en.tmp) ****
             **** THE GBW FILE WAS UPDATED (8_prot_aq_4.gbw) ****
             **** DENSITY 8_prot_aq_4.scfp WAS UPDATED ****
----------------
ORBITAL ENERGIES
----------------

  NO   OCC          E(Eh)            E(eV) 
   0   2.0000     -14.523674      -395.2093 
   1   2.0000     -14.523654      -395.2087 
   2   2.0000     -10.396925      -282.9147 
   3   2.0000     -10.344150      -281.4786 
   4   2.0000     -10.343563      -281.4627 
   5   2.0000     -10.333270      -281.1826 
   6   2.0000     -10.333226      -281.1814 
   7   2.0000     -10.304731      -280.4060 
   8   2.0000     -10.304728      -280.4059 
   9   2.0000     -10.304567      -280.4015 
  10   2.0000     -10.304563      -280.4014 
  11   2.0000     -10.288442      -279.9627 
  12   2.0000     -10.288441      -279.9627 
  13   2.0000     -10.283471      -279.8275 
  14   2.0000     -10.283468      -279.8274 
  15   2.0000     -10.283449      -279.8269 
  16   2.0000     -10.283448      -279.8269 
  17   2.0000     -10.278225      -279.6847 
  18   2.0000     -10.278222      -279.6846 
  19   2.0000     -10.278018      -279.6791 
  20   2.0000     -10.278014      -279.6790 
  21   2.0000      -1.228262       -33.4227 
  22   2.0000      -1.112579       -30.2748 
  23   2.0000      -1.016646       -27.6643 
  24   2.0000      -0.997194       -27.1350 
  25   2.0000      -0.940899       -25.6032 
  26   2.0000      -0.925781       -25.1918 
  27   2.0000      -0.925343       -25.1799 
  28   2.0000      -0.912882       -24.8408 
  29   2.0000      -0.890153       -24.2223 
  30   2.0000      -0.850290       -23.1376 
  31   2.0000      -0.829037       -22.5592 
  32   2.0000      -0.811571       -22.0840 
  33   2.0000      -0.810463       -22.0538 
  34   2.0000      -0.786102       -21.3909 
  35   2.0000      -0.785701       -21.3800 
  36   2.0000      -0.736481       -20.0407 
  37   2.0000      -0.728906       -19.8346 
  38   2.0000      -0.715204       -19.4617 
  39   2.0000      -0.711850       -19.3704 
  40   2.0000      -0.683350       -18.5949 
  41   2.0000      -0.648127       -17.6364 
  42   2.0000      -0.643389       -17.5075 
  43   2.0000      -0.613746       -16.7009 
  44   2.0000      -0.612361       -16.6632 
  45   2.0000      -0.591700       -16.1010 
  46   2.0000      -0.590832       -16.0774 
  47   2.0000      -0.582433       -15.8488 
  48   2.0000      -0.575585       -15.6625 
  49   2.0000      -0.575229       -15.6528 
  50   2.0000      -0.547369       -14.8947 
  51   2.0000      -0.545750       -14.8506 
  52   2.0000      -0.539823       -14.6893 
  53   2.0000      -0.538681       -14.6583 
  54   2.0000      -0.531231       -14.4555 
  55   2.0000      -0.527946       -14.3661 
  56   2.0000      -0.524832       -14.2814 
  57   2.0000      -0.524783       -14.2801 
  58   2.0000      -0.517556       -14.0834 
  59   2.0000      -0.515278       -14.0214 
  60   2.0000      -0.488008       -13.2794 
  61   2.0000      -0.485495       -13.2110 
  62   2.0000      -0.477473       -12.9927 
  63   2.0000      -0.472288       -12.8516 
  64   2.0000      -0.470203       -12.7949 
  65   2.0000      -0.461997       -12.5716 
  66   2.0000      -0.458514       -12.4768 
  67   2.0000      -0.458158       -12.4671 
  68   2.0000      -0.433032       -11.7834 
  69   2.0000      -0.384654       -10.4670 
  70   2.0000      -0.364929        -9.9302 
  71   2.0000      -0.361289        -9.8312 
  72   2.0000      -0.348230        -9.4758 
  73   2.0000      -0.347606        -9.4588 
  74   0.0000       0.043332         1.1791 
  75   0.0000       0.045555         1.2396 
  76   0.0000       0.054006         1.4696 
  77   0.0000       0.062361         1.6969 
  78   0.0000       0.062525         1.7014 
  79   0.0000       0.086009         2.3404 
  80   0.0000       0.127798         3.4776 
  81   0.0000       0.154216         4.1964 
  82   0.0000       0.158630         4.3165 
  83   0.0000       0.163018         4.4360 
  84   0.0000       0.174408         4.7459 
  85   0.0000       0.177763         4.8372 
  86   0.0000       0.179604         4.8873 
  87   0.0000       0.190885         5.1942 
  88   0.0000       0.199419         5.4265 
  89   0.0000       0.207892         5.6570 
  90   0.0000       0.213441         5.8080 
  91   0.0000       0.218154         5.9363 
  92   0.0000       0.220214         5.9923 
  93   0.0000       0.221932         6.0391 
  94   0.0000       0.227894         6.2013 
  95   0.0000       0.233821         6.3626 
  96   0.0000       0.235502         6.4083 
  97   0.0000       0.244970         6.6660 
  98   0.0000       0.251190         6.8352 
  99   0.0000       0.254124         6.9151 
 100   0.0000       0.257750         7.0137 
 101   0.0000       0.268158         7.2970 
 102   0.0000       0.273364         7.4386 
 103   0.0000       0.276183         7.5153 
 104   0.0000       0.284591         7.7441 
 105   0.0000       0.297740         8.1019 
 106   0.0000       0.301281         8.1983 
 107   0.0000       0.323948         8.8151 
 108   0.0000       0.329487         8.9658 
 109   0.0000       0.330535         8.9943 
 110   0.0000       0.344180         9.3656 
 111   0.0000       0.351649         9.5689 
 112   0.0000       0.380896        10.3647 
 113   0.0000       0.385753        10.4969 
 114   0.0000       0.394207        10.7269 
 115   0.0000       0.397556        10.8181 
 116   0.0000       0.397920        10.8280 
 117   0.0000       0.418243        11.3810 
 118   0.0000       0.418301        11.3825 
 119   0.0000       0.423277        11.5180 
 120   0.0000       0.424022        11.5382 
 121   0.0000       0.433532        11.7970 
 122   0.0000       0.440804        11.9949 
 123   0.0000       0.449541        12.2326 
 124   0.0000       0.473155        12.8752 
 125   0.0000       0.475166        12.9299 
 126   0.0000       0.487389        13.2625 
 127   0.0000       0.491002        13.3608 
 128   0.0000       0.494911        13.4672 
 129   0.0000       0.506056        13.7705 
 130   0.0000       0.506757        13.7896 
 131   0.0000       0.518898        14.1199 
 132   0.0000       0.520656        14.1678 
 133   0.0000       0.524910        14.2835 
 134   0.0000       0.539933        14.6923 
 135   0.0000       0.543008        14.7760 
 136   0.0000       0.544283        14.8107 
 137   0.0000       0.557048        15.1580 
 138   0.0000       0.562018        15.2933 
 139   0.0000       0.569972        15.5097 
 140   0.0000       0.573857        15.6155 
 141   0.0000       0.584523        15.9057 
 142   0.0000       0.586675        15.9642 
 143   0.0000       0.586971        15.9723 
 144   0.0000       0.588027        16.0010 
 145   0.0000       0.593360        16.1461 
 146   0.0000       0.594104        16.1664 
 147   0.0000       0.615157        16.7393 
 148   0.0000       0.632159        17.2019 
 149   0.0000       0.643975        17.5234 
 150   0.0000       0.645114        17.5544 
 151   0.0000       0.662582        18.0298 
 152   0.0000       0.678378        18.4596 
 153   0.0000       0.685429        18.6515 
 154   0.0000       0.694829        18.9073 
 155   0.0000       0.700779        19.0692 
 156   0.0000       0.703470        19.1424 
 157   0.0000       0.708214        19.2715 
 158   0.0000       0.708775        19.2868 
 159   0.0000       0.712432        19.3863 
 160   0.0000       0.722011        19.6469 
 161   0.0000       0.737494        20.0682 
 162   0.0000       0.737907        20.0795 
 163   0.0000       0.741585        20.1796 
 164   0.0000       0.744911        20.2701 
 165   0.0000       0.749827        20.4038 
 166   0.0000       0.751893        20.4601 
 167   0.0000       0.755309        20.5530 
 168   0.0000       0.760631        20.6978 
 169   0.0000       0.761988        20.7348 
 170   0.0000       0.762929        20.7604 
 171   0.0000       0.767441        20.8831 
 172   0.0000       0.778179        21.1753 
 173   0.0000       0.779928        21.2229 
 174   0.0000       0.780921        21.2499 
 175   0.0000       0.781806        21.2740 
 176   0.0000       0.784529        21.3481 
 177   0.0000       0.789593        21.4859 
 178   0.0000       0.796353        21.6699 
 179   0.0000       0.797220        21.6935 
 180   0.0000       0.806015        21.9328 
 181   0.0000       0.807078        21.9617 
 182   0.0000       0.811566        22.0838 
 183   0.0000       0.822845        22.3907 
 184   0.0000       0.833449        22.6793 
 185   0.0000       0.837670        22.7942 
 186   0.0000       0.840073        22.8595 
 187   0.0000       0.849252        23.1093 
 188   0.0000       0.853480        23.2244 
 189   0.0000       0.859588        23.3906 
 190   0.0000       0.869025        23.6474 
 191   0.0000       0.872044        23.7295 
 192   0.0000       0.875884        23.8340 
 193   0.0000       0.885203        24.0876 
 194   0.0000       0.893736        24.3198 
 195   0.0000       0.896796        24.4031 
 196   0.0000       0.899341        24.4723 
 197   0.0000       0.905892        24.6506 
 198   0.0000       0.917506        24.9666 
 199   0.0000       0.924292        25.1513 
 200   0.0000       0.929495        25.2928 
 201   0.0000       0.936915        25.4948 
 202   0.0000       0.941213        25.6117 
 203   0.0000       0.960128        26.1264 
 204   0.0000       0.994729        27.0680 
 205   0.0000       0.995168        27.0799 
 206   0.0000       1.022535        27.8246 
 207   0.0000       1.024592        27.8806 
 208   0.0000       1.031716        28.0744 
 209   0.0000       1.053512        28.6675 
 210   0.0000       1.079722        29.3807 
 211   0.0000       1.119209        30.4552 
 212   0.0000       1.132797        30.8250 
 213   0.0000       1.186929        32.2980 
 214   0.0000       1.226118        33.3644 
 215   0.0000       1.233113        33.5547 
 216   0.0000       1.235041        33.6072 
 217   0.0000       1.236915        33.6582 
 218   0.0000       1.252148        34.0727 
 219   0.0000       1.259430        34.2708 
 220   0.0000       1.261384        34.3240 
 221   0.0000       1.271491        34.5990 
 222   0.0000       1.274311        34.6758 
 223   0.0000       1.289197        35.0808 
 224   0.0000       1.301385        35.4125 
 225   0.0000       1.309910        35.6445 
 226   0.0000       1.318167        35.8691 
 227   0.0000       1.321324        35.9551 
 228   0.0000       1.325771        36.0761 
 229   0.0000       1.331293        36.2263 
 230   0.0000       1.334996        36.3271 
 231   0.0000       1.345649        36.6170 
 232   0.0000       1.347079        36.6559 
 233   0.0000       1.385655        37.7056 
 234   0.0000       1.385888        37.7119 
 235   0.0000       1.410012        38.3684 
 236   0.0000       1.435690        39.0671 
 237   0.0000       1.439864        39.1807 
 238   0.0000       1.453834        39.5608 
 239   0.0000       1.475812        40.1589 
 240   0.0000       1.511687        41.1351 
 241   0.0000       1.579573        42.9824 
 242   0.0000       1.595723        43.4218 
 243   0.0000       1.602276        43.6001 
 244   0.0000       1.604954        43.6730 
 245   0.0000       1.626149        44.2498 
 246   0.0000       1.627224        44.2790 
 247   0.0000       1.632767        44.4299 
 248   0.0000       1.637350        44.5546 
 249   0.0000       1.644266        44.7427 
 250   0.0000       1.647931        44.8425 
 251   0.0000       1.659717        45.1632 
 252   0.0000       1.660117        45.1741 
 253   0.0000       1.668058        45.3902 
 254   0.0000       1.684971        45.8504 
 255   0.0000       1.699172        46.2368 
 256   0.0000       1.709125        46.5077 
 257   0.0000       1.726608        46.9834 
 258   0.0000       1.741129        47.3785 
 259   0.0000       1.749573        47.6083 
 260   0.0000       1.765707        48.0473 
 261   0.0000       1.787544        48.6416 
 262   0.0000       1.792370        48.7729 
 263   0.0000       1.794727        48.8370 
 264   0.0000       1.797916        48.9238 
 265   0.0000       1.806304        49.1520 
 266   0.0000       1.807073        49.1730 
 267   0.0000       1.825740        49.6809 
 268   0.0000       1.827461        49.7277 
 269   0.0000       1.829974        49.7961 
 270   0.0000       1.837720        50.0069 
 271   0.0000       1.850601        50.3574 
 272   0.0000       1.855873        50.5009 
 273   0.0000       1.862641        50.6850 
 274   0.0000       1.864591        50.7381 
 275   0.0000       1.868332        50.8399 
 276   0.0000       1.887505        51.3616 
 277   0.0000       1.897175        51.6248 
 278   0.0000       1.906162        51.8693 
 279   0.0000       1.910612        51.9904 
 280   0.0000       1.911901        52.0255 
 281   0.0000       1.914294        52.0906 
 282   0.0000       1.919709        52.2379 
 283   0.0000       1.924010        52.3550 
 284   0.0000       1.926703        52.4283 
 285   0.0000       1.929130        52.4943 
 286   0.0000       1.930993        52.5450 
 287   0.0000       1.942093        52.8470 
 288   0.0000       1.950411        53.0734 
 289   0.0000       1.987011        54.0693 
 290   0.0000       1.992663        54.2231 
 291   0.0000       1.998774        54.3894 
 292   0.0000       1.999550        54.4105 
 293   0.0000       2.009009        54.6679 
 294   0.0000       2.012310        54.7577 
 295   0.0000       2.017461        54.8979 
 296   0.0000       2.027480        55.1705 
 297   0.0000       2.052297        55.8458 
 298   0.0000       2.052618        55.8546 
 299   0.0000       2.059386        56.0387 
 300   0.0000       2.070349        56.3371 
 301   0.0000       2.074827        56.4589 
 302   0.0000       2.077942        56.5437 
 303   0.0000       2.079702        56.5916 
 304   0.0000       2.121026        57.7161 
 305   0.0000       2.124619        57.8138 
 306   0.0000       2.130953        57.9862 
 307   0.0000       2.133236        58.0483 
 308   0.0000       2.134519        58.0832 
 309   0.0000       2.143900        58.3385 
 310   0.0000       2.150117        58.5077 
 311   0.0000       2.168834        59.0170 
 312   0.0000       2.186172        59.4888 
 313   0.0000       2.202024        59.9201 
 314   0.0000       2.202037        59.9205 
 315   0.0000       2.207110        60.0585 
 316   0.0000       2.215059        60.2748 
 317   0.0000       2.233344        60.7724 
 318   0.0000       2.245509        61.1034 
 319   0.0000       2.249213        61.2042 
 320   0.0000       2.254245        61.3411 
 321   0.0000       2.300928        62.6114 
 322   0.0000       2.303084        62.6701 
 323   0.0000       2.336535        63.5803 
 324   0.0000       2.344908        63.8082 
 325   0.0000       2.348326        63.9012 
 326   0.0000       2.349169        63.9241 
 327   0.0000       2.368321        64.4453 
 328   0.0000       2.378670        64.7269 
 329   0.0000       2.380218        64.7690 
 330   0.0000       2.386094        64.9289 
 331   0.0000       2.387874        64.9773 
 332   0.0000       2.395668        65.1894 
 333   0.0000       2.404057        65.4177 
 334   0.0000       2.405962        65.4696 
 335   0.0000       2.421153        65.8829 
 336   0.0000       2.476208        67.3811 
 337   0.0000       2.485538        67.6349 
 338   0.0000       2.524004        68.6816 
 339   0.0000       2.528487        68.8036 
 340   0.0000       2.530341        68.8541 
 341   0.0000       2.538418        69.0739 
 342   0.0000       2.542095        69.1739 
 343   0.0000       2.545658        69.2709 
 344   0.0000       2.546667        69.2983 
 345   0.0000       2.563973        69.7693 
 346   0.0000       2.569128        69.9095 
 347   0.0000       2.573823        70.0373 
 348   0.0000       2.627691        71.5031 
 349   0.0000       2.633706        71.6668 
 350   0.0000       2.653626        72.2088 
 351   0.0000       2.655222        72.2523 
 352   0.0000       2.669630        72.6443 
 353   0.0000       2.671722        72.7012 
 354   0.0000       2.677663        72.8629 
 355   0.0000       2.688017        73.1446 
 356   0.0000       2.714198        73.8571 
 357   0.0000       2.722632        74.0866 
 358   0.0000       2.725833        74.1737 
 359   0.0000       2.747626        74.7667 
 360   0.0000       2.774898        75.5088 
 361   0.0000       2.788012        75.8657 
 362   0.0000       2.792401        75.9851 
 363   0.0000       2.825208        76.8778 
 364   0.0000       2.831759        77.0561 
 365   0.0000       2.836337        77.1807 
 366   0.0000       2.843266        77.3692 
 367   0.0000       2.854752        77.6818 
 368   0.0000       2.855824        77.7109 
 369   0.0000       2.871480        78.1369 
 370   0.0000       2.930977        79.7559 
 371   0.0000       2.937622        79.9368 
 372   0.0000       2.958068        80.4931 
 373   0.0000       2.964765        80.6754 
 374   0.0000       2.992861        81.4399 
 375   0.0000       2.995790        81.5196 
 376   0.0000       3.012938        81.9862 
 377   0.0000       3.035834        82.6092 
 378   0.0000       3.044412        82.8427 
 379   0.0000       3.049202        82.9730 
 380   0.0000       3.054672        83.1219 
 381   0.0000       3.058050        83.2138 
 382   0.0000       3.062337        83.3304 
 383   0.0000       3.065881        83.4269 
 384   0.0000       3.072315        83.6019 
 385   0.0000       3.113358        84.7188 
 386   0.0000       3.118810        84.8671 
[...]
 14:    122.31   0.000043    0.22  0.000110  (-0.008061  0.006702 -0.000038)
 15:    134.17   0.000058    0.29  0.000134  ( 0.011318  0.002512 -0.000289)
 16:    149.07   0.000001    0.00  0.000002  ( 0.000147 -0.000002 -0.001242)
 17:    196.79   0.000102    0.52  0.000162  (-0.012084 -0.004053 -0.000011)
 18:    209.80   0.000117    0.59  0.000174  (-0.000067 -0.000050 -0.013174)
 19:    234.91   0.000005    0.03  0.000007  ( 0.000060  0.000250  0.002568)
 20:    235.32   0.000004    0.02  0.000005  ( 0.000476  0.002085 -0.000304)
 21:    283.76   0.000018    0.09  0.000020  ( 0.004386  0.000901  0.000053)
 22:    304.37   0.000002    0.01  0.000002  (-0.000372 -0.001508 -0.000009)
 23:    333.87   0.003612   18.25  0.003376  ( 0.000002 -0.000058 -0.058102)
 24:    357.12   0.002008   10.15  0.001754  ( 0.000027  0.000048  0.041886)
 25:    358.44   0.000012    0.06  0.000010  ( 0.000015  0.000014  0.003176)
 26:    393.80   0.000049    0.25  0.000039  (-0.004414 -0.004376 -0.000016)
 27:    427.43   0.001718    8.68  0.001254  ( 0.035383  0.001533 -0.000018)
 28:    481.98   0.000324    1.64  0.000210  ( 0.001412 -0.014420  0.000017)
 29:    492.95   0.000000    0.00  0.000000  (-0.000001 -0.000010 -0.000387)
 30:    537.45   0.000031    0.16  0.000018  ( 0.000840 -0.004186  0.000105)
 31:    537.51   0.000002    0.01  0.000001  (-0.000220  0.001023  0.000320)
 32:    540.98   0.001163    5.88  0.000671  (-0.000512  0.025895 -0.000031)
 33:    545.81   0.000006    0.03  0.000004  ( 0.000000  0.000024 -0.001882)
 34:    568.61   0.000751    3.79  0.000412  (-0.000009 -0.000021 -0.020301)
 35:    593.38   0.000010    0.05  0.000005  ( 0.000189 -0.000002 -0.002248)
 36:    594.38   0.000368    1.86  0.000193  (-0.013899 -0.000232 -0.000035)
 37:    620.18   0.000129    0.65  0.000065  (-0.008014 -0.000657  0.000002)
 38:    691.78   0.013579   68.62  0.006125  ( 0.001245 -0.078256  0.000088)
 39:    693.07   0.000024    0.12  0.000011  (-0.000009  0.000117  0.003278)
 40:    765.98   0.008661   43.77  0.003528  ( 0.000891  0.059394 -0.000045)
 41:    768.45   0.000016    0.08  0.000007  (-0.000005 -0.000228  0.002562)
 42:    775.40   0.000245    1.24  0.000099  ( 0.000049 -0.000010  0.009936)
 43:    776.54   0.000207    1.04  0.000083  (-0.008989 -0.001501  0.000008)
 44:    783.26   0.000082    0.41  0.000033  (-0.005229  0.002299 -0.000068)
 45:    808.08   0.017134   86.59  0.006617  (-0.005231 -0.001788 -0.081156)
 46:    808.44   0.002994   15.13  0.001156  (-0.029229 -0.009425  0.014585)
 47:    899.38   0.005517   27.88  0.001914  (-0.000406 -0.043752  0.000056)
 48:    911.49   0.000002    0.01  0.000001  ( 0.000021 -0.000030 -0.000837)
 49:    940.71   0.000019    0.09  0.000006  (-0.000951  0.001524  0.001717)
 50:    940.85   0.000021    0.10  0.000007  (-0.001177  0.001897 -0.001370)
 51:    945.60   0.000046    0.23  0.000015  ( 0.000049 -0.000379 -0.003890)
 52:    946.90   0.001004    5.07  0.000331  (-0.001836  0.018095 -0.000114)
 53:    970.93   0.003602   18.20  0.001158  (-0.034021 -0.000415 -0.000014)
 54:    980.65   0.000028    0.14  0.000009  (-0.000017 -0.000010  0.003001)
 55:   1010.43   0.001615    8.16  0.000499  ( 0.022267  0.000012  0.001705)
 56:   1010.65   0.000318    1.61  0.000098  ( 0.004156 -0.000036 -0.008994)
 57:   1040.73   0.000341    1.72  0.000102  ( 0.001740 -0.003750  0.009221)
 58:   1040.76   0.000612    3.09  0.000184  (-0.001248  0.002663  0.013223)
 59:   1057.28   0.001808    9.13  0.000534  (-0.000193  0.000410 -0.023093)
 60:   1057.38   0.000109    0.55  0.000032  (-0.002156  0.004917  0.001860)
 61:   1060.85   0.000582    2.94  0.000171  (-0.009851  0.007454 -0.004310)
 62:   1060.92   0.003344   16.90  0.000984  ( 0.001338 -0.001165 -0.031313)
 63:   1064.42   0.000259    1.31  0.000076  ( 0.000026 -0.000641  0.008688)
 64:   1064.87   0.000821    4.15  0.000241  (-0.002320  0.015334  0.000183)
 65:   1080.87   0.007486   37.83  0.002161  ( 0.046489  0.000011 -0.000001)
 66:   1093.37   0.004473   22.60  0.001277  (-0.000029 -0.000065 -0.035729)
 67:   1110.48   0.000043    0.22  0.000012  (-0.000059  0.000023  0.003495)
 68:   1120.55   0.010351   52.31  0.002883  (-0.053689  0.000392  0.000032)
 69:   1146.54   0.000166    0.84  0.000045  ( 0.000016 -0.000007 -0.006718)
 70:   1175.24   0.000599    3.03  0.000159  (-0.000555  0.012577  0.000768)
 71:   1175.26   0.001315    6.65  0.000349  ( 0.000852 -0.018660  0.000552)
 72:   1246.64   0.012523   63.29  0.003135  (-0.055987  0.000575 -0.000005)
 73:   1262.77   0.008285   41.87  0.002047  (-0.045244  0.000541 -0.000004)
 74:   1281.44   0.000000    0.00  0.000000  ( 0.000048  0.000199 -0.000064)
 75:   1281.72   0.000049    0.25  0.000012  (-0.000704 -0.003396  0.000009)
 76:   1300.01   0.000009    0.04  0.000002  (-0.000016  0.000015  0.001455)
 77:   1308.00   0.001610    8.13  0.000384  (-0.019597 -0.000036  0.000006)
 78:   1332.48   0.000036    0.18  0.000008  ( 0.000006 -0.000625 -0.002824)
 79:   1332.96   0.008319   42.04  0.001948  (-0.001041  0.044118 -0.000086)
 80:   1382.59   0.000832    4.21  0.000188  (-0.000013 -0.000016 -0.013707)
 81:   1395.55   0.000119    0.60  0.000027  (-0.004961  0.001383 -0.000204)
 82:   1395.73   0.000043    0.22  0.000010  (-0.000359  0.000118  0.003077)
 83:   1402.39   0.001352    6.83  0.000301  (-0.017288  0.001441 -0.000034)
 84:   1407.11   0.000016    0.08  0.000003  (-0.000023 -0.000006 -0.001868)
 85:   1425.43   0.000382    1.93  0.000084  ( 0.008750  0.002658 -0.000033)
 86:   1440.40   0.001617    8.17  0.000350  ( 0.000189  0.000080 -0.018717)
 87:   1442.65   0.002170   10.96  0.000469  ( 0.021098  0.004921  0.000073)
 88:   1448.61   0.000728    3.68  0.000157  (-0.000337  0.000100 -0.012518)
 89:   1449.28   0.004631   23.40  0.000997  (-0.012044  0.029189 -0.000191)
 90:   1451.33   0.006681   33.76  0.001436  ( 0.006713  0.002208 -0.037236)
 91:   1451.66   0.003264   16.50  0.000702  ( 0.022169  0.008617  0.011661)
 92:   1452.73   0.003487   17.62  0.000749  (-0.000550 -0.000289 -0.027360)
 93:   1452.97   0.000444    2.25  0.000095  (-0.007897 -0.004515  0.003567)
 94:   1474.19   0.000475    2.40  0.000101  (-0.000000 -0.000005 -0.010028)
 95:   1527.14   0.012559   63.47  0.002566  ( 0.050647  0.001126  0.000005)
 96:   1535.80   0.000069    0.35  0.000014  (-0.000030  0.000164  0.003729)
 97:   1536.22   0.011484   58.04  0.002333  ( 0.003167 -0.048195  0.000056)
 98:   1550.26   0.003243   16.39  0.000653  (-0.000005 -0.000012 -0.025551)
 99:   1644.81   0.000973    4.92  0.000185  ( 0.000557 -0.000023 -0.013575)
100:   1645.27   0.055735  281.66  0.010571  (-0.102805  0.001620 -0.000072)
101:   1695.07   0.002614   13.21  0.000481  ( 0.021938 -0.000049 -0.000011)
102:   1695.72   0.000271    1.37  0.000050  ( 0.000019  0.000001  0.007059)
103:   1707.53   0.000046    0.23  0.000008  ( 0.000002  0.000112  0.002896)
104:   1708.32   0.006327   31.97  0.001156  (-0.000287  0.033995 -0.000046)
105:   3067.25   0.007061   35.68  0.000718  ( 0.009817 -0.024938 -0.000354)
106:   3067.45   0.000208    1.05  0.000021  ( 0.001134 -0.002885  0.003398)
107:   3069.30   0.000514    2.60  0.000052  (-0.004144 -0.002823  0.005211)
108:   3069.52   0.004294   21.70  0.000437  (-0.017073 -0.011982 -0.001237)
109:   3155.90   0.000963    4.87  0.000095  (-0.001787 -0.003278 -0.009018)
110:   3155.96   0.002123   10.73  0.000210  (-0.001066 -0.002035  0.014307)
111:   3157.66   0.000809    4.09  0.000080  ( 0.005383  0.002129  0.006812)
112:   3157.80   0.000805    4.07  0.000080  ( 0.005595  0.002235 -0.006579)
113:   3191.86   0.003455   17.46  0.000338  (-0.010960 -0.014749  0.000368)
114:   3191.91   0.000335    1.69  0.000033  (-0.000718 -0.000860 -0.005612)
115:   3192.74   0.003496   17.67  0.000342  (-0.014142  0.011879  0.000791)
116:   3192.77   0.000335    1.69  0.000033  ( 0.003828 -0.003134  0.002870)
117:   3214.38   0.000068    0.35  0.000007  ( 0.002528 -0.000493  0.000019)
118:   3214.39   0.000012    0.06  0.000001  (-0.000046  0.000010  0.001069)
119:   3221.87   0.001342    6.78  0.000130  ( 0.000018  0.011363  0.000906)
120:   3221.87   0.001486    7.51  0.000144  ( 0.000017  0.011964 -0.000885)
121:   3233.68   0.002807   14.18  0.000271  (-0.016448  0.000528  0.000187)
122:   3233.69   0.000294    1.49  0.000028  (-0.000584  0.000013 -0.005296)
123:   3295.94   0.015217   76.90  0.001441  ( 0.000002  0.000044  0.037957)
124:   3300.84   0.007625   38.53  0.000721  (-0.026849  0.000106  0.000003)
125:   3319.19   0.004026   20.35  0.000379  (-0.000001  0.000025  0.019457)

* The epsilon (eps) is given for a Dirac delta lineshape.
** The dipole moment derivative (T) already includes vibrational overlap.

The first frequency considered to be a vibration is 6
The total number of vibrations considered is 120


--------------------------
THERMOCHEMISTRY AT 298.15K
--------------------------

Temperature         ... 298.15 K
Pressure            ... 1.00 atm
Total Mass          ... 277.39 AMU

Throughout the following assumptions are being made:
  (1) The electronic state is orbitally nondegenerate
  (2) There are no thermally accessible electronically excited states
  (3) Hindered rotations indicated by low frequency modes are not
      treated as such but are treated as vibrations and this may
      cause some error
  (4) All equations used are the standard statistical mechanics
      equations for an ideal gas
  (5) All vibrations are strictly harmonic

freq.       6.04  E(vib)   ...       0.58 
freq.       7.86  E(vib)   ...       0.58 
freq.      51.81  E(vib)   ...       0.52 
freq.      59.83  E(vib)   ...       0.51 
freq.      88.28  E(vib)   ...       0.48 
freq.      90.02  E(vib)   ...       0.47 
freq.     112.62  E(vib)   ...       0.45 
freq.     120.63  E(vib)   ...       0.44 
freq.     122.31  E(vib)   ...       0.43 
freq.     134.17  E(vib)   ...       0.42 
freq.     149.07  E(vib)   ...       0.40 
freq.     196.79  E(vib)   ...       0.36 
freq.     209.80  E(vib)   ...       0.34 
freq.     234.91  E(vib)   ...       0.32 
freq.     235.32  E(vib)   ...       0.32 
freq.     283.76  E(vib)   ...       0.28 
freq.     304.37  E(vib)   ...       0.26 
freq.     333.87  E(vib)   ...       0.24 
freq.     357.12  E(vib)   ...       0.22 
freq.     358.44  E(vib)   ...       0.22 
freq.     393.80  E(vib)   ...       0.20 
freq.     427.43  E(vib)   ...       0.18 
freq.     481.98  E(vib)   ...       0.15 
freq.     492.95  E(vib)   ...       0.14 
freq.     537.45  E(vib)   ...       0.12 
freq.     537.51  E(vib)   ...       0.12 
freq.     540.98  E(vib)   ...       0.12 
freq.     545.81  E(vib)   ...       0.12 
freq.     568.61  E(vib)   ...       0.11 
freq.     593.38  E(vib)   ...       0.10 
freq.     594.38  E(vib)   ...       0.10 
freq.     620.18  E(vib)   ...       0.09 
freq.     691.78  E(vib)   ...       0.07 
freq.     693.07  E(vib)   ...       0.07 
freq.     765.98  E(vib)   ...       0.06 
freq.     768.45  E(vib)   ...       0.06 
freq.     775.40  E(vib)   ...       0.05 
freq.     776.54  E(vib)   ...       0.05 
freq.     783.26  E(vib)   ...       0.05 
freq.     808.08  E(vib)   ...       0.05 
freq.     808.44  E(vib)   ...       0.05 
freq.     899.38  E(vib)   ...       0.03 
freq.     911.49  E(vib)   ...       0.03 
freq.     940.71  E(vib)   ...       0.03 
freq.     940.85  E(vib)   ...       0.03 
freq.     945.60  E(vib)   ...       0.03 
freq.     946.90  E(vib)   ...       0.03 
freq.     970.93  E(vib)   ...       0.03 
freq.     980.65  E(vib)   ...       0.02 
freq.    1010.43  E(vib)   ...       0.02 
freq.    1010.65  E(vib)   ...       0.02 
freq.    1040.73  E(vib)   ...       0.02 
freq.    1040.76  E(vib)   ...       0.02 
freq.    1057.28  E(vib)   ...       0.02 
freq.    1057.38  E(vib)   ...       0.02 
freq.    1060.85  E(vib)   ...       0.02 
freq.    1060.92  E(vib)   ...       0.02 
freq.    1064.42  E(vib)   ...       0.02 
freq.    1064.87  E(vib)   ...       0.02 
freq.    1080.87  E(vib)   ...       0.02 
freq.    1093.37  E(vib)   ...       0.02 
freq.    1110.48  E(vib)   ...       0.02 
freq.    1120.55  E(vib)   ...       0.01 
freq.    1146.54  E(vib)   ...       0.01 
freq.    1175.24  E(vib)   ...       0.01 
freq.    1175.26  E(vib)   ...       0.01 
freq.    1246.64  E(vib)   ...       0.01 
freq.    1262.77  E(vib)   ...       0.01 
freq.    1281.44  E(vib)   ...       0.01 
freq.    1281.72  E(vib)   ...       0.01 
freq.    1300.01  E(vib)   ...       0.01 
freq.    1308.00  E(vib)   ...       0.01 
freq.    1332.48  E(vib)   ...       0.01 
freq.    1332.96  E(vib)   ...       0.01 
freq.    1382.59  E(vib)   ...       0.01 
freq.    1395.55  E(vib)   ...       0.00 
freq.    1395.73  E(vib)   ...       0.00 
freq.    1402.39  E(vib)   ...       0.00 
freq.    1407.11  E(vib)   ...       0.00 
freq.    1425.43  E(vib)   ...       0.00 
freq.    1440.40  E(vib)   ...       0.00 
freq.    1442.65  E(vib)   ...       0.00 
freq.    1448.61  E(vib)   ...       0.00 
freq.    1449.28  E(vib)   ...       0.00 
freq.    1451.33  E(vib)   ...       0.00 
freq.    1451.66  E(vib)   ...       0.00 
freq.    1452.73  E(vib)   ...       0.00 
freq.    1452.97  E(vib)   ...       0.00 
freq.    1474.19  E(vib)   ...       0.00 
freq.    1527.14  E(vib)   ...       0.00 
freq.    1535.80  E(vib)   ...       0.00 
freq.    1536.22  E(vib)   ...       0.00 
freq.    1550.26  E(vib)   ...       0.00 
freq.    1644.81  E(vib)   ...       0.00 
freq.    1645.27  E(vib)   ...       0.00 
freq.    1695.07  E(vib)   ...       0.00 
freq.    1695.72  E(vib)   ...       0.00 
freq.    1707.53  E(vib)   ...       0.00 
freq.    1708.32  E(vib)   ...       0.00 
freq.    3067.25  E(vib)   ...       0.00 
freq.    3067.45  E(vib)   ...       0.00 
freq.    3069.30  E(vib)   ...       0.00 
freq.    3069.52  E(vib)   ...       0.00 
freq.    3155.90  E(vib)   ...       0.00 
freq.    3155.96  E(vib)   ...       0.00 
freq.    3157.66  E(vib)   ...       0.00 
freq.    3157.80  E(vib)   ...       0.00 
freq.    3191.86  E(vib)   ...       0.00 
freq.    3191.91  E(vib)   ...       0.00 
freq.    3192.74  E(vib)   ...       0.00 
freq.    3192.77  E(vib)   ...       0.00 
freq.    3214.38  E(vib)   ...       0.00 
freq.    3214.39  E(vib)   ...       0.00 
freq.    3221.87  E(vib)   ...       0.00 
freq.    3221.87  E(vib)   ...       0.00 
freq.    3233.68  E(vib)   ...       0.00 
freq.    3233.69  E(vib)   ...       0.00 
freq.    3295.94  E(vib)   ...       0.00 
freq.    3300.84  E(vib)   ...       0.00 
freq.    3319.19  E(vib)   ...       0.00 

------------
INNER ENERGY
------------

The inner energy is: U= E(el) + E(ZPE) + E(vib) + E(rot) + E(trans)
    E(el)   - is the total energy from the electronic structure calculation
              = E(kin-el) + E(nuc-el) + E(el-el) + E(nuc-nuc)
    E(ZPE)  - the the zero temperature vibrational energy from the frequency calculation
    E(vib)  - the the finite temperature correction to E(ZPE) due to population
              of excited vibrational states
    E(rot)  - is the rotational thermal energy
    E(trans)- is the translational thermal energy

Summary of contributions to the inner energy U:
Electronic energy                ...   -845.24582276 Eh
Zero point energy                ...      0.35894878 Eh     225.24 kcal/mol
Thermal vibrational correction   ...      0.01687304 Eh      10.59 kcal/mol
Thermal rotational correction    ...      0.00141627 Eh       0.89 kcal/mol
Thermal translational correction ...      0.00141627 Eh       0.89 kcal/mol
-----------------------------------------------------------------------
Total thermal energy                   -844.86716839 Eh


Summary of corrections to the electronic energy:
(perhaps to be used in another calculation)
Total thermal correction                  0.01970559 Eh      12.37 kcal/mol
Non-thermal (ZPE) correction              0.35894878 Eh     225.24 kcal/mol
-----------------------------------------------------------------------
Total correction                          0.37865436 Eh     237.61 kcal/mol


--------
ENTHALPY
--------

The enthalpy is H = U + kB*T
                kB is Boltzmann's constant
Total free energy                 ...   -844.86716839 Eh 
Thermal Enthalpy correction       ...      0.00094421 Eh       0.59 kcal/mol
-----------------------------------------------------------------------
Total Enthalpy                    ...   -844.86622418 Eh


Note: Only C1 symmetry has been detected, increase convergence thresholds 
      if your molecule has a higher symmetry. Symmetry factor of 1.0 is   
      used for the rotational entropy correction. 
 

Note: Rotational entropy computed according to Herzberg 
Infrared and Raman Spectra, Chapter V,1, Van Nostrand Reinhold, 1945 
Point Group:  C1, Symmetry Number:   1  
Rotational constants in cm-1:     0.023145     0.005946     0.005198 

Vibrational entropy computed according to the QRRHO of S. Grimme
Chem.Eur.J. 2012 18 9955


-------
ENTROPY
-------

The entropy contributions are T*S = T*(S(el)+S(vib)+S(rot)+S(trans))
     S(el)   - electronic entropy
     S(vib)  - vibrational entropy
     S(rot)  - rotational entropy
     S(trans)- translational entropy
The entropies will be listed as multiplied by the temperature to get
units of energy

Electronic entropy                ...      0.00000000 Eh      0.00 kcal/mol
Vibrational entropy               ...      0.03111813 Eh     19.53 kcal/mol
Rotational entropy                ...      0.01619110 Eh     10.16 kcal/mol
Translational entropy             ...      0.02031620 Eh     12.75 kcal/mol
-----------------------------------------------------------------------
Final entropy term                ...      0.06762543 Eh     42.44 kcal/mol

In case the symmetry of your molecule has not been determined correctly
or in case you have a reason to use a different symmetry number we print 
out the resulting rotational entropy values for sn=1,12 :
 --------------------------------------------------------
|  sn= 1 | S(rot)=       0.01619110 Eh     10.16 kcal/mol|
|  sn= 2 | S(rot)=       0.01553664 Eh      9.75 kcal/mol|
|  sn= 3 | S(rot)=       0.01515381 Eh      9.51 kcal/mol|
|  sn= 4 | S(rot)=       0.01488218 Eh      9.34 kcal/mol|
|  sn= 5 | S(rot)=       0.01467149 Eh      9.21 kcal/mol|
|  sn= 6 | S(rot)=       0.01449935 Eh      9.10 kcal/mol|
|  sn= 7 | S(rot)=       0.01435380 Eh      9.01 kcal/mol|
|  sn= 8 | S(rot)=       0.01422773 Eh      8.93 kcal/mol|
|  sn= 9 | S(rot)=       0.01411652 Eh      8.86 kcal/mol|
|  sn=10 | S(rot)=       0.01401704 Eh      8.80 kcal/mol|
|  sn=11 | S(rot)=       0.01392705 Eh      8.74 kcal/mol|
|  sn=12 | S(rot)=       0.01384489 Eh      8.69 kcal/mol|
 --------------------------------------------------------


-------------------
GIBBS FREE ENERGY
-------------------

The Gibbs free energy is G = H - T*S

Total enthalpy                    ...   -844.86622418 Eh 
Total entropy correction          ...     -0.06762543 Eh    -42.44 kcal/mol
-----------------------------------------------------------------------
Final Gibbs free energy         ...   -844.93384961 Eh

For completeness - the Gibbs free energy minus the electronic energy
G-E(el)                           ...      0.31197314 Eh    195.77 kcal/mol


Timings for individual modules:

Sum of individual times         ...     8914.118 sec (= 148.569 min)
GTO integral calculation        ...        1.540 sec (=   0.026 min)   0.0 %
SCF iterations                  ...     1913.185 sec (=  31.886 min)  21.5 %
SCF Gradient evaluation         ...      273.860 sec (=   4.564 min)   3.1 %
Geometry relaxation             ...        0.191 sec (=   0.003 min)   0.0 %
Analytical frequency calculation...     6725.343 sec (= 112.089 min)  75.4 %
                             ****ORCA TERMINATED NORMALLY****
TOTAL RUN TIME: 0 days 2 hours 28 minutes 35 seconds 27 msec
