
                                 *****************
                                 * O   R   C   A *
                                 *****************

                                            #,                                       
                                            ###                                      
                                            ####                                     
                                            #####                                    
                                            ######                                   
                                           ########,                                 
                                     ,,################,,,,,                         
                               ,,#################################,,                 
                          ,,##########################################,,             
                       ,#########################################, ''#####,          
                    ,#############################################,,   '####,        
                  ,##################################################,,,,####,       
                ,###########''''           ''''###############################       
              ,#####''   ,,,,##########,,,,          '''####'''          '####       
            ,##' ,,,,###########################,,,                        '##       
           ' ,,###''''                  '''############,,,                           
         ,,##''                                '''############,,,,        ,,,,,,###''
      ,#''                                            '''#######################'''  
     '                                                          ''''####''''         
             ,#######,   #######,   ,#######,      ##                                
            ,#'     '#,  ##    ##  ,#'     '#,    #''#        ######   ,####,        
            ##       ##  ##   ,#'  ##            #'  '#       #        #'  '#        
            ##       ##  #######   ##           ,######,      #####,   #    #        
            '#,     ,#'  ##    ##  '#,     ,#' ,#      #,         ##   #,  ,#        
             '#######'   ##     ##  '#######'  #'      '#     #####' # '####'        



                  #######################################################
                  #                        -***-                        #
                  #          Department of theory and spectroscopy      #
                  #    Directorship and core code : Frank Neese         #
                  #        Max Planck Institute fuer Kohlenforschung    #
                  #                Kaiser Wilhelm Platz 1               #
                  #                 D-45470 Muelheim/Ruhr               #
                  #                      Germany                        #
                  #                                                     #
                  #                  All rights reserved                #
                  #                        -***-                        #
                  #######################################################


                         Program Version 5.0.4 -  RELEASE  -


 With contributions from (in alphabetic order):
   Daniel Aravena         : Magnetic Suceptibility
   Michael Atanasov       : Ab Initio Ligand Field Theory (pilot matlab implementation)
   Alexander A. Auer      : GIAO ZORA, VPT2 properties, NMR spectrum
   Ute Becker             : Parallelization
   Giovanni Bistoni       : ED, misc. LED, open-shell LED, HFLD
   Martin Brehm           : Molecular dynamics
   Dmytro Bykov           : SCF Hessian
   Vijay G. Chilkuri      : MRCI spin determinant printing, contributions to CSF-ICE
   Dipayan Datta          : RHF DLPNO-CCSD density
   Achintya Kumar Dutta   : EOM-CC, STEOM-CC
   Dmitry Ganyushin       : Spin-Orbit,Spin-Spin,Magnetic field MRCI
   Miquel Garcia          : C-PCM and meta-GGA Hessian, CC/C-PCM, Gaussian charge scheme
   Yang Guo               : DLPNO-NEVPT2, F12-NEVPT2, CIM, IAO-localization
   Andreas Hansen         : Spin unrestricted coupled pair/coupled cluster methods
   Benjamin Helmich-Paris : MC-RPA, TRAH-SCF, COSX integrals
   Lee Huntington         : MR-EOM, pCC
   Robert Izsak           : Overlap fitted RIJCOSX, COSX-SCS-MP3, EOM
   Marcus Kettner         : VPT2
   Christian Kollmar      : KDIIS, OOCD, Brueckner-CCSD(T), CCSD density, CASPT2, CASPT2-K
   Simone Kossmann        : Meta GGA functionals, TD-DFT gradient, OOMP2, MP2 Hessian
   Martin Krupicka        : Initial AUTO-CI
   Lucas Lang             : DCDCAS
   Marvin Lechner         : AUTO-CI (C++ implementation), FIC-MRCC
   Dagmar Lenk            : GEPOL surface, SMD
   Dimitrios Liakos       : Extrapolation schemes; Compound Job, initial MDCI parallelization
   Dimitrios Manganas     : Further ROCIS development; embedding schemes
   Dimitrios Pantazis     : SARC Basis sets
   Anastasios Papadopoulos: AUTO-CI, single reference methods and gradients
   Taras Petrenko         : DFT Hessian,TD-DFT gradient, ASA, ECA, R-Raman, ABS, FL, XAS/XES, NRVS
   Peter Pinski           : DLPNO-MP2, DLPNO-MP2 Gradient
   Christoph Reimann      : Effective Core Potentials
   Marius Retegan         : Local ZFS, SOC
   Christoph Riplinger    : Optimizer, TS searches, QM/MM, DLPNO-CCSD(T), (RO)-DLPNO pert. Triples
   Tobias Risthaus        : Range-separated hybrids, TD-DFT gradient, RPA, STAB
   Michael Roemelt        : Original ROCIS implementation
   Masaaki Saitow         : Open-shell DLPNO-CCSD energy and density
   Barbara Sandhoefer     : DKH picture change effects
   Avijit Sen             : IP-ROCIS
   Kantharuban Sivalingam : CASSCF convergence, NEVPT2, FIC-MRCI
   Bernardo de Souza      : ESD, SOC TD-DFT
   Georgi Stoychev        : AutoAux, RI-MP2 NMR, DLPNO-MP2 response
   Willem Van den Heuvel  : Paramagnetic NMR
   Boris Wezisla          : Elementary symmetry handling
   Frank Wennmohs         : Technical directorship


 We gratefully acknowledge several colleagues who have allowed us to
 interface, adapt or use parts of their codes:
   Stefan Grimme, W. Hujo, H. Kruse, P. Pracht,  : VdW corrections, initial TS optimization,
                  C. Bannwarth, S. Ehlert          DFT functionals, gCP, sTDA/sTD-DF
   Ed Valeev, F. Pavosevic, A. Kumar             : LibInt (2-el integral package), F12 methods
   Garnet Chan, S. Sharma, J. Yang, R. Olivares  : DMRG
   Ulf Ekstrom                                   : XCFun DFT Library
   Mihaly Kallay                                 : mrcc  (arbitrary order and MRCC methods)
   Jiri Pittner, Ondrej Demel                    : Mk-CCSD
   Frank Weinhold                                : gennbo (NPA and NBO analysis)
   Christopher J. Cramer and Donald G. Truhlar   : smd solvation model
   Lars Goerigk                                  : TD-DFT with DH, B97 family of functionals
   V. Asgeirsson, H. Jonsson                     : NEB implementation
   FAccTs GmbH                                   : IRC, NEB, NEB-TS, DLPNO-Multilevel, CI-OPT
                                                   MM, QMMM, 2- and 3-layer-ONIOM, Crystal-QMMM,
                                                   LR-CPCM, SF, NACMEs, symmetry and pop. for TD-DFT,
                                                   nearIR, NL-DFT gradient (VV10), updates on ESD,
                                                   ML-optimized integration grids
   S Lehtola, MJT Oliveira, MAL Marques          : LibXC Library
   Liviu Ungur et al                             : ANISO software


 Your calculation uses the libint2 library for the computation of 2-el integrals
 For citations please refer to: http://libint.valeyev.net

 Your ORCA version has been built with support for libXC version: 5.1.0
 For citations please refer to: https://tddft.org/programs/libxc/

 This ORCA versions uses:
   CBLAS   interface :  Fast vector & matrix operations
   LAPACKE interface :  Fast linear algebra routines
   SCALAPACK package :  Parallel linear algebra routines
   Shared memory     :  Shared parallel matrices
   BLAS/LAPACK       :  OpenBLAS 0.3.15  USE64BITINT DYNAMIC_ARCH NO_AFFINITY SkylakeX SINGLE_THREADED
        Core in use  :  SkylakeX
   Copyright (c) 2011-2014, The OpenBLAS Project




***************************************
The coordinates will be read from file: 8_prot_aq_2.xyz
***************************************


Your calculation utilizes the atom-pairwise dispersion correction
based on tight binding partial charges (D4)
Cite in your paper:
E.Caldeweyher, C.Bannwarth, S.Grimme, J.Chem.Phys., (2017), 147, 034112.
E.Caldeweyher, S.Ehlert, A.Hansen, H.Neugebauer, S.Grimme, J.Chem.Phys., (2018), in progress.
   

XCFun DFT library Copyright 2009-2010 Ulf Ekstrom and contributors.
See http://admol.org/xcfun for more information.
This is free software; see the source code for copying conditions.
There is ABSOLUTELY NO WARRANTY; not even for MERCHANTABILITY or FITNESS FOR A PARTICULAR PURPOSE.
For details see the documentation.
Scientific users of this library should cite U. Ekstrom, L. Visscher, R. Bast, A. J. Thorvaldsen and K. Ruud;
J.Chem.Theor.Comp. 2010, DOI: 10.1021/ct100117s
XCFun Version 0.99 

================================================================================

----- Orbital basis set information -----
Your calculation utilizes the basis: def2-SVP
   F. Weigend and R. Ahlrichs, Phys. Chem. Chem. Phys. 7, 3297 (2005).

----- AuxJ basis set information -----
Your calculation utilizes the auxiliary basis: def2/J
   F. Weigend, Phys. Chem. Chem. Phys. 8, 1057 (2006).

================================================================================
                                        WARNINGS
                       Please study these warnings very carefully!
================================================================================


INFO   : the flag for use of the SHARK integral package has been found!

================================================================================
                                       INPUT FILE
================================================================================
NAME = 8_prot_aq_2.inp
|  1> # ORCA 5.0.4 - /users/bwb16179/postgrad/2024_03/DFT_Crest_Conformers/Opt/prot/8_prot_aq_2.inp # write input file
|  2> # Basic Mode
|  3> #
|  4> ! Freq wB97X Def2-SVP D4 SlowConv TightSCF Defgrid2 Def2/J RIJCOSX CPCM(Water)
|  5> 
|  6> 
|  7> 
|  8> %maxcore 4500
|  9> 
| 10> %geom
| 11> Maxiter 150
| 12> END
| 13> 
| 14> * xyzfile 1 1 8_prot_aq_2.xyz
| 15> 
| 16>                          ****END OF INPUT****
================================================================================

                       ****************************
                       * Single Point Calculation *
                       ****************************

---------------------------------
CARTESIAN COORDINATES (ANGSTROEM)
---------------------------------
  N     -1.074990   -0.045240    0.493930
  C      0.000930   -0.033640   -0.334380
  N      1.085340   -0.105320    0.477050
  H     -0.004160    0.039670   -1.479490
  C      0.691040   -0.162260    1.875210
  C     -0.667070   -0.125080    1.885800
  C     -2.446640    0.048480    0.040430
  C      2.450990   -0.075950   -0.003460
  C     -2.962030   -1.003000   -0.758670
  C     -3.194540    1.187720    0.453830
  C      3.211290    1.077920    0.262670
  C      2.947630   -1.200230   -0.684610
  H      1.416630   -0.215310    2.732830
  H     -1.386030   -0.132980    2.754780
  C     -4.306930   -0.892820   -1.143580
  C     -2.098240   -2.185950   -1.215490
  C     -4.532890    1.253100    0.044500
  C      4.540200    1.084960   -0.183740
  C      5.068430   -0.015650   -0.866350
  C      4.281190   -1.144520   -1.117140
  C     -5.083410    0.220790   -0.743320
  H     -5.146270    2.127800    0.347150
  C      2.081160   -2.411660   -0.939930
  C      2.618180    2.253810    1.004030
  H      5.164320    1.968260    0.008420
  H      6.111490    0.005940   -1.206790
  H      4.706290   -2.005080   -1.649070
  H     -6.134510    0.286020   -1.051480
  H     -4.748170   -1.699920   -1.756690
  C     -2.570930    2.293700    1.292850
  H     -1.576540   -1.913310   -2.288570
  H     -2.831350   -3.081590   -1.329740
  H     -1.203860   -2.478240   -0.427940
  H     -1.535720    2.556340    0.894820
  H     -2.442950    1.994580    2.388080
  H     -3.235460    3.190560    1.258420
  H      1.566520    2.464070    0.619870
  H      3.278410    3.165830    0.852320
  H      2.542630    2.050530    2.135650
  H      1.351410   -2.199160   -1.769540
  H      1.481150   -2.701560   -0.023450
  H      2.723900   -3.281130   -1.239700

----------------------------
CARTESIAN COORDINATES (A.U.)
----------------------------
  NO LB      ZA    FRAG     MASS         X           Y           Z
   0 N     7.0000    0    14.007   -2.031437   -0.085491    0.933392
   1 C     6.0000    0    12.011    0.001757   -0.063570   -0.631887
   2 N     7.0000    0    14.007    2.050995   -0.199026    0.901494
   3 H     1.0000    0     1.008   -0.007861    0.074965   -2.795831
   4 C     6.0000    0    12.011    1.305876   -0.306627    3.543633
   5 C     6.0000    0    12.011   -1.260580   -0.236367    3.563646
   6 C     6.0000    0    12.011   -4.623480    0.091614    0.076402
   7 C     6.0000    0    12.011    4.631700   -0.143525   -0.006538
   8 C     6.0000    0    12.011   -5.597426   -1.895395   -1.433679
   9 C     6.0000    0    12.011   -6.036806    2.244466    0.857614
  10 C     6.0000    0    12.011    6.068459    2.036974    0.496374
  11 C     6.0000    0    12.011    5.570213   -2.268106   -1.293725
  12 H     1.0000    0     1.008    2.677043   -0.406877    5.164300
  13 H     1.0000    0     1.008   -2.619217   -0.251296    5.205780
  14 C     6.0000    0    12.011   -8.138918   -1.687185   -2.161053
  15 C     6.0000    0    12.011   -3.965099   -4.130847   -2.296943
  16 C     6.0000    0    12.011   -8.565921    2.368016    0.084093
  17 C     6.0000    0    12.011    8.579735    2.050277   -0.347218
  18 C     6.0000    0    12.011    9.577945   -0.029574   -1.637164
  19 C     6.0000    0    12.011    8.090277   -2.162829   -2.111089
  20 C     6.0000    0    12.011   -9.606253    0.417233   -1.404671
  21 H     1.0000    0     1.008   -9.725041    4.020959    0.656018
  22 C     6.0000    0    12.011    3.932822   -4.557377   -1.776210
  23 C     6.0000    0    12.011    4.947643    4.259084    1.897342
  24 H     1.0000    0     1.008    9.759150    3.719472    0.015911
  25 H     1.0000    0     1.008   11.549042    0.011225   -2.280503
  26 H     1.0000    0     1.008    8.893599   -3.789052   -3.116291
  27 H     1.0000    0     1.008  -11.592544    0.540499   -1.987009
  28 H     1.0000    0     1.008   -8.972741   -3.212383   -3.319663
  29 C     6.0000    0    12.011   -4.858354    4.334465    2.443132
  30 H     1.0000    0     1.008   -2.979229   -3.615632   -4.324771
  31 H     1.0000    0     1.008   -5.350476   -5.823361   -2.512844
  32 H     1.0000    0     1.008   -2.274966   -4.683195   -0.808689
  33 H     1.0000    0     1.008   -2.902090    4.830783    1.690965
  34 H     1.0000    0     1.008   -4.616506    3.769210    4.512817
  35 H     1.0000    0     1.008   -6.114133    6.029285    2.378069
  36 H     1.0000    0     1.008    2.960294    4.656417    1.171385
  37 H     1.0000    0     1.008    6.195297    5.982552    1.610651
  38 H     1.0000    0     1.008    4.804874    3.874940    4.035794
  39 H     1.0000    0     1.008    2.553795   -4.155810   -3.343946
  40 H     1.0000    0     1.008    2.798968   -5.105209   -0.044314
  41 H     1.0000    0     1.008    5.147425   -6.200437   -2.342693

--------------------------------
INTERNAL COORDINATES (ANGSTROEM)
--------------------------------
 N      0   0   0     0.000000000000     0.00000000     0.00000000
 C      1   0   0     1.357879178167     0.00000000     0.00000000
 N      2   1   0     1.356282314048   105.55253763     0.00000000
 H      2   1   3     1.147465544711   127.28509978   180.95081749
 C      3   2   1     1.453810867754   111.13656357   359.88422628
 C      5   3   2     1.358660101939   106.11300373     0.09883662
 C      1   2   3     1.447711784472   123.99256931   178.47181528
 C      3   2   1     1.448016705532   123.67367861   182.06788868
 C      7   1   2     1.417673394157   118.22936597    64.55136261
 C      7   1   2     1.424121394966   117.28573933   243.38933595
 C      8   3   2     1.407230344968   117.60823770   109.39049779
 C      8   3   2     1.405212485890   118.55149691   288.35053990
 H      5   3   2     1.124636481269   124.07295597   180.63482147
 H      6   5   3     1.127870618466   130.01622749   180.94948905
 C      9   7   1     1.403228901676   116.41143963   178.15204311
 C      9   7   1     1.534336462123   122.34325140   356.64006936
 C     10   7   1     1.401073272816   117.01198707   181.83188492
 C     11   8   3     1.401903433836   117.13233410   178.76415068
 C     18  11   8     1.398687140536   120.62733127     0.19454162
 C     19  18  11     1.398924557866   120.66036137     0.00000000
 C     17  10   7     1.410459697723   120.12380450   359.89728365
 H     17  10   7     1.110374773173   118.99978941   180.08172345
 C     12   8   3     1.511132425766   121.37565714     1.07767743
 C     11   8   3     1.511327699012   121.24561967   359.04782191
 H     18  11   8     1.098485379966   119.13805251   180.13922291
 H     19  18  11     1.097424113686   119.66113426   180.13534437
 H     20  19  18     1.097370971231   120.11374439   180.30858594
 H     21  17  10     1.097282437889   119.15936011   179.74229171
 H     15   9   7     1.105444263498   118.51366194   180.75749923
 C     10   7   1     1.521852736930   121.74889842     2.32809410
 H     16   9   7     1.223929796189   109.22387262   270.15321593
 H     16   9   7     1.163045288972   105.55159485   151.05549444
 H     16   9   7     1.227022424815   113.76047951    30.58761940
 H     30  10   7     1.139766377202   110.31082146    43.68784608
 H     30  10   7     1.142532453675   112.58961554   284.16416580
 H     30  10   7     1.116755750108   108.83246330   164.65261319
 H     24  11   8     1.139200126756   109.90561901   316.98850061
 H     24  11   8     1.136089810446   109.33111407   196.06163199
 H     24  11   8     1.152212821184   111.72996217    76.42637216
 H     23  12   8     1.125141797553   110.18579668    75.35642900
 H     23  12   8     1.133132649119   111.84290618   315.80854102
 H     23  12   8     1.122031568807   109.74905421   195.04271642

---------------------------
INTERNAL COORDINATES (A.U.)
---------------------------
 N      0   0   0     0.000000000000     0.00000000     0.00000000
 C      1   0   0     2.566019769690     0.00000000     0.00000000
 N      2   1   0     2.563002133832   105.55253763     0.00000000
 H      2   1   3     2.168395627615   127.28509978   180.95081749
 C      3   2   1     2.747304390574   111.13656357   359.88422628
 C      5   3   2     2.567495501750   106.11300373     0.09883662
 C      1   2   3     2.735778793503   123.99256931   178.47181528
 C      3   2   1     2.736355010799   123.67367861   182.06788868
 C      7   1   2     2.679014462303   118.22936597    64.55136261
 C      7   1   2     2.691199417944   117.28573933   243.38933595
 C      8   3   2     2.659279959334   117.60823770   109.39049779
 C      8   3   2     2.655466758298   118.55149691   288.35053990
 H      5   3   2     2.125254949814   124.07295597   180.63482147
 H      6   5   3     2.131366583398   130.01622749   180.94948905
 C      9   7   1     2.651718327372   116.41143963   178.15204311
 C      9   7   1     2.899475710702   122.34325140   356.64006936
 C     10   7   1     2.647644779179   117.01198707   181.83188492
 C     11   8   3     2.649213556153   117.13233410   178.76415068
 C     18  11   8     2.643135642650   120.62733127     0.19454162
 C     19  18  11     2.643584296383   120.66036137     0.00000000
 C     17  10   7     2.665382551629   120.12380450   359.89728365
 H     17  10   7     2.098304227313   118.99978941   180.08172345
 C     12   8   3     2.855626436785   121.37565714     1.07767743
 C     11   8   3     2.855995449741   121.24561967   359.04782191
 H     18  11   8     2.075836530253   119.13805251   180.13922291
 H     19  18  11     2.073831027628   119.66113426   180.13534437
 H     20  19  18     2.073730602941   120.11374439   180.30858594
 H     21  17  10     2.073563299172   119.15936011   179.74229171
 H     15   9   7     2.088986914325   118.51366194   180.75749923
 C     10   7   1     2.875884888955   121.74889842     2.32809410
 H     16   9   7     2.312892121944   109.22387262   270.15321593
 H     16   9   7     2.197837077504   105.55159485   151.05549444
 H     16   9   7     2.318736343081   113.76047951    30.58761940
 H     30  10   7     2.153846309563   110.31082146    43.68784608
 H     30  10   7     2.159073436562   112.58961554   284.16416580
 H     30  10   7     2.110362526187   108.83246330   164.65261319
 H     24  11   8     2.152776251296   109.90561901   316.98850061
 H     24  11   8     2.146898605282   109.33111407   196.06163199
 H     24  11   8     2.177366680030   111.72996217    76.42637216
 H     23  12   8     2.126209859202   110.18579668    75.35642900
 H     23  12   8     2.141310380240   111.84290618   315.80854102
 H     23  12   8     2.120332378660   109.74905421   195.04271642

---------------------
BASIS SET INFORMATION
---------------------
There are 3 groups of distinct atoms

 Group   1 Type N   : 7s4p1d contracted to 3s2p1d pattern {511/31/1}
 Group   2 Type C   : 7s4p1d contracted to 3s2p1d pattern {511/31/1}
 Group   3 Type H   : 4s1p contracted to 2s1p pattern {31/1}

Atom   0N    basis set group =>   1
Atom   1C    basis set group =>   2
Atom   2N    basis set group =>   1
Atom   3H    basis set group =>   3
Atom   4C    basis set group =>   2
Atom   5C    basis set group =>   2
Atom   6C    basis set group =>   2
Atom   7C    basis set group =>   2
Atom   8C    basis set group =>   2
Atom   9C    basis set group =>   2
Atom  10C    basis set group =>   2
Atom  11C    basis set group =>   2
Atom  12H    basis set group =>   3
Atom  13H    basis set group =>   3
Atom  14C    basis set group =>   2
Atom  15C    basis set group =>   2
Atom  16C    basis set group =>   2
Atom  17C    basis set group =>   2
Atom  18C    basis set group =>   2
Atom  19C    basis set group =>   2
Atom  20C    basis set group =>   2
Atom  21H    basis set group =>   3
Atom  22C    basis set group =>   2
Atom  23C    basis set group =>   2
Atom  24H    basis set group =>   3
Atom  25H    basis set group =>   3
Atom  26H    basis set group =>   3
Atom  27H    basis set group =>   3
Atom  28H    basis set group =>   3
Atom  29C    basis set group =>   2
Atom  30H    basis set group =>   3
Atom  31H    basis set group =>   3
Atom  32H    basis set group =>   3
Atom  33H    basis set group =>   3
Atom  34H    basis set group =>   3
Atom  35H    basis set group =>   3
Atom  36H    basis set group =>   3
Atom  37H    basis set group =>   3
Atom  38H    basis set group =>   3
Atom  39H    basis set group =>   3
Atom  40H    basis set group =>   3
Atom  41H    basis set group =>   3
---------------------------------
AUXILIARY/J BASIS SET INFORMATION
---------------------------------
There are 3 groups of distinct atoms

 Group   1 Type N   : 12s5p4d2f1g contracted to 6s4p3d1f1g pattern {711111/2111/211/2/1}
 Group   2 Type C   : 12s5p4d2f1g contracted to 6s4p3d1f1g pattern {711111/2111/211/2/1}
 Group   3 Type H   : 5s2p1d contracted to 3s1p1d pattern {311/2/1}

Atom   0N    basis set group =>   1
Atom   1C    basis set group =>   2
Atom   2N    basis set group =>   1
Atom   3H    basis set group =>   3
Atom   4C    basis set group =>   2
Atom   5C    basis set group =>   2
Atom   6C    basis set group =>   2
Atom   7C    basis set group =>   2
Atom   8C    basis set group =>   2
Atom   9C    basis set group =>   2
Atom  10C    basis set group =>   2
Atom  11C    basis set group =>   2
Atom  12H    basis set group =>   3
Atom  13H    basis set group =>   3
Atom  14C    basis set group =>   2
Atom  15C    basis set group =>   2
Atom  16C    basis set group =>   2
Atom  17C    basis set group =>   2
Atom  18C    basis set group =>   2
Atom  19C    basis set group =>   2
Atom  20C    basis set group =>   2
Atom  21H    basis set group =>   3
Atom  22C    basis set group =>   2
Atom  23C    basis set group =>   2
Atom  24H    basis set group =>   3
Atom  25H    basis set group =>   3
Atom  26H    basis set group =>   3
Atom  27H    basis set group =>   3
Atom  28H    basis set group =>   3
Atom  29C    basis set group =>   2
Atom  30H    basis set group =>   3
Atom  31H    basis set group =>   3
Atom  32H    basis set group =>   3
Atom  33H    basis set group =>   3
Atom  34H    basis set group =>   3
Atom  35H    basis set group =>   3
Atom  36H    basis set group =>   3
Atom  37H    basis set group =>   3
Atom  38H    basis set group =>   3
Atom  39H    basis set group =>   3
Atom  40H    basis set group =>   3
Atom  41H    basis set group =>   3
------------------------------------------------------------------------------
                           ORCA GTO INTEGRAL CALCULATION
                           -- RI-GTO INTEGRALS CHOSEN --
------------------------------------------------------------------------------
------------------------------------------------------------------------------
                   ___                                                        
                  /   \      - P O W E R E D   B Y -                         
                 /     \                                                     
                 |  |  |   _    _      __       _____    __    __             
                 |  |  |  | |  | |    /  \     |  _  \  |  |  /  |          
                  \  \/   | |  | |   /    \    | | | |  |  | /  /          
                 / \  \   | |__| |  /  /\  \   | |_| |  |  |/  /          
                |  |  |   |  __  | /  /__\  \  |    /   |      \           
                |  |  |   | |  | | |   __   |  |    \   |  |\   \          
                \     /   | |  | | |  |  |  |  | |\  \  |  | \   \       
                 \___/    |_|  |_| |__|  |__|  |_| \__\ |__|  \__/        
                                                                              
                      - O R C A' S   B I G   F R I E N D -                    
                                      &                                       
                       - I N T E G R A L  F E E D E R -                       
                                                                              
 v1 FN, 2020, v2 2021                                                         
------------------------------------------------------------------------------


Reading SHARK input file 8_prot_aq_2.SHARKINP.tmp ... ok
----------------------
SHARK INTEGRAL PACKAGE
----------------------

Number of atoms                             ...     42
Number of basis functions                   ...    399
Number of shells                            ...    189
Maximum angular momentum                    ...      2
Integral batch strategy                     ... SHARK/LIBINT Hybrid
RI-J (if used) integral strategy            ... SPLIT-RIJ (Revised 2003 algorithm where possible)
Printlevel                                  ...      1
Contraction scheme used                     ... SEGMENTED contraction
Coulomb Range Separation                    ... NOT USED
Exchange Range Separation                   ... Long Range
   Mu parameter                             ...  0.300000
   Scaling (regular/separated)              ...  0.157706  0.842294
Finite Nucleus Model                        ... NOT USED
Auxiliary Coulomb fitting basis             ... AVAILABLE
   # of basis functions in Aux-J            ...   1260
   # of shells in Aux-J                     ...    420
   Maximum angular momentum in Aux-J        ...      4
Auxiliary J/K fitting basis                 ... NOT available
Auxiliary Correlation fitting basis         ... NOT available
Auxiliary 'external' fitting basis          ... NOT available
Integral threshold                          ...     2.500000e-11
Primitive cut-off                           ...     2.500000e-12
Primitive pair pre-selection threshold      ...     2.500000e-12

Calculating pre-screening integrals         ... done (  0.1 sec) Dimension = 189
Organizing shell pair data                  ... done (  0.1 sec)
Shell pair information
Total number of shell pairs                 ...     17955
Shell pairs after pre-screening             ...     13589
Total number of primitive shell pairs       ...     64239
Primitive shell pairs kept                  ...     31144
          la=0 lb=0:   4336 shell pairs
          la=1 lb=0:   5081 shell pairs
          la=1 lb=1:   1531 shell pairs
          la=2 lb=0:   1567 shell pairs
          la=2 lb=1:    924 shell pairs
          la=2 lb=2:    150 shell pairs

Calculating one electron integrals          ... done (  0.1 sec)
Calculating RI/J V-Matrix + Cholesky decomp.... done (  0.3 sec)
Calculating Nuclear repulsion               ... done (  0.0 sec) ENN=   1600.478545589008 Eh

SHARK setup successfully completed in   1.5 seconds

Maximum memory used throughout the entire GTOINT-calculation: 80.3 MB
-------------------------------------------------------------------------------
                                 ORCA SCF
-------------------------------------------------------------------------------

------------
SCF SETTINGS
------------
Hamiltonian:
 Density Functional     Method          .... DFT(GTOs)
 Exchange Functional    Exchange        .... WB97X
 Correlation Functional Correlation     .... WB97X
 Gradients option       PostSCFGGA      .... off
 Hybrid DFT is turned on
   Fraction HF Exchange ScalHFX         ....  0.157706
   Scaling of DF-GGA-X  ScalDFX         ....  0.000000
   Scaling of DF-GGA-C  ScalDFC         ....  1.000000
   Scaling of DF-LDA-C  ScalLDAC        ....  1.000000
   Perturbative correction              ....  0.000000
   Density functional embedding theory  .... OFF
 Long-range corrected/Screened/Range-Separated Hybrid DFT is turned on
   Amount of maximum screened exact exchange              ....  0.842294
   Range separation parameter mu (erf(mu*r12)/r12)        ....  0.300000
 RI-approximation to the Coulomb term is turned on
   Number of AuxJ basis functions       .... 1260
   RIJ-COSX (HFX calculated with COS-X)).... on


General Settings:
 Integral files         IntName         .... 8_prot_aq_2
 Hartree-Fock type      HFTyp           .... RHF
 Total Charge           Charge          ....    1
 Multiplicity           Mult            ....    1
 Number of Electrons    NEL             ....  148
 Basis Dimension        Dim             ....  399
 Nuclear Repulsion      ENuc            ....   1600.4785455890 Eh

Convergence Acceleration:
 DIIS                   CNVDIIS         .... on
   Start iteration      DIISMaxIt       ....     0
   Startup error        DIISStart       ....  0.200000
   # of expansion vecs  DIISMaxEq       ....     5
   Bias factor          DIISBfac        ....   1.050
   Max. coefficient     DIISMaxC        ....  10.000
 Trust-Rad. Augm. Hess. CNVTRAH         .... auto
   Auto Start mean grad. ratio tolernc. ....  1.125000
   Auto Start start iteration           ....    20
   Auto Start num. interpolation iter.  ....    10
   Max. Number of Micro iterations      ....    16
   Max. Number of Macro iterations      .... Maxiter - #DIIS iter
   Number of Davidson start vectors     ....     2
   Converg. threshold I  (grad. norm)   ....   1.000e-05
   Converg. threshold II (energy diff.) ....   1.000e-08
   Grad. Scal. Fac. for Micro threshold ....   0.100
   Minimum threshold for Micro iter.    ....   0.010
   NR start threshold (gradient norm)   ....   0.001
   Initial trust radius                 ....   0.400
   Minimum AH scaling param. (alpha)    ....   1.000
   Maximum AH scaling param. (alpha)    .... 1000.000
   Orbital update algorithm             .... Taylor
   White noise on init. David. guess    .... on
   Maximum white noise                  ....   0.010
   Quad. conv. algorithm                .... NR
 SOSCF                  CNVSOSCF        .... on
   Start iteration      SOSCFMaxIt      ....   150
   Startup grad/error   SOSCFStart      ....  0.001000
 Level Shifting         CNVShift        .... on
   Level shift para.    LevelShift      ....    0.2500
   Turn off err/grad.   ShiftErr        ....    0.0000
 Zerner damping         CNVZerner       .... off
 Static damping         CNVDamp         .... on
   Fraction old density DampFac         ....    0.8500
   Max. Damping (<1)    DampMax         ....    0.9800
   Min. Damping (>=0)   DampMin         ....    0.0000
   Turn off err/grad.   DampErr         ....    0.0300
 Fernandez-Rico         CNVRico         .... off

SCF Procedure:
 Maximum # iterations   MaxIter         ....   125
 SCF integral mode      SCFMode         .... Direct
   Integral package                     .... SHARK and LIBINT hybrid scheme
 Reset frequency        DirectResetFreq ....    20
 Integral Threshold     Thresh          ....  2.500e-11 Eh
 Primitive CutOff       TCut            ....  2.500e-12 Eh

Convergence Tolerance:
 Convergence Check Mode ConvCheckMode   .... Total+1el-Energy
 Convergence forced     ConvForced      .... 0
 Energy Change          TolE            ....  1.000e-08 Eh
 1-El. energy change                    ....  1.000e-05 Eh
 Orbital Gradient       TolG            ....  1.000e-05
 Orbital Rotation angle TolX            ....  1.000e-05
 DIIS Error             TolErr          ....  5.000e-07


Diagonalization of the overlap matrix:
Smallest eigenvalue                        ... 2.182e-04
Time for diagonalization                   ...    0.064 sec
Threshold for overlap eigenvalues          ... 1.000e-08
Number of eigenvalues below threshold      ... 0
Time for construction of square roots      ...    0.008 sec
Total time needed                          ...    0.073 sec

Time for model grid setup =    0.946 sec

------------------------------
INITIAL GUESS: MODEL POTENTIAL
------------------------------
Loading Hartree-Fock densities                     ... done
Calculating cut-offs                               ... done
Initializing the effective Hamiltonian             ... done
Setting up the integral package (SHARK)            ... done
Starting the Coulomb interaction                   ... done (   1.4 sec)
Reading the grid                                   ... done
Mapping shells                                     ... done
Starting the XC term evaluation                    ... done (   0.8 sec)
  promolecular density results
     # of electrons  =    148.992747762
     EX              =   -116.291020561
     EC              =     -4.941216850
     EX+EC           =   -121.232237412
Transforming the Hamiltonian                       ... done (   0.0 sec)
Diagonalizing the Hamiltonian                      ... done (   0.0 sec)
Back transforming the eigenvectors                 ... done (   0.0 sec)
Now organizing SCF variables                       ... done
                      ------------------
                      INITIAL GUESS DONE (   3.2 sec)
                      ------------------
-------------------
DFT GRID GENERATION
-------------------

General Integration Accuracy     IntAcc      ... 4.388
Radial Grid Type                 RadialGrid  ... OptM3 with GC (2021)
Angular Grid (max. ang.)         AngularGrid ... 4 (Lebedev-302)
Angular grid pruning method      GridPruning ... 4 (adaptive)
Weight generation scheme         WeightScheme... Becke
Basis function cutoff            BFCut       ... 1.0000e-11
Integration weight cutoff        WCut        ... 1.0000e-14
Angular grids for H and He will be reduced by one unit
Partially contracted basis set               ... off
Rotationally invariant grid construction     ... off

Total number of grid points                  ...   192039
Total number of batches                      ...     3022
Average number of points per batch           ...       63
Average number of grid points per atom       ...     4572
Time for grid setup =    3.114 sec

--------------------
COSX GRID GENERATION
--------------------

GRIDX 1
-------
General Integration Accuracy     IntAcc      ... 3.816
Radial Grid Type                 RadialGrid  ... OptM3 with GC (2021)
Angular Grid (max. ang.)         AngularGrid ... 1 (Lebedev-50)
Angular grid pruning method      GridPruning ... 4 (adaptive)
Weight generation scheme         WeightScheme... Becke
Basis function cutoff            BFCut       ... 1.0000e-11
Integration weight cutoff        WCut        ... 1.0000e-14
Angular grids for H and He will be reduced by one unit
Partially contracted basis set               ... on
Rotationally invariant grid construction     ... off

Total number of grid points                  ...    24452
Total number of batches                      ...      402
Average number of points per batch           ...       60
Average number of grid points per atom       ...      582
UseSFitting                                  ... on

GRIDX 2
-------
General Integration Accuracy     IntAcc      ... 4.020
Radial Grid Type                 RadialGrid  ... OptM3 with GC (2021)
Angular Grid (max. ang.)         AngularGrid ... 2 (Lebedev-110)
Angular grid pruning method      GridPruning ... 4 (adaptive)
Weight generation scheme         WeightScheme... Becke
Basis function cutoff            BFCut       ... 1.0000e-11
Integration weight cutoff        WCut        ... 1.0000e-14
Angular grids for H and He will be reduced by one unit
Partially contracted basis set               ... on
Rotationally invariant grid construction     ... off

Total number of grid points                  ...    52164
Total number of batches                      ...      833
Average number of points per batch           ...       62
Average number of grid points per atom       ...     1242
UseSFitting                                  ... on

GRIDX 3
-------
General Integration Accuracy     IntAcc      ... 4.338
Radial Grid Type                 RadialGrid  ... OptM3 with GC (2021)
Angular Grid (max. ang.)         AngularGrid ... 3 (Lebedev-194)
Angular grid pruning method      GridPruning ... 4 (adaptive)
Weight generation scheme         WeightScheme... Becke
Basis function cutoff            BFCut       ... 1.0000e-11
Integration weight cutoff        WCut        ... 1.0000e-14
Angular grids for H and He will be reduced by one unit
Partially contracted basis set               ... on
Rotationally invariant grid construction     ... off

Total number of grid points                  ...   113649
Total number of batches                      ...     1798
Average number of points per batch           ...       63
Average number of grid points per atom       ...     2706
UseSFitting                                  ... on

Time for X-Grid setup             =    3.962 sec


--------------------
CPCM SOLVATION MODEL
--------------------
CPCM parameters:
  Epsilon                                         ...      80.4000
  Refrac                                          ...       1.3300
  Rsolv                                           ...       1.3000
  Surface type                                    ... GAUSSIAN VDW
  Epsilon function type                           ...         CPCM
Radii:
 Radius for N  used is    3.5149 Bohr (=   1.8600 Ang.)
 Radius for C  used is    3.8550 Bohr (=   2.0400 Ang.)
 Radius for H  used is    2.4944 Bohr (=   1.3200 Ang.)
Calculating surface                               ...        done! (  0.0s)
GEPOL surface points                              ...         2249
GEPOL Volume                                      ...    2444.1428
GEPOL Surface-area                                ...    1242.7495
Calculating surface distance matrix               ...        done! (  0.0s)
Performing Cholesky decomposition & store         ...        done! (  0.1s)
Overall time for CPCM initialization              ...                 0.2s
--------------
SCF ITERATIONS
--------------
ITER       Energy         Delta-E        Max-DP      RMS-DP      [F,P]     Damp
               ***  Starting incremental Fock matrix formation  ***
  0   -844.8778206867   0.000000000000 0.02983227  0.00057851  0.1357857 0.8500
  1   -844.9410328836  -0.063212196903 0.02696774  0.00053806  0.1099214 0.8500
                               ***Turning on DIIS***
  2   -844.9897426452  -0.048709761664 0.02120917  0.00044461  0.0849290 0.8500
  3   -845.0262135585  -0.036470913322 0.01347432  0.00033691  0.0648396 0.8500
  4   -845.0544937004  -0.028280141811 0.00912085  0.00026964  0.0517553 0.8500
  5   -845.0768510555  -0.022357355194 0.00693412  0.00022546  0.0427991 0.8500
  6   -845.0950509663  -0.018199910735 0.00561033  0.00019166  0.0359866 0.8500
  7   -845.1101239158  -0.015072949509 0.00478360  0.00016480  0.0304732 0.8500
  8   -845.1227362488  -0.012612333023 0.02741755  0.00094398  0.0257847 0.0000
  9   -845.1907873326  -0.068051083774 0.00132383  0.00002819  0.0011626 0.0000
                      *** Initiating the SOSCF procedure ***
                           *** Shutting down DIIS ***
                      *** Re-Reading the Fockian *** 
                      *** Removing any level shift *** 
ITER      Energy       Delta-E        Grad      Rot      Max-DP    RMS-DP
 10   -845.19082110  -0.0000337670  0.000577  0.000577  0.000622  0.000014
               *** Restarting incremental Fock matrix formation ***
 11   -845.19076254   0.0000585579  0.000260  0.000651  0.000526  0.000013
 12   -845.19076524  -0.0000026958  0.000165  0.000798  0.000382  0.000010
 13   -845.19076588  -0.0000006431  0.000054  0.000143  0.000124  0.000004
 14   -845.19076605  -0.0000001684  0.000009  0.000020  0.000028  0.000001
 15   -845.19076607  -0.0000000212  0.000005  0.000014  0.000015  0.000000
                  ***Gradient check signals convergence***
              ***Rediagonalizing the Fockian in SOSCF/NRSCF***

               *****************************************************
               *                     SUCCESS                       *
               *           SCF CONVERGED AFTER  16 CYCLES          *
               *****************************************************

Old exchange energy                            =    -38.078478459 Eh
New exchange energy                            =    -38.078489189 Eh
Exchange energy change after final integration =     -0.000010730 Eh
Total energy after final integration           =   -845.190776816 Eh
Final COS-X integration done in                =   125.150 sec

----------------
TOTAL SCF ENERGY
----------------

Total Energy       :         -845.19077682 Eh          -22998.81027 eV

Components:
Nuclear Repulsion  :         1600.47854559 Eh           43551.23533 eV
Electronic Energy  :        -2445.66932240 Eh          -66550.04560 eV
One Electron Energy:        -4299.20148523 Eh         -116987.21993 eV
Two Electron Energy:         1853.53216283 Eh           50437.17433 eV
Max COSX asymmetry :            0.00000205 Eh               0.00006 eV
CPCM Dielectric    :           -0.07859155 Eh              -2.13858 eV

Virial components:
Potential Energy   :        -1678.64558599 Eh          -45678.26863 eV
Kinetic Energy     :          833.45480918 Eh           22679.45836 eV
Virial Ratio       :            2.01408111


DFT components:
N(Alpha)           :       73.999883706605 electrons
N(Beta)            :       73.999883706605 electrons
N(Total)           :      147.999767413209 electrons
E(XC)              :      -85.594922832547 Eh       
DFET-embed. en.    :        0.000000000000 Eh       
CPCM Solvation Model Properties:
Surface-charge          :           -1.02778780
Charge-correction       :            0.00317724 Eh               0.08646 eV
Free-energy (cav+disp)  :  This term is not implemented in the current solvation scheme

---------------
SCF CONVERGENCE
---------------

  Last Energy change         ...   -1.5196e-08  Tolerance :   1.0000e-08
  Last MAX-Density change    ...    4.4409e-15  Tolerance :   1.0000e-07
  Last RMS-Density change    ...    3.6700e-17  Tolerance :   5.0000e-09
  Last Orbital Gradient      ...    1.4882e-06  Tolerance :   1.0000e-05
  Last Orbital Rotation      ...    5.9705e-06  Tolerance :   1.0000e-05

             **** THE GBW FILE WAS UPDATED (8_prot_aq_2.gbw) ****
             **** DENSITY 8_prot_aq_2.scfp WAS UPDATED ****
             **** ENERGY FILE WAS UPDATED (8_prot_aq_2.en.tmp) ****
             **** THE GBW FILE WAS UPDATED (8_prot_aq_2.gbw) ****
             **** DENSITY 8_prot_aq_2.scfp WAS UPDATED ****
----------------
ORBITAL ENERGIES
----------------

  NO   OCC          E(Eh)            E(eV) 
   0   2.0000     -14.524031      -395.2190 
   1   2.0000     -14.523926      -395.2161 
   2   2.0000     -10.413149      -283.3562 
   3   2.0000     -10.356173      -281.8058 
   4   2.0000     -10.355533      -281.7884 
   5   2.0000     -10.337934      -281.3095 
   6   2.0000     -10.333583      -281.1911 
   7   2.0000     -10.310475      -280.5623 
   8   2.0000     -10.310360      -280.5591 
   9   2.0000     -10.308376      -280.5052 
  10   2.0000     -10.305462      -280.4259 
  11   2.0000     -10.304937      -280.4116 
  12   2.0000     -10.293763      -280.1075 
  13   2.0000     -10.290020      -280.0057 
  14   2.0000     -10.289727      -279.9977 
  15   2.0000     -10.289519      -279.9920 
  16   2.0000     -10.289057      -279.9795 
  17   2.0000     -10.288696      -279.9697 
  18   2.0000     -10.286115      -279.8994 
  19   2.0000     -10.285111      -279.8721 
  20   2.0000     -10.284983      -279.8686 
  21   2.0000      -1.203012       -32.7356 
  22   2.0000      -1.094815       -29.7914 
  23   2.0000      -1.009408       -27.4674 
  24   2.0000      -0.989027       -26.9128 
  25   2.0000      -0.937869       -25.5207 
  26   2.0000      -0.921790       -25.0832 
  27   2.0000      -0.919456       -25.0197 
  28   2.0000      -0.905505       -24.6400 
  29   2.0000      -0.880667       -23.9642 
  30   2.0000      -0.841166       -22.8893 
  31   2.0000      -0.818422       -22.2704 
  32   2.0000      -0.806344       -21.9417 
  33   2.0000      -0.801667       -21.8145 
  34   2.0000      -0.776588       -21.1320 
  35   2.0000      -0.767934       -20.8966 
  36   2.0000      -0.731626       -19.9086 
  37   2.0000      -0.720624       -19.6092 
  38   2.0000      -0.706839       -19.2341 
  39   2.0000      -0.702030       -19.1032 
  40   2.0000      -0.675945       -18.3934 
  41   2.0000      -0.639316       -17.3967 
  42   2.0000      -0.633996       -17.2519 
  43   2.0000      -0.606494       -16.5035 
  44   2.0000      -0.606095       -16.4927 
  45   2.0000      -0.592320       -16.1178 
  46   2.0000      -0.586130       -15.9494 
  47   2.0000      -0.576779       -15.6950 
  48   2.0000      -0.573106       -15.5950 
  49   2.0000      -0.562986       -15.3196 
  50   2.0000      -0.542219       -14.7545 
  51   2.0000      -0.539324       -14.6757 
  52   2.0000      -0.535288       -14.5659 
  53   2.0000      -0.532421       -14.4879 
  54   2.0000      -0.522727       -14.2241 
  55   2.0000      -0.521636       -14.1944 
  56   2.0000      -0.520355       -14.1596 
  57   2.0000      -0.515238       -14.0203 
  58   2.0000      -0.513151       -13.9636 
  59   2.0000      -0.507951       -13.8220 
  60   2.0000      -0.483266       -13.1503 
  61   2.0000      -0.480182       -13.0664 
  62   2.0000      -0.468651       -12.7526 
  63   2.0000      -0.466819       -12.7028 
  64   2.0000      -0.462074       -12.5737 
  65   2.0000      -0.461630       -12.5616 
  66   2.0000      -0.455620       -12.3981 
  67   2.0000      -0.454637       -12.3713 
  68   2.0000      -0.428891       -11.6707 
  69   2.0000      -0.391439       -10.6516 
  70   2.0000      -0.361009        -9.8236 
  71   2.0000      -0.350774        -9.5450 
  72   2.0000      -0.347630        -9.4595 
  73   2.0000      -0.346075        -9.4172 
  74   0.0000       0.023567         0.6413 
  75   0.0000       0.048878         1.3300 
  76   0.0000       0.054529         1.4838 
  77   0.0000       0.058643         1.5958 
  78   0.0000       0.060551         1.6477 
  79   0.0000       0.083431         2.2703 
  80   0.0000       0.122794         3.3414 
  81   0.0000       0.137128         3.7314 
  82   0.0000       0.147355         4.0097 
  83   0.0000       0.157911         4.2970 
  84   0.0000       0.161989         4.4080 
  85   0.0000       0.166854         4.5403 
  86   0.0000       0.171392         4.6638 
  87   0.0000       0.180571         4.9136 
  88   0.0000       0.185313         5.0426 
  89   0.0000       0.190036         5.1711 
  90   0.0000       0.197115         5.3638 
  91   0.0000       0.207617         5.6496 
  92   0.0000       0.217931         5.9302 
  93   0.0000       0.219559         5.9745 
  94   0.0000       0.228345         6.2136 
  95   0.0000       0.231543         6.3006 
  96   0.0000       0.232881         6.3370 
  97   0.0000       0.239820         6.5258 
  98   0.0000       0.243036         6.6133 
  99   0.0000       0.249194         6.7809 
 100   0.0000       0.252988         6.8842 
 101   0.0000       0.263792         7.1781 
 102   0.0000       0.268246         7.2993 
 103   0.0000       0.272221         7.4075 
 104   0.0000       0.283070         7.7027 
 105   0.0000       0.293091         7.9754 
 106   0.0000       0.298041         8.1101 
 107   0.0000       0.318033         8.6541 
 108   0.0000       0.322844         8.7850 
 109   0.0000       0.327405         8.9091 
 110   0.0000       0.342547         9.3212 
 111   0.0000       0.353157         9.6099 
 112   0.0000       0.369009        10.0412 
 113   0.0000       0.378982        10.3126 
 114   0.0000       0.382528        10.4091 
 115   0.0000       0.390178        10.6173 
 116   0.0000       0.393030        10.6949 
 117   0.0000       0.407995        11.1021 
 118   0.0000       0.413824        11.2607 
 119   0.0000       0.414705        11.2847 
 120   0.0000       0.418518        11.3885 
 121   0.0000       0.421101        11.4588 
 122   0.0000       0.431531        11.7426 
 123   0.0000       0.434132        11.8133 
 124   0.0000       0.448951        12.2166 
 125   0.0000       0.468931        12.7603 
 126   0.0000       0.469603        12.7786 
 127   0.0000       0.484080        13.1725 
 128   0.0000       0.488953        13.3051 
 129   0.0000       0.500203        13.6112 
 130   0.0000       0.511446        13.9172 
 131   0.0000       0.513296        13.9675 
 132   0.0000       0.515667        14.0320 
 133   0.0000       0.525103        14.2888 
 134   0.0000       0.530965        14.4483 
 135   0.0000       0.540074        14.6962 
 136   0.0000       0.547185        14.8897 
 137   0.0000       0.554111        15.0781 
 138   0.0000       0.562271        15.3002 
 139   0.0000       0.566185        15.4067 
 140   0.0000       0.573164        15.5966 
 141   0.0000       0.575529        15.6609 
 142   0.0000       0.580425        15.7942 
 143   0.0000       0.584205        15.8970 
 144   0.0000       0.588687        16.0190 
 145   0.0000       0.590318        16.0634 
 146   0.0000       0.591228        16.0881 
 147   0.0000       0.602123        16.3846 
 148   0.0000       0.613559        16.6958 
 149   0.0000       0.619982        16.8706 
 150   0.0000       0.633841        17.2477 
 151   0.0000       0.649493        17.6736 
 152   0.0000       0.659447        17.9445 
 153   0.0000       0.667214        18.1558 
 154   0.0000       0.686103        18.6698 
 155   0.0000       0.689089        18.7511 
 156   0.0000       0.692598        18.8466 
 157   0.0000       0.698182        18.9985 
 158   0.0000       0.703525        19.1439 
 159   0.0000       0.713056        19.4033 
 160   0.0000       0.714251        19.4357 
 161   0.0000       0.721079        19.6216 
 162   0.0000       0.723728        19.6936 
 163   0.0000       0.728541        19.8246 
 164   0.0000       0.734819        19.9954 
 165   0.0000       0.736521        20.0417 
 166   0.0000       0.739975        20.1357 
 167   0.0000       0.741409        20.1748 
 168   0.0000       0.750924        20.4337 
 169   0.0000       0.755843        20.5675 
 170   0.0000       0.759885        20.6775 
 171   0.0000       0.761799        20.7296 
 172   0.0000       0.767969        20.8975 
 173   0.0000       0.771215        20.9858 
 174   0.0000       0.771670        20.9982 
 175   0.0000       0.775958        21.1149 
 176   0.0000       0.779698        21.2167 
 177   0.0000       0.781906        21.2767 
 178   0.0000       0.787737        21.4354 
 179   0.0000       0.794174        21.6106 
 180   0.0000       0.795348        21.6425 
 181   0.0000       0.799468        21.7546 
 182   0.0000       0.804071        21.8799 
 183   0.0000       0.816311        22.2130 
 184   0.0000       0.828134        22.5347 
 185   0.0000       0.831158        22.6170 
 186   0.0000       0.837154        22.7801 
 187   0.0000       0.846404        23.0318 
 188   0.0000       0.851129        23.1604 
 189   0.0000       0.854425        23.2501 
 190   0.0000       0.856727        23.3127 
 191   0.0000       0.866660        23.5830 
 192   0.0000       0.874042        23.7839 
 193   0.0000       0.877102        23.8672 
 194   0.0000       0.884132        24.0585 
 195   0.0000       0.894523        24.3412 
 196   0.0000       0.899893        24.4873 
 197   0.0000       0.908991        24.7349 
 198   0.0000       0.917488        24.9661 
 199   0.0000       0.921523        25.0759 
 200   0.0000       0.937263        25.5042 
 201   0.0000       0.939514        25.5655 
 202   0.0000       0.945028        25.7155 
 203   0.0000       0.962562        26.1927 
 204   0.0000       0.972631        26.4666 
 205   0.0000       0.974432        26.5156 
 206   0.0000       1.011907        27.5354 
 207   0.0000       1.031404        28.0659 
 208   0.0000       1.033780        28.1306 
 209   0.0000       1.058838        28.8124 
 210   0.0000       1.107804        30.1449 
 211   0.0000       1.111826        30.2543 
 212   0.0000       1.143658        31.1205 
 213   0.0000       1.171466        31.8772 
 214   0.0000       1.182453        32.1762 
 215   0.0000       1.209442        32.9106 
 216   0.0000       1.216399        33.0999 
 217   0.0000       1.223036        33.2805 
 218   0.0000       1.233730        33.5715 
 219   0.0000       1.236914        33.6581 
 220   0.0000       1.255920        34.1753 
 221   0.0000       1.280301        34.8388 
 222   0.0000       1.282186        34.8901 
 223   0.0000       1.288530        35.0627 
 224   0.0000       1.291757        35.1505 
 225   0.0000       1.296057        35.2675 
 226   0.0000       1.317397        35.8482 
 227   0.0000       1.320969        35.9454 
 228   0.0000       1.331328        36.2273 
 229   0.0000       1.332583        36.2614 
 230   0.0000       1.336165        36.3589 
 231   0.0000       1.353792        36.8386 
 232   0.0000       1.362348        37.0714 
 233   0.0000       1.377502        37.4837 
 234   0.0000       1.385061        37.6894 
 235   0.0000       1.409222        38.3469 
 236   0.0000       1.432806        38.9886 
 237   0.0000       1.439245        39.1638 
 238   0.0000       1.449644        39.4468 
 239   0.0000       1.477908        40.2159 
 240   0.0000       1.508242        41.0413 
 241   0.0000       1.562757        42.5248 
 242   0.0000       1.578256        42.9465 
 243   0.0000       1.581870        43.0449 
 244   0.0000       1.593254        43.3546 
 245   0.0000       1.598430        43.4955 
 246   0.0000       1.611527        43.8519 
 247   0.0000       1.619628        44.0723 
 248   0.0000       1.621394        44.1204 
 249   0.0000       1.629509        44.3412 
 250   0.0000       1.635866        44.5142 
 251   0.0000       1.638548        44.5872 
 252   0.0000       1.643670        44.7265 
 253   0.0000       1.661732        45.2180 
 254   0.0000       1.677926        45.6587 
 255   0.0000       1.691470        46.0272 
 256   0.0000       1.697362        46.1876 
 257   0.0000       1.733703        47.1764 
 258   0.0000       1.741680        47.3935 
 259   0.0000       1.747807        47.5603 
 260   0.0000       1.752080        47.6765 
 261   0.0000       1.757724        47.8301 
 262   0.0000       1.766102        48.0581 
 263   0.0000       1.773334        48.2549 
 264   0.0000       1.780852        48.4594 
 265   0.0000       1.786159        48.6039 
 266   0.0000       1.798175        48.9308 
 267   0.0000       1.801808        49.0297 
 268   0.0000       1.814339        49.3707 
 269   0.0000       1.816370        49.4259 
 270   0.0000       1.828359        49.7522 
 271   0.0000       1.834101        49.9084 
 272   0.0000       1.837375        49.9975 
 273   0.0000       1.843674        50.1689 
 274   0.0000       1.850029        50.3418 
 275   0.0000       1.850931        50.3664 
 276   0.0000       1.853985        50.4495 
 277   0.0000       1.858285        50.5665 
 278   0.0000       1.862212        50.6734 
 279   0.0000       1.873427        50.9785 
 280   0.0000       1.889861        51.4257 
 281   0.0000       1.894387        51.5489 
 282   0.0000       1.896693        51.6116 
 283   0.0000       1.903294        51.7913 
 284   0.0000       1.908900        51.9438 
 285   0.0000       1.913219        52.0613 
 286   0.0000       1.918089        52.1939 
 287   0.0000       1.922582        52.3161 
 288   0.0000       1.930488        52.5312 
 289   0.0000       1.948558        53.0229 
 290   0.0000       1.961315        53.3701 
 291   0.0000       1.968517        53.5661 
 292   0.0000       1.974384        53.7257 
 293   0.0000       1.983847        53.9832 
 294   0.0000       1.988771        54.1172 
 295   0.0000       2.000901        54.4473 
 296   0.0000       2.007474        54.6261 
 297   0.0000       2.023392        55.0593 
 298   0.0000       2.028649        55.2023 
 299   0.0000       2.031190        55.2715 
 300   0.0000       2.040313        55.5197 
 301   0.0000       2.059254        56.0352 
 302   0.0000       2.062570        56.1254 
 303   0.0000       2.071109        56.3577 
 304   0.0000       2.082724        56.6738 
 305   0.0000       2.089893        56.8689 
 306   0.0000       2.093979        56.9801 
 307   0.0000       2.105800        57.3017 
 308   0.0000       2.117998        57.6336 
 309   0.0000       2.124240        57.8035 
 310   0.0000       2.130331        57.9692 
 311   0.0000       2.135666        58.1144 
 312   0.0000       2.147179        58.4277 
 313   0.0000       2.152038        58.5599 
 314   0.0000       2.166951        58.9657 
 315   0.0000       2.173085        59.1326 
 316   0.0000       2.185137        59.4606 
 317   0.0000       2.197997        59.8105 
 318   0.0000       2.210061        60.1388 
 319   0.0000       2.233053        60.7645 
 320   0.0000       2.234688        60.8090 
 321   0.0000       2.245605        61.1060 
 322   0.0000       2.265690        61.6526 
 323   0.0000       2.299062        62.5607 
 324   0.0000       2.316410        63.0327 
 325   0.0000       2.319289        63.1110 
 326   0.0000       2.333297        63.4922 
 327   0.0000       2.333842        63.5071 
 328   0.0000       2.334900        63.5359 
 329   0.0000       2.343372        63.7664 
 330   0.0000       2.345592        63.8268 
 331   0.0000       2.357543        64.1520 
 332   0.0000       2.366159        64.3864 
 333   0.0000       2.369143        64.4676 
 334   0.0000       2.382707        64.8367 
 335   0.0000       2.393188        65.1220 
 336   0.0000       2.403503        65.4026 
 337   0.0000       2.417770        65.7909 
 338   0.0000       2.452496        66.7358 
 339   0.0000       2.459629        66.9299 
 340   0.0000       2.474755        67.3415 
 341   0.0000       2.480288        67.4921 
 342   0.0000       2.488230        67.7082 
 343   0.0000       2.501987        68.0825 
 344   0.0000       2.507978        68.2455 
 345   0.0000       2.512116        68.3582 
 346   0.0000       2.523916        68.6792 
 347   0.0000       2.534570        68.9692 
 348   0.0000       2.553714        69.4901 
 349   0.0000       2.589556        70.4654 
 350   0.0000       2.600227        70.7558 
 351   0.0000       2.623777        71.3966 
 352   0.0000       2.636142        71.7331 
 353   0.0000       2.642310        71.9009 
 354   0.0000       2.657049        72.3020 
 355   0.0000       2.668051        72.6013 
 356   0.0000       2.675226        72.7966 
 357   0.0000       2.676783        72.8390 
 358   0.0000       2.696717        73.3814 
 359   0.0000       2.715244        73.8855 
 360   0.0000       2.723631        74.1138 
 361   0.0000       2.738852        74.5280 
 362   0.0000       2.758925        75.0742 
 363   0.0000       2.763002        75.1851 
 364   0.0000       2.771844        75.4257 
 365   0.0000       2.781783        75.6962 
 366   0.0000       2.806452        76.3674 
 367   0.0000       2.814205        76.5784 
 368   0.0000       2.821947        76.7891 
 369   0.0000       2.839798        77.2748 
 370   0.0000       2.868361        78.0521 
 371   0.0000       2.887081        78.5615 
 372   0.0000       2.894805        78.7717 
 373   0.0000       2.916631        79.3656 
 374   0.0000       2.928672        79.6932 
 375   0.0000       2.938317        79.9557 
 376   0.0000       2.964399        80.6654 
 377   0.0000       2.977910        81.0330 
 378   0.0000       2.979592        81.0788 
 379   0.0000       2.996577        81.5410 
 380   0.0000       3.007193        81.8299 
 381   0.0000       3.015949        82.0681 
 382   0.0000       3.018601        82.1403 
 383   0.0000       3.022109        82.2358 
 384   0.0000       3.046871        82.9096 
 385   0.0000       3.063059        83.3501 
 386   0.0000       3.086174        83.9791 
 387   0.0000       3.088222        84.0348 
 388   0.0000       3.111123        84.6580 
 389   0.0000       3.127824        85.1124 
 390   0.0000       3.141917        85.4959 
 391   0.0000       3.159908        85.9855 
 392   0.0000       3.270324        88.9900 
 393   0.0000       3.334139        90.7265 
 394   0.0000       3.372809        91.7788 
 395   0.0000       3.457276        94.0773 
 396   0.0000       3.470791        94.4450 
 397   0.0000       3.638101        98.9978 
 398   0.0000       3.675458       100.0143 

                    ********************************
                    * MULLIKEN POPULATION ANALYSIS *
                    ********************************

-----------------------
MULLIKEN ATOMIC CHARGES
-----------------------
   0 N :   -0.244738
   1 C :    0.255772
   2 N :   -0.244272
   3 H :    0.199069
   4 C :    0.083622
   5 C :    0.081540
   6 C :    0.041313
   7 C :    0.035783
   8 C :   -0.058712
   9 C :   -0.083563
  10 C :   -0.075486
  11 C :   -0.080793
  12 H :    0.145619
  13 H :    0.149108
  14 C :   -0.086266
  15 C :   -0.091394
  16 C :   -0.093408
  17 C :   -0.088688
  18 C :    0.011885
  19 C :   -0.086987
  20 C :    0.006313
  21 H :    0.045836
  22 C :    0.018225
  23 C :    0.002690
  24 H :    0.035709
  25 H :    0.047872
  26 H :    0.035039
  27 H :    0.050840
  28 H :    0.042840
  29 C :    0.016786
  30 H :    0.108559
  31 H :    0.086117
  32 H :    0.092625
  33 H :    0.068446
  34 H :    0.081036
  35 H :    0.062470
  36 H :    0.067923
  37 H :    0.067756
  38 H :    0.085325
  39 H :    0.073771
  40 H :    0.071825
  41 H :    0.062590
Sum of atomic charges:    1.0000000

--------------------------------
MULLIKEN REDUCED ORBITAL CHARGES
--------------------------------
  0 N s       :     3.406677  s :     3.406677
      pz      :     1.145440  p :     3.808409
      px      :     1.164082
      py      :     1.498887
      dz2     :     0.005860  d :     0.029651
      dxz     :     0.009864
      dyz     :     0.005223
      dx2y2   :     0.004214
      dxy     :     0.004491
  1 C s       :     3.150549  s :     3.150549
      pz      :     0.907427  p :     2.530691
      px      :     0.750209
      py      :     0.873056
      dz2     :     0.010118  d :     0.062988
      dxz     :     0.022501
      dyz     :     0.006556
      dx2y2   :     0.008332
      dxy     :     0.015481
  2 N s       :     3.402920  s :     3.402920
      pz      :     1.147556  p :     3.811671
      px      :     1.164281
      py      :     1.499834
      dz2     :     0.005952  d :     0.029681
      dxz     :     0.009910
      dyz     :     0.005188
      dx2y2   :     0.004193
      dxy     :     0.004439
  3 H s       :     0.778054  s :     0.778054
      pz      :     0.018720  p :     0.022877
      px      :     0.001164
      py      :     0.002993
  4 C s       :     3.174307  s :     3.174307
      pz      :     0.760377  p :     2.699872
      px      :     0.918301
      py      :     1.021194
      dz2     :     0.013716  d :     0.042199
      dxz     :     0.010324
      dyz     :     0.005736
      dx2y2   :     0.004891
      dxy     :     0.007532
  5 C s       :     3.171291  s :     3.171291
      pz      :     0.764781  p :     2.704884
      px      :     0.919250
      py      :     1.020853
      dz2     :     0.013596  d :     0.042285
      dxz     :     0.010466
      dyz     :     0.005753
      dx2y2   :     0.004909
      dxy     :     0.007561
  6 C s       :     3.075093  s :     3.075093
      pz      :     1.056274  p :     2.832764
      px      :     0.805408
      py      :     0.971082
      dz2     :     0.006652  d :     0.050830
      dxz     :     0.008467
      dyz     :     0.006889
      dx2y2   :     0.016200
      dxy     :     0.012620
  7 C s       :     3.067417  s :     3.067417
      pz      :     1.060314  p :     2.844967
      px      :     0.812523
      py      :     0.972130
      dz2     :     0.005771  d :     0.051832
      dxz     :     0.008314
      dyz     :     0.007333
      dx2y2   :     0.016974
      dxy     :     0.013441
  8 C s       :     3.077908  s :     3.077908
      pz      :     0.973522  p :     2.938899
      px      :     0.959708
      py      :     1.005669
      dz2     :     0.006555  d :     0.041905
      dxz     :     0.007681
      dyz     :     0.006311
      dx2y2   :     0.010435
      dxy     :     0.010922
  9 C s       :     3.082559  s :     3.082559
      pz      :     0.979179  p :     2.959006
      px      :     0.959779
      py      :     1.020047
      dz2     :     0.006179  d :     0.041998
      dxz     :     0.008253
      dyz     :     0.005865
      dx2y2   :     0.010578
      dxy     :     0.011122
 10 C s       :     3.079640  s :     3.079640
      pz      :     0.967626  p :     2.952902
      px      :     0.954858
      py      :     1.030417
      dz2     :     0.005901  d :     0.042944
      dxz     :     0.007781
      dyz     :     0.006348
      dx2y2   :     0.011005
      dxy     :     0.011908
 11 C s       :     3.077250  s :     3.077250
      pz      :     0.970042  p :     2.960498
      px      :     0.956583
      py      :     1.033873
      dz2     :     0.005874  d :     0.043046
      dxz     :     0.007342
      dyz     :     0.007086
      dx2y2   :     0.011158
      dxy     :     0.011585
 12 H s       :     0.830957  s :     0.830957
      pz      :     0.011147  p :     0.023423
      px      :     0.008303
      py      :     0.003973
 13 H s       :     0.827516  s :     0.827516
      pz      :     0.011336  p :     0.023376
      px      :     0.008142
      py      :     0.003899
 14 C s       :     3.241861  s :     3.241861
      pz      :     0.962442  p :     2.811882
      px      :     0.949191
      py      :     0.900248
      dz2     :     0.003416  d :     0.032523
      dxz     :     0.006460
      dyz     :     0.004692
      dx2y2   :     0.009301
      dxy     :     0.008654
 15 C s       :     3.113017  s :     3.113017
      pz      :     1.019834  p :     2.955509
      px      :     0.972166
      py      :     0.963509
      dz2     :     0.004101  d :     0.022868
      dxz     :     0.005349
      dyz     :     0.002887
      dx2y2   :     0.002796
      dxy     :     0.007735
 16 C s       :     3.245493  s :     3.245493
      pz      :     0.970019  p :     2.815054
      px      :     0.947169
      py      :     0.897865
      dz2     :     0.004691  d :     0.032861
      dxz     :     0.006463
      dyz     :     0.004316
      dx2y2   :     0.008539
      dxy     :     0.008851
 17 C s       :     3.244577  s :     3.244577
      pz      :     0.982612  p :     2.810783
      px      :     0.942311
      py      :     0.885860
      dz2     :     0.004494  d :     0.033328
      dxz     :     0.005961
      dyz     :     0.004305
      dx2y2   :     0.008995
      dxy     :     0.009573
 18 C s       :     3.162403  s :     3.162403
      pz      :     0.949010  p :     2.790998
      px      :     0.889163
      py      :     0.952824
      dz2     :     0.004373  d :     0.034714
      dxz     :     0.004474
      dyz     :     0.006573
      dx2y2   :     0.010490
      dxy     :     0.008804
 19 C s       :     3.242609  s :     3.242609
      pz      :     0.973254  p :     2.811100
      px      :     0.951270
      py      :     0.886577
      dz2     :     0.003203  d :     0.033278
      dxz     :     0.006170
      dyz     :     0.004755
      dx2y2   :     0.009899
      dxy     :     0.009252
 20 C s       :     3.165504  s :     3.165504
      pz      :     0.951859  p :     2.794706
      px      :     0.896538
      py      :     0.946308
      dz2     :     0.005059  d :     0.033477
      dxz     :     0.004793
      dyz     :     0.006042
      dx2y2   :     0.009684
      dxy     :     0.007900
 21 H s       :     0.931506  s :     0.931506
      pz      :     0.004520  p :     0.022658
      px      :     0.006868
      py      :     0.011269
 22 C s       :     2.979665  s :     2.979665
      pz      :     1.028011  p :     2.977002
      px      :     0.990324
      py      :     0.958667
      dz2     :     0.003825  d :     0.025108
      dxz     :     0.007115
      dyz     :     0.003197
      dx2y2   :     0.003298
      dxy     :     0.007674
 23 C s       :     2.998938  s :     2.998938
      pz      :     1.009707  p :     2.973649
      px      :     1.001117
      py      :     0.962825
      dz2     :     0.006790  d :     0.024723
      dxz     :     0.002801
      dyz     :     0.004363
      dx2y2   :     0.004800
      dxy     :     0.005969
 24 H s       :     0.941144  s :     0.941144
      pz      :     0.004192  p :     0.023147
      px      :     0.007251
      py      :     0.011703
 25 H s       :     0.929146  s :     0.929146
      pz      :     0.004898  p :     0.022982
      px      :     0.015050
      py      :     0.003033
 26 H s       :     0.941772  s :     0.941772
      pz      :     0.006965  p :     0.023189
      px      :     0.004924
      py      :     0.011300
 27 H s       :     0.926207  s :     0.926207
      pz      :     0.004616  p :     0.022953
      px      :     0.015206
      py      :     0.003131
 28 H s       :     0.934272  s :     0.934272
      pz      :     0.007760  p :     0.022887
      px      :     0.004966
      py      :     0.010161
 29 C s       :     2.986674  s :     2.986674
      pz      :     1.002736  p :     2.971891
      px      :     0.999057
      py      :     0.970098
      dz2     :     0.006540  d :     0.024648
      dxz     :     0.003119
      dyz     :     0.004655
      dx2y2   :     0.004080
      dxy     :     0.006254
 30 H s       :     0.872688  s :     0.872688
      pz      :     0.010817  p :     0.018753
      px      :     0.004800
      py      :     0.003136
 31 H s       :     0.893195  s :     0.893195
      pz      :     0.003443  p :     0.020688
      px      :     0.007407
      py      :     0.009838
 32 H s       :     0.888572  s :     0.888572
      pz      :     0.007110  p :     0.018804
      px      :     0.008396
      py      :     0.003297
 33 H s       :     0.909116  s :     0.909116
      pz      :     0.005265  p :     0.022438
      px      :     0.012890
      py      :     0.004283
 34 H s       :     0.896515  s :     0.896515
      pz      :     0.013779  p :     0.022449
      px      :     0.004375
      py      :     0.004294
 35 H s       :     0.914725  s :     0.914725
      pz      :     0.004072  p :     0.022805
      px      :     0.007741
      py      :     0.010993
 36 H s       :     0.909662  s :     0.909662
      pz      :     0.005196  p :     0.022415
      px      :     0.013167
      py      :     0.004052
 37 H s       :     0.910311  s :     0.910311
      pz      :     0.003999  p :     0.021933
      px      :     0.007308
      py      :     0.010626
 38 H s       :     0.892774  s :     0.892774
      pz      :     0.014058  p :     0.021901
      px      :     0.004099
      py      :     0.003744
 39 H s       :     0.902958  s :     0.902958
      pz      :     0.010337  p :     0.023271
      px      :     0.008774
      py      :     0.004160
 40 H s       :     0.905474  s :     0.905474
      pz      :     0.011194  p :     0.022701
      px      :     0.007076
      py      :     0.004431
 41 H s       :     0.914752  s :     0.914752
      pz      :     0.004960  p :     0.022657
      px      :     0.007352
      py      :     0.010345


                     *******************************
                     * LOEWDIN POPULATION ANALYSIS *
                     *******************************

----------------------
LOEWDIN ATOMIC CHARGES
----------------------
   0 N :    0.078946
   1 C :    0.158916
   2 N :    0.080662
   3 H :    0.106793
   4 C :    0.038692
   5 C :    0.038867
   6 C :   -0.008808
   7 C :   -0.010669
   8 C :   -0.028993
   9 C :   -0.021524
  10 C :   -0.021359
  11 C :   -0.019914
  12 H :    0.083643
  13 H :    0.084823
  14 C :   -0.036974
  15 C :   -0.090593
  16 C :   -0.038451
  17 C :   -0.037305
  18 C :   -0.012996
  19 C :   -0.037191
  20 C :   -0.013269
  21 H :    0.047692
  22 C :   -0.062138
  23 C :   -0.067481
  24 H :    0.043595
  25 H :    0.046378
  26 H :    0.043297
  27 H :    0.045999
  28 H :    0.046047
  29 C :   -0.064411
  30 H :    0.068885
  31 H :    0.056097
  32 H :    0.056956
  33 H :    0.047745
  34 H :    0.053779
  35 H :    0.046590
  36 H :    0.046273
  37 H :    0.049960
  38 H :    0.056075
  39 H :    0.050101
  40 H :    0.046809
  41 H :    0.048455

-------------------------------
LOEWDIN REDUCED ORBITAL CHARGES
-------------------------------
  0 N s       :     3.066603  s :     3.066603
      pz      :     1.185339  p :     3.786643
      px      :     1.185059
      py      :     1.416245
      dz2     :     0.015219  d :     0.067807
      dxz     :     0.025344
      dyz     :     0.009527
      dx2y2   :     0.009601
      dxy     :     0.008116
  1 C s       :     2.881554  s :     2.881554
      pz      :     1.030416  p :     2.816193
      px      :     0.888572
      py      :     0.897205
      dz2     :     0.022987  d :     0.143337
      dxz     :     0.058224
      dyz     :     0.010435
      dx2y2   :     0.020495
      dxy     :     0.031195
  2 N s       :     3.065968  s :     3.065968
      pz      :     1.185439  p :     3.785534
      px      :     1.184174
      py      :     1.415920
      dz2     :     0.015364  d :     0.067836
      dxz     :     0.025378
      dyz     :     0.009449
      dx2y2   :     0.009574
      dxy     :     0.008072
  3 H s       :     0.825338  s :     0.825338
      pz      :     0.053571  p :     0.067870
      px      :     0.004884
      py      :     0.009414
  4 C s       :     2.890152  s :     2.890152
      pz      :     0.894997  p :     2.970527
      px      :     1.058619
      py      :     1.016911
      dz2     :     0.034093  d :     0.100629
      dxz     :     0.028012
      dyz     :     0.011090
      dx2y2   :     0.013578
      dxy     :     0.013855
  5 C s       :     2.890589  s :     2.890589
      pz      :     0.897701  p :     2.969876
      px      :     1.057525
      py      :     1.014649
      dz2     :     0.033753  d :     0.100668
      dxz     :     0.028299
      dyz     :     0.011098
      dx2y2   :     0.013596
      dxy     :     0.013922
  6 C s       :     2.845820  s :     2.845820
      pz      :     1.065499  p :     3.036996
      px      :     0.891586
      py      :     1.079912
      dz2     :     0.014272  d :     0.125992
      dxz     :     0.020819
      dyz     :     0.017021
      dx2y2   :     0.040879
      dxy     :     0.033002
  7 C s       :     2.838408  s :     2.838408
      pz      :     1.060643  p :     3.042577
      px      :     0.895315
      py      :     1.086619
      dz2     :     0.012396  d :     0.129683
      dxz     :     0.019993
      dyz     :     0.017525
      dx2y2   :     0.043919
      dxy     :     0.035850
  8 C s       :     2.866114  s :     2.866114
      pz      :     0.980663  p :     3.059775
      px      :     1.064719
      py      :     1.014393
      dz2     :     0.013917  d :     0.103103
      dxz     :     0.018365
      dyz     :     0.015270
      dx2y2   :     0.026780
      dxy     :     0.028773
  9 C s       :     2.863056  s :     2.863056
      pz      :     0.974340  p :     3.055306
      px      :     1.066217
      py      :     1.014750
      dz2     :     0.012450  d :     0.103161
      dxz     :     0.019364
      dyz     :     0.013740
      dx2y2   :     0.027860
      dxy     :     0.029746
 10 C s       :     2.857714  s :     2.857714
      pz      :     0.965335  p :     3.057501
      px      :     1.064727
      py      :     1.027440
      dz2     :     0.011970  d :     0.106144
      dxz     :     0.017982
      dyz     :     0.014407
      dx2y2   :     0.029507
      dxy     :     0.032279
 11 C s       :     2.857231  s :     2.857231
      pz      :     0.968015  p :     3.056364
      px      :     1.061297
      py      :     1.027053
      dz2     :     0.012601  d :     0.106319
      dxz     :     0.016809
      dyz     :     0.016427
      dx2y2   :     0.029478
      dxy     :     0.031004
 12 H s       :     0.847970  s :     0.847970
      pz      :     0.032515  p :     0.068387
      px      :     0.023323
      py      :     0.012549
 13 H s       :     0.847103  s :     0.847103
      pz      :     0.032940  p :     0.068074
      px      :     0.022885
      py      :     0.012249
 14 C s       :     2.867044  s :     2.867044
      pz      :     1.004219  p :     3.084631
      px      :     1.044550
      py      :     1.035862
      dz2     :     0.007560  d :     0.085299
      dxz     :     0.015832
      dyz     :     0.011265
      dx2y2   :     0.025643
      dxy     :     0.024999
 15 C s       :     2.907225  s :     2.907225
      pz      :     1.053153  p :     3.125934
      px      :     1.039421
      py      :     1.033359
      dz2     :     0.010106  d :     0.057434
      dxz     :     0.013973
      dyz     :     0.006683
      dx2y2   :     0.006772
      dxy     :     0.019900
[...]
 12:    221.24   0.000054    0.27  0.000076  (-0.002507  0.006012 -0.005798)
 13:    239.95   0.000035    0.18  0.000045  (-0.001446 -0.006197  0.002159)
 14:    259.55   0.000014    0.07  0.000017  (-0.000585 -0.001638  0.003727)
 15:    266.85   0.000243    1.23  0.000284  ( 0.016084  0.000597  0.004990)
 16:    287.12   0.000106    0.53  0.000115  (-0.002177  0.001395 -0.010399)
 17:    318.79   0.000029    0.14  0.000028  (-0.005035 -0.000518  0.001537)
 18:    349.57   0.000205    1.04  0.000183  (-0.002007 -0.009795  0.009109)
 19:    372.89   0.004409   22.28  0.003690  ( 0.001820 -0.024053  0.055749)
 20:    383.49   0.000576    2.91  0.000469  ( 0.000119  0.006996 -0.020485)
 21:    391.62   0.000885    4.47  0.000705  (-0.005050 -0.010362  0.023923)
 22:    418.58   0.000645    3.26  0.000481  (-0.019166  0.007079 -0.007950)
 23:    444.59   0.001087    5.49  0.000763  (-0.027187 -0.003070  0.003806)
 24:    493.82   0.000146    0.74  0.000093  ( 0.000424 -0.008771 -0.003932)
 25:    505.06   0.000018    0.09  0.000011  ( 0.002230 -0.000978  0.002254)
 26:    507.52   0.000010    0.05  0.000006  (-0.002352 -0.000949  0.000043)
 27:    534.76   0.000035    0.18  0.000021  (-0.001606  0.004228 -0.000456)
 28:    549.47   0.001205    6.09  0.000684  (-0.000660 -0.024184 -0.009939)
 29:    556.01   0.000049    0.25  0.000028  (-0.001194  0.001684  0.004848)
 30:    569.77   0.000007    0.04  0.000004  (-0.001772 -0.000920 -0.000006)
 31:    573.87   0.000395    2.00  0.000215  (-0.002716  0.005855 -0.013164)
 32:    580.38   0.000166    0.84  0.000089  ( 0.001222  0.002553  0.009011)
 33:    582.43   0.000018    0.09  0.000010  (-0.000237 -0.001473 -0.002729)
 34:    595.46   0.000310    1.56  0.000162  (-0.012613  0.001392  0.001080)
 35:    596.93   0.000060    0.30  0.000031  ( 0.000556  0.003380 -0.004411)
 36:    617.55   0.000015    0.08  0.000008  ( 0.002280 -0.000140 -0.001576)
 37:    706.01   0.000339    1.71  0.000150  (-0.012225  0.000066 -0.000667)
 38:    728.18   0.006993   35.34  0.002997  ( 0.001504  0.053932  0.009272)
 39:    762.64   0.000125    0.63  0.000051  ( 0.004990 -0.000075  0.005143)
 40:    769.23   0.000438    2.21  0.000178  ( 0.013092  0.000671 -0.002440)
 41:    790.00   0.000556    2.81  0.000219  (-0.000199  0.012795 -0.007465)
 42:    794.48   0.001408    7.11  0.000553  (-0.009860  0.014368 -0.015790)
 43:    807.96   0.001104    5.58  0.000426  ( 0.008822  0.015310 -0.010684)
 44:    831.90   0.009981   50.44  0.003744  (-0.017265  0.027951 -0.051623)
 45:    853.36   0.010174   51.41  0.003720  ( 0.016652  0.032053 -0.049149)
 46:    901.28   0.000967    4.89  0.000335  (-0.002189  0.003119 -0.017894)
 47:    916.90   0.014621   73.89  0.004976  ( 0.001674  0.070523 -0.000127)
 48:    937.14   0.002012   10.17  0.000670  ( 0.015803 -0.016317 -0.012408)
 49:    943.46   0.004637   23.43  0.001534  ( 0.037945  0.008563  0.004525)
 50:    960.87   0.001282    6.48  0.000416  ( 0.001072  0.018470  0.008611)
 51:    961.98   0.000108    0.54  0.000035  (-0.000416 -0.004382 -0.003946)
 52:    993.96   0.000016    0.08  0.000005  ( 0.002003 -0.000485 -0.000821)
 53:   1018.29   0.005724   28.93  0.001754  (-0.041846  0.001771 -0.000243)
 54:   1026.73   0.000227    1.15  0.000069  ( 0.003955 -0.004360  0.005849)
 55:   1028.83   0.001332    6.73  0.000404  (-0.019099  0.004815  0.004019)
 56:   1053.27   0.000102    0.51  0.000030  ( 0.002855  0.003870 -0.002650)
 57:   1059.28   0.000438    2.22  0.000129  (-0.000976 -0.009952  0.005399)
 58:   1069.14   0.000605    3.06  0.000177  (-0.011235 -0.001309 -0.006978)
 59:   1069.91   0.005387   27.23  0.001571  ( 0.000244  0.039626  0.001027)
 60:   1075.08   0.000399    2.02  0.000116  ( 0.006233  0.007563  0.004447)
 61:   1108.07   0.001949    9.85  0.000549  (-0.002737 -0.008530 -0.021646)
 62:   1111.58   0.003357   16.97  0.000943  ( 0.028127 -0.005823  0.010838)
 63:   1114.68   0.001037    5.24  0.000290  ( 0.015200 -0.003011 -0.007086)
 64:   1120.53   0.002115   10.69  0.000589  ( 0.010477  0.000636 -0.021881)
 65:   1131.98   0.002695   13.62  0.000743  ( 0.023229  0.004806 -0.013421)
 66:   1135.55   0.001498    7.57  0.000412  ( 0.012351  0.003192  0.015781)
 67:   1151.25   0.002025   10.23  0.000549  ( 0.001477  0.008377 -0.021830)
 68:   1156.42   0.002406   12.16  0.000649  (-0.006394 -0.017564 -0.017314)
 69:   1175.98   0.001069    5.40  0.000284  (-0.002529 -0.014940 -0.007361)
 70:   1179.02   0.000441    2.23  0.000117  ( 0.009805 -0.001448  0.004301)
 71:   1211.73   0.001733    8.76  0.000446  ( 0.013184 -0.010312 -0.012894)
 72:   1228.39   0.000018    0.09  0.000005  (-0.001542  0.000304 -0.001427)
 73:   1253.07   0.014317   72.35  0.003566  ( 0.059619  0.001060  0.003180)
 74:   1266.05   0.008683   43.88  0.002140  ( 0.045020  0.005100 -0.009352)
 75:   1277.94   0.011931   60.29  0.002913  ( 0.052720 -0.011345 -0.002296)
 76:   1285.37   0.000332    1.68  0.000081  (-0.004844  0.002880  0.006989)
 77:   1295.83   0.004334   21.90  0.001044  (-0.029379 -0.001598 -0.013342)
 78:   1297.32   0.003007   15.20  0.000723  (-0.026855 -0.001396 -0.000381)
 79:   1304.86   0.002815   14.23  0.000673  (-0.023888 -0.002095  0.009911)
 80:   1316.60   0.004146   20.95  0.000983  (-0.003802 -0.025648 -0.017619)
 81:   1325.70   0.001119    5.65  0.000263  (-0.016070  0.002256 -0.000251)
 82:   1410.32   0.000343    1.73  0.000076  (-0.006121 -0.005293 -0.003224)
 83:   1435.61   0.000323    1.63  0.000070  ( 0.006472 -0.004341  0.003077)
 84:   1443.01   0.000038    0.19  0.000008  ( 0.002616  0.000200  0.001137)
 85:   1453.00   0.000319    1.61  0.000069  (-0.003528 -0.002222  0.007151)
 86:   1468.60   0.000707    3.57  0.000150  (-0.000496 -0.007951 -0.009314)
 87:   1473.42   0.002752   13.91  0.000583  ( 0.000841 -0.010085  0.021921)
 88:   1476.02   0.000431    2.18  0.000091  (-0.007480  0.004702 -0.003611)
 89:   1481.01   0.003665   18.52  0.000772  (-0.015639  0.010314 -0.020524)
 90:   1481.63   0.003263   16.49  0.000687  ( 0.004244  0.004928 -0.025395)
 91:   1482.23   0.000750    3.79  0.000158  ( 0.000434  0.011221  0.005638)
 92:   1484.80   0.000885    4.47  0.000186  (-0.011744 -0.006699 -0.001792)
 93:   1491.87   0.004136   20.90  0.000865  (-0.027439  0.010334  0.002351)
 94:   1504.21   0.005584   28.22  0.001159  (-0.030362 -0.003861 -0.014893)
 95:   1508.74   0.006467   32.68  0.001338  (-0.035040  0.004397  0.009515)
 96:   1517.23   0.005763   29.12  0.001185  ( 0.003023  0.032938  0.009555)
 97:   1524.66   0.003716   18.78  0.000761  ( 0.011912 -0.007995 -0.023553)
 98:   1527.49   0.006045   30.55  0.001235  (-0.010610 -0.032605 -0.007708)
 99:   1565.99   0.059220  299.28  0.011801  (-0.108593  0.002673  0.001235)
100:   1629.14   0.003468   17.53  0.000664  ( 0.003136 -0.015162 -0.020605)
101:   1640.40   0.001041    5.26  0.000198  ( 0.004935 -0.010256  0.008281)
102:   1663.39   0.000973    4.92  0.000183  ( 0.011475  0.005601  0.004418)
103:   1676.54   0.000682    3.45  0.000127  (-0.010586 -0.001799  0.003414)
104:   1688.65   0.002655   13.42  0.000491  (-0.001514 -0.020708 -0.007710)
105:   2146.45   0.005259   26.58  0.000765  (-0.023127  0.015074  0.001590)
106:   2174.42   0.003665   18.52  0.000526  (-0.001546  0.004729 -0.022389)
107:   2629.28   0.002826   14.28  0.000335  ( 0.006434  0.016225  0.005550)
108:   2686.84   0.003150   15.92  0.000366  ( 0.007067 -0.009169 -0.015225)
109:   2758.15   0.003184   16.09  0.000360  ( 0.010323  0.009835  0.012527)
110:   2798.90   0.003090   15.61  0.000345  ( 0.006766 -0.016331  0.005657)
111:   2817.69   0.001716    8.67  0.000190  (-0.008019 -0.006929  0.008814)
112:   2826.77   0.018926   95.64  0.002089  (-0.000152  0.003132 -0.045602)
113:   2833.03   0.003801   19.21  0.000419  (-0.013928 -0.014606  0.003373)
114:   2861.93   0.002556   12.92  0.000279  ( 0.012980  0.010311  0.001984)
115:   2924.97   0.001523    7.69  0.000162  ( 0.001632  0.002486  0.012393)
116:   2967.50   0.007806   39.45  0.000821  ( 0.025839  0.000170 -0.012379)
117:   2978.16   0.002356   11.90  0.000247  (-0.009409  0.012241  0.002907)
118:   3001.05   0.008656   43.74  0.000900  (-0.012747  0.002045 -0.027081)
119:   3011.99   0.002432   12.29  0.000252  (-0.007695  0.013428  0.003531)
120:   3075.92   0.000851    4.30  0.000086  ( 0.005051 -0.007386 -0.002505)
121:   3118.03   0.000697    3.52  0.000070  (-0.003501 -0.006053 -0.004572)
122:   3176.40   0.000295    1.49  0.000029  ( 0.000629  0.004953  0.002023)
123:   3186.08   0.001096    5.54  0.000107  ( 0.003722  0.009257  0.002795)
124:   3195.69   0.001218    6.16  0.000119  (-0.010458  0.000284 -0.003087)
125:   3199.04   0.001660    8.39  0.000162  (-0.011719  0.001820  0.004614)

* The epsilon (eps) is given for a Dirac delta lineshape.
** The dipole moment derivative (T) already includes vibrational overlap.

The first frequency considered to be a vibration is 6
The total number of vibrations considered is 120


--------------------------
THERMOCHEMISTRY AT 298.15K
--------------------------

Temperature         ... 298.15 K
Pressure            ... 1.00 atm
Total Mass          ... 277.39 AMU

Throughout the following assumptions are being made:
  (1) The electronic state is orbitally nondegenerate
  (2) There are no thermally accessible electronically excited states
  (3) Hindered rotations indicated by low frequency modes are not
      treated as such but are treated as vibrations and this may
      cause some error
  (4) All equations used are the standard statistical mechanics
      equations for an ideal gas
  (5) All vibrations are strictly harmonic

freq.      67.71  E(vib)   ...       0.50 
freq.      78.39  E(vib)   ...       0.49 
freq.      87.92  E(vib)   ...       0.48 
freq.     125.02  E(vib)   ...       0.43 
freq.     132.31  E(vib)   ...       0.42 
freq.     166.50  E(vib)   ...       0.39 
freq.     221.24  E(vib)   ...       0.33 
freq.     239.95  E(vib)   ...       0.31 
freq.     259.55  E(vib)   ...       0.30 
freq.     266.85  E(vib)   ...       0.29 
freq.     287.12  E(vib)   ...       0.27 
freq.     318.79  E(vib)   ...       0.25 
freq.     349.57  E(vib)   ...       0.23 
freq.     372.89  E(vib)   ...       0.21 
freq.     383.49  E(vib)   ...       0.20 
freq.     391.62  E(vib)   ...       0.20 
freq.     418.58  E(vib)   ...       0.18 
freq.     444.59  E(vib)   ...       0.17 
freq.     493.82  E(vib)   ...       0.14 
freq.     505.06  E(vib)   ...       0.14 
freq.     507.52  E(vib)   ...       0.14 
freq.     534.76  E(vib)   ...       0.13 
freq.     549.47  E(vib)   ...       0.12 
freq.     556.01  E(vib)   ...       0.12 
freq.     569.77  E(vib)   ...       0.11 
freq.     573.87  E(vib)   ...       0.11 
freq.     580.38  E(vib)   ...       0.11 
freq.     582.43  E(vib)   ...       0.11 
freq.     595.46  E(vib)   ...       0.10 
freq.     596.93  E(vib)   ...       0.10 
freq.     617.55  E(vib)   ...       0.09 
freq.     706.01  E(vib)   ...       0.07 
freq.     728.18  E(vib)   ...       0.06 
freq.     762.64  E(vib)   ...       0.06 
freq.     769.23  E(vib)   ...       0.06 
freq.     790.00  E(vib)   ...       0.05 
freq.     794.48  E(vib)   ...       0.05 
freq.     807.96  E(vib)   ...       0.05 
freq.     831.90  E(vib)   ...       0.04 
freq.     853.36  E(vib)   ...       0.04 
freq.     901.28  E(vib)   ...       0.03 
freq.     916.90  E(vib)   ...       0.03 
freq.     937.14  E(vib)   ...       0.03 
freq.     943.46  E(vib)   ...       0.03 
freq.     960.87  E(vib)   ...       0.03 
freq.     961.98  E(vib)   ...       0.03 
freq.     993.96  E(vib)   ...       0.02 
freq.    1018.29  E(vib)   ...       0.02 
freq.    1026.73  E(vib)   ...       0.02 
freq.    1028.83  E(vib)   ...       0.02 
freq.    1053.27  E(vib)   ...       0.02 
freq.    1059.28  E(vib)   ...       0.02 
freq.    1069.14  E(vib)   ...       0.02 
freq.    1069.91  E(vib)   ...       0.02 
freq.    1075.08  E(vib)   ...       0.02 
freq.    1108.07  E(vib)   ...       0.02 
freq.    1111.58  E(vib)   ...       0.01 
freq.    1114.68  E(vib)   ...       0.01 
freq.    1120.53  E(vib)   ...       0.01 
freq.    1131.98  E(vib)   ...       0.01 
freq.    1135.55  E(vib)   ...       0.01 
freq.    1151.25  E(vib)   ...       0.01 
freq.    1156.42  E(vib)   ...       0.01 
freq.    1175.98  E(vib)   ...       0.01 
freq.    1179.02  E(vib)   ...       0.01 
freq.    1211.73  E(vib)   ...       0.01 
freq.    1228.39  E(vib)   ...       0.01 
freq.    1253.07  E(vib)   ...       0.01 
freq.    1266.05  E(vib)   ...       0.01 
freq.    1277.94  E(vib)   ...       0.01 
freq.    1285.37  E(vib)   ...       0.01 
freq.    1295.83  E(vib)   ...       0.01 
freq.    1297.32  E(vib)   ...       0.01 
freq.    1304.86  E(vib)   ...       0.01 
freq.    1316.60  E(vib)   ...       0.01 
freq.    1325.70  E(vib)   ...       0.01 
freq.    1410.32  E(vib)   ...       0.00 
freq.    1435.61  E(vib)   ...       0.00 
freq.    1443.01  E(vib)   ...       0.00 
freq.    1453.00  E(vib)   ...       0.00 
freq.    1468.60  E(vib)   ...       0.00 
freq.    1473.42  E(vib)   ...       0.00 
freq.    1476.02  E(vib)   ...       0.00 
freq.    1481.01  E(vib)   ...       0.00 
freq.    1481.63  E(vib)   ...       0.00 
freq.    1482.23  E(vib)   ...       0.00 
freq.    1484.80  E(vib)   ...       0.00 
freq.    1491.87  E(vib)   ...       0.00 
freq.    1504.21  E(vib)   ...       0.00 
freq.    1508.74  E(vib)   ...       0.00 
freq.    1517.23  E(vib)   ...       0.00 
freq.    1524.66  E(vib)   ...       0.00 
freq.    1527.49  E(vib)   ...       0.00 
freq.    1565.99  E(vib)   ...       0.00 
freq.    1629.14  E(vib)   ...       0.00 
freq.    1640.40  E(vib)   ...       0.00 
freq.    1663.39  E(vib)   ...       0.00 
freq.    1676.54  E(vib)   ...       0.00 
freq.    1688.65  E(vib)   ...       0.00 
freq.    2146.45  E(vib)   ...       0.00 
freq.    2174.42  E(vib)   ...       0.00 
freq.    2629.28  E(vib)   ...       0.00 
freq.    2686.84  E(vib)   ...       0.00 
freq.    2758.15  E(vib)   ...       0.00 
freq.    2798.90  E(vib)   ...       0.00 
freq.    2817.69  E(vib)   ...       0.00 
freq.    2826.77  E(vib)   ...       0.00 
freq.    2833.03  E(vib)   ...       0.00 
freq.    2861.93  E(vib)   ...       0.00 
freq.    2924.97  E(vib)   ...       0.00 
freq.    2967.50  E(vib)   ...       0.00 
freq.    2978.16  E(vib)   ...       0.00 
freq.    3001.05  E(vib)   ...       0.00 
freq.    3011.99  E(vib)   ...       0.00 
freq.    3075.92  E(vib)   ...       0.00 
freq.    3118.03  E(vib)   ...       0.00 
freq.    3176.40  E(vib)   ...       0.00 
freq.    3186.08  E(vib)   ...       0.00 
freq.    3195.69  E(vib)   ...       0.00 
freq.    3199.04  E(vib)   ...       0.00 

------------
INNER ENERGY
------------

The inner energy is: U= E(el) + E(ZPE) + E(vib) + E(rot) + E(trans)
    E(el)   - is the total energy from the electronic structure calculation
              = E(kin-el) + E(nuc-el) + E(el-el) + E(nuc-nuc)
    E(ZPE)  - the the zero temperature vibrational energy from the frequency calculation
    E(vib)  - the the finite temperature correction to E(ZPE) due to population
              of excited vibrational states
    E(rot)  - is the rotational thermal energy
    E(trans)- is the translational thermal energy

Summary of contributions to the inner energy U:
Electronic energy                ...   -845.20022078 Eh
Zero point energy                ...      0.35261294 Eh     221.27 kcal/mol
Thermal vibrational correction   ...      0.01320802 Eh       8.29 kcal/mol
Thermal rotational correction    ...      0.00141627 Eh       0.89 kcal/mol
Thermal translational correction ...      0.00141627 Eh       0.89 kcal/mol
-----------------------------------------------------------------------
Total thermal energy                   -844.83156728 Eh


Summary of corrections to the electronic energy:
(perhaps to be used in another calculation)
Total thermal correction                  0.01604056 Eh      10.07 kcal/mol
Non-thermal (ZPE) correction              0.35261294 Eh     221.27 kcal/mol
-----------------------------------------------------------------------
Total correction                          0.36865350 Eh     231.33 kcal/mol


--------
ENTHALPY
--------

The enthalpy is H = U + kB*T
                kB is Boltzmann's constant
Total free energy                 ...   -844.83156728 Eh 
Thermal Enthalpy correction       ...      0.00094421 Eh       0.59 kcal/mol
-----------------------------------------------------------------------
Total Enthalpy                    ...   -844.83062307 Eh


Note: Only C1 symmetry has been detected, increase convergence thresholds 
      if your molecule has a higher symmetry. Symmetry factor of 1.0 is   
      used for the rotational entropy correction. 
 

Note: Rotational entropy computed according to Herzberg 
Infrared and Raman Spectra, Chapter V,1, Van Nostrand Reinhold, 1945 
Point Group:  C1, Symmetry Number:   1  
Rotational constants in cm-1:     0.022887     0.005926     0.005092 

Vibrational entropy computed according to the QRRHO of S. Grimme
Chem.Eur.J. 2012 18 9955


-------
ENTROPY
-------

The entropy contributions are T*S = T*(S(el)+S(vib)+S(rot)+S(trans))
     S(el)   - electronic entropy
     S(vib)  - vibrational entropy
     S(rot)  - rotational entropy
     S(trans)- translational entropy
The entropies will be listed as multiplied by the temperature to get
units of energy

Electronic entropy                ...      0.00000000 Eh      0.00 kcal/mol
Vibrational entropy               ...      0.02164238 Eh     13.58 kcal/mol
Rotational entropy                ...      0.01620778 Eh     10.17 kcal/mol
Translational entropy             ...      0.02031620 Eh     12.75 kcal/mol
-----------------------------------------------------------------------
Final entropy term                ...      0.05816637 Eh     36.50 kcal/mol

In case the symmetry of your molecule has not been determined correctly
or in case you have a reason to use a different symmetry number we print 
out the resulting rotational entropy values for sn=1,12 :
 --------------------------------------------------------
|  sn= 1 | S(rot)=       0.01620778 Eh     10.17 kcal/mol|
|  sn= 2 | S(rot)=       0.01555333 Eh      9.76 kcal/mol|
|  sn= 3 | S(rot)=       0.01517049 Eh      9.52 kcal/mol|
|  sn= 4 | S(rot)=       0.01489887 Eh      9.35 kcal/mol|
|  sn= 5 | S(rot)=       0.01468818 Eh      9.22 kcal/mol|
|  sn= 6 | S(rot)=       0.01451604 Eh      9.11 kcal/mol|
|  sn= 7 | S(rot)=       0.01437049 Eh      9.02 kcal/mol|
|  sn= 8 | S(rot)=       0.01424441 Eh      8.94 kcal/mol|
|  sn= 9 | S(rot)=       0.01413321 Eh      8.87 kcal/mol|
|  sn=10 | S(rot)=       0.01403373 Eh      8.81 kcal/mol|
|  sn=11 | S(rot)=       0.01394374 Eh      8.75 kcal/mol|
|  sn=12 | S(rot)=       0.01386158 Eh      8.70 kcal/mol|
 --------------------------------------------------------


-------------------
GIBBS FREE ENERGY
-------------------

The Gibbs free energy is G = H - T*S

Total enthalpy                    ...   -844.83062307 Eh 
Total entropy correction          ...     -0.05816637 Eh    -36.50 kcal/mol
-----------------------------------------------------------------------
Final Gibbs free energy         ...   -844.88878944 Eh

For completeness - the Gibbs free energy minus the electronic energy
G-E(el)                           ...      0.31143134 Eh    195.43 kcal/mol


Timings for individual modules:

Sum of individual times         ...     6269.459 sec (= 104.491 min)
GTO integral calculation        ...        1.919 sec (=   0.032 min)   0.0 %
SCF iterations                  ...      814.414 sec (=  13.574 min)  13.0 %
Analytical frequency calculation...     5453.127 sec (=  90.885 min)  87.0 %
                             ****ORCA TERMINATED NORMALLY****
TOTAL RUN TIME: 0 days 1 hours 44 minutes 30 seconds 711 msec
