
                                 *****************
                                 * O   R   C   A *
                                 *****************

                                            #,                                       
                                            ###                                      
                                            ####                                     
                                            #####                                    
                                            ######                                   
                                           ########,                                 
                                     ,,################,,,,,                         
                               ,,#################################,,                 
                          ,,##########################################,,             
                       ,#########################################, ''#####,          
                    ,#############################################,,   '####,        
                  ,##################################################,,,,####,       
                ,###########''''           ''''###############################       
              ,#####''   ,,,,##########,,,,          '''####'''          '####       
            ,##' ,,,,###########################,,,                        '##       
           ' ,,###''''                  '''############,,,                           
         ,,##''                                '''############,,,,        ,,,,,,###''
      ,#''                                            '''#######################'''  
     '                                                          ''''####''''         
             ,#######,   #######,   ,#######,      ##                                
            ,#'     '#,  ##    ##  ,#'     '#,    #''#        ######   ,####,        
            ##       ##  ##   ,#'  ##            #'  '#       #        #'  '#        
            ##       ##  #######   ##           ,######,      #####,   #    #        
            '#,     ,#'  ##    ##  '#,     ,#' ,#      #,         ##   #,  ,#        
             '#######'   ##     ##  '#######'  #'      '#     #####' # '####'        



                  #######################################################
                  #                        -***-                        #
                  #          Department of theory and spectroscopy      #
                  #    Directorship and core code : Frank Neese         #
                  #        Max Planck Institute fuer Kohlenforschung    #
                  #                Kaiser Wilhelm Platz 1               #
                  #                 D-45470 Muelheim/Ruhr               #
                  #                      Germany                        #
                  #                                                     #
                  #                  All rights reserved                #
                  #                        -***-                        #
                  #######################################################


                         Program Version 5.0.4 -  RELEASE  -


 With contributions from (in alphabetic order):
   Daniel Aravena         : Magnetic Suceptibility
   Michael Atanasov       : Ab Initio Ligand Field Theory (pilot matlab implementation)
   Alexander A. Auer      : GIAO ZORA, VPT2 properties, NMR spectrum
   Ute Becker             : Parallelization
   Giovanni Bistoni       : ED, misc. LED, open-shell LED, HFLD
   Martin Brehm           : Molecular dynamics
   Dmytro Bykov           : SCF Hessian
   Vijay G. Chilkuri      : MRCI spin determinant printing, contributions to CSF-ICE
   Dipayan Datta          : RHF DLPNO-CCSD density
   Achintya Kumar Dutta   : EOM-CC, STEOM-CC
   Dmitry Ganyushin       : Spin-Orbit,Spin-Spin,Magnetic field MRCI
   Miquel Garcia          : C-PCM and meta-GGA Hessian, CC/C-PCM, Gaussian charge scheme
   Yang Guo               : DLPNO-NEVPT2, F12-NEVPT2, CIM, IAO-localization
   Andreas Hansen         : Spin unrestricted coupled pair/coupled cluster methods
   Benjamin Helmich-Paris : MC-RPA, TRAH-SCF, COSX integrals
   Lee Huntington         : MR-EOM, pCC
   Robert Izsak           : Overlap fitted RIJCOSX, COSX-SCS-MP3, EOM
   Marcus Kettner         : VPT2
   Christian Kollmar      : KDIIS, OOCD, Brueckner-CCSD(T), CCSD density, CASPT2, CASPT2-K
   Simone Kossmann        : Meta GGA functionals, TD-DFT gradient, OOMP2, MP2 Hessian
   Martin Krupicka        : Initial AUTO-CI
   Lucas Lang             : DCDCAS
   Marvin Lechner         : AUTO-CI (C++ implementation), FIC-MRCC
   Dagmar Lenk            : GEPOL surface, SMD
   Dimitrios Liakos       : Extrapolation schemes; Compound Job, initial MDCI parallelization
   Dimitrios Manganas     : Further ROCIS development; embedding schemes
   Dimitrios Pantazis     : SARC Basis sets
   Anastasios Papadopoulos: AUTO-CI, single reference methods and gradients
   Taras Petrenko         : DFT Hessian,TD-DFT gradient, ASA, ECA, R-Raman, ABS, FL, XAS/XES, NRVS
   Peter Pinski           : DLPNO-MP2, DLPNO-MP2 Gradient
   Christoph Reimann      : Effective Core Potentials
   Marius Retegan         : Local ZFS, SOC
   Christoph Riplinger    : Optimizer, TS searches, QM/MM, DLPNO-CCSD(T), (RO)-DLPNO pert. Triples
   Tobias Risthaus        : Range-separated hybrids, TD-DFT gradient, RPA, STAB
   Michael Roemelt        : Original ROCIS implementation
   Masaaki Saitow         : Open-shell DLPNO-CCSD energy and density
   Barbara Sandhoefer     : DKH picture change effects
   Avijit Sen             : IP-ROCIS
   Kantharuban Sivalingam : CASSCF convergence, NEVPT2, FIC-MRCI
   Bernardo de Souza      : ESD, SOC TD-DFT
   Georgi Stoychev        : AutoAux, RI-MP2 NMR, DLPNO-MP2 response
   Willem Van den Heuvel  : Paramagnetic NMR
   Boris Wezisla          : Elementary symmetry handling
   Frank Wennmohs         : Technical directorship


 We gratefully acknowledge several colleagues who have allowed us to
 interface, adapt or use parts of their codes:
   Stefan Grimme, W. Hujo, H. Kruse, P. Pracht,  : VdW corrections, initial TS optimization,
                  C. Bannwarth, S. Ehlert          DFT functionals, gCP, sTDA/sTD-DF
   Ed Valeev, F. Pavosevic, A. Kumar             : LibInt (2-el integral package), F12 methods
   Garnet Chan, S. Sharma, J. Yang, R. Olivares  : DMRG
   Ulf Ekstrom                                   : XCFun DFT Library
   Mihaly Kallay                                 : mrcc  (arbitrary order and MRCC methods)
   Jiri Pittner, Ondrej Demel                    : Mk-CCSD
   Frank Weinhold                                : gennbo (NPA and NBO analysis)
   Christopher J. Cramer and Donald G. Truhlar   : smd solvation model
   Lars Goerigk                                  : TD-DFT with DH, B97 family of functionals
   V. Asgeirsson, H. Jonsson                     : NEB implementation
   FAccTs GmbH                                   : IRC, NEB, NEB-TS, DLPNO-Multilevel, CI-OPT
                                                   MM, QMMM, 2- and 3-layer-ONIOM, Crystal-QMMM,
                                                   LR-CPCM, SF, NACMEs, symmetry and pop. for TD-DFT,
                                                   nearIR, NL-DFT gradient (VV10), updates on ESD,
                                                   ML-optimized integration grids
   S Lehtola, MJT Oliveira, MAL Marques          : LibXC Library
   Liviu Ungur et al                             : ANISO software


 Your calculation uses the libint2 library for the computation of 2-el integrals
 For citations please refer to: http://libint.valeyev.net

 Your ORCA version has been built with support for libXC version: 5.1.0
 For citations please refer to: https://tddft.org/programs/libxc/

 This ORCA versions uses:
   CBLAS   interface :  Fast vector & matrix operations
   LAPACKE interface :  Fast linear algebra routines
   SCALAPACK package :  Parallel linear algebra routines
   Shared memory     :  Shared parallel matrices
   BLAS/LAPACK       :  OpenBLAS 0.3.15  USE64BITINT DYNAMIC_ARCH NO_AFFINITY SkylakeX SINGLE_THREADED
        Core in use  :  SkylakeX
   Copyright (c) 2011-2014, The OpenBLAS Project




***************************************
The coordinates will be read from file: 8_prot_aq_1.xyz
***************************************


Your calculation utilizes the atom-pairwise dispersion correction
based on tight binding partial charges (D4)
Cite in your paper:
E.Caldeweyher, C.Bannwarth, S.Grimme, J.Chem.Phys., (2017), 147, 034112.
E.Caldeweyher, S.Ehlert, A.Hansen, H.Neugebauer, S.Grimme, J.Chem.Phys., (2018), in progress.
   

XCFun DFT library Copyright 2009-2010 Ulf Ekstrom and contributors.
See http://admol.org/xcfun for more information.
This is free software; see the source code for copying conditions.
There is ABSOLUTELY NO WARRANTY; not even for MERCHANTABILITY or FITNESS FOR A PARTICULAR PURPOSE.
For details see the documentation.
Scientific users of this library should cite U. Ekstrom, L. Visscher, R. Bast, A. J. Thorvaldsen and K. Ruud;
J.Chem.Theor.Comp. 2010, DOI: 10.1021/ct100117s
XCFun Version 0.99 

================================================================================

----- Orbital basis set information -----
Your calculation utilizes the basis: def2-SVP
   F. Weigend and R. Ahlrichs, Phys. Chem. Chem. Phys. 7, 3297 (2005).

----- AuxJ basis set information -----
Your calculation utilizes the auxiliary basis: def2/J
   F. Weigend, Phys. Chem. Chem. Phys. 8, 1057 (2006).

================================================================================
                                        WARNINGS
                       Please study these warnings very carefully!
================================================================================


WARNING: Geometry Optimization
  ===> : Switching off AutoStart
         For restart on a previous wavefunction, please use MOREAD

INFO   : the flag for use of the SHARK integral package has been found!

================================================================================
                                       INPUT FILE
================================================================================
NAME = 8_prot_aq_1.inp
|  1> # ORCA 5.0.4 - /users/bwb16179/postgrad/2024_03/DFT_Crest_Conformers/Opt/prot/8_prot_aq_1.inp # write input file
|  2> # Basic Mode
|  3> #
|  4> ! Opt Freq wB97X Def2-SVP D4 SlowConv TightSCF Defgrid2 Def2/J RIJCOSX CPCM(Water)
|  5> 
|  6> 
|  7> 
|  8> %maxcore 4500
|  9> 
| 10> %geom
| 11> Maxiter 150
| 12> END
| 13> 
| 14> * xyzfile 1 1 8_prot_aq_1.xyz
| 15> 
| 16>                          ****END OF INPUT****
================================================================================

                       *****************************
                       * Geometry Optimization Run *
                       *****************************

Geometry optimization settings:
Update method            Update   .... BFGS
Choice of coordinates    CoordSys .... Z-matrix Internals
Initial Hessian          InHess   .... Almoef's Model

Convergence Tolerances:
Energy Change            TolE     ....  5.0000e-06 Eh
Max. Gradient            TolMAXG  ....  3.0000e-04 Eh/bohr
RMS Gradient             TolRMSG  ....  1.0000e-04 Eh/bohr
Max. Displacement        TolMAXD  ....  4.0000e-03 bohr
RMS Displacement         TolRMSD  ....  2.0000e-03 bohr
Strict Convergence                ....  False
------------------------------------------------------------------------------
                        ORCA OPTIMIZATION COORDINATE SETUP
------------------------------------------------------------------------------

The optimization will be done in new redundant internal coordinates
Making redundant internal coordinates   ...  (new redundants) done
Evaluating the initial hessian          ...  (Almloef) done
Evaluating the coordinates              ...  done
Calculating the B-matrix                .... done
Calculating the G-matrix                .... done
Diagonalizing the G-matrix              .... done
Small eigenvalue found = 3.594e-03
Small eigenvalue found = 6.016e-03
Small eigenvalue found = 8.561e-03
Small eigenvalue found = 1.350e-02
Small eigenvalue found = 1.800e-02
The first mode is                       ....   99
The number of degrees of freedom        ....  120

    -----------------------------------------------------------------
                    Redundant Internal Coordinates


    -----------------------------------------------------------------
         Definition                    Initial Value    Approx d2E/dq
    -----------------------------------------------------------------
      1. B(C   1,N   0)                  1.3291         0.699977   
      2. B(N   2,C   1)                  1.3291         0.699991   
      3. B(H   3,C   1)                  1.0725         0.383995   
      4. B(C   4,N   2)                  1.3622         0.619695   
      5. B(C   5,N   0)                  1.3622         0.619683   
      6. B(C   5,C   4)                  1.3616         0.693624   
      7. B(C   6,N   0)                  1.4295         0.483992   
      8. B(C   7,N   2)                  1.4295         0.484009   
      9. B(C   8,C   6)                  1.3949         0.613539   
     10. B(C   9,C   6)                  1.3947         0.614092   
     11. B(C  10,C   7)                  1.3947         0.614094   
     12. B(C  11,C   7)                  1.3950         0.613500   
     13. B(H  12,C   4)                  1.0709         0.386314   
     14. B(H  13,C   5)                  1.0709         0.386309   
     15. B(C  14,C   8)                  1.3881         0.629206   
     16. B(C  15,C   8)                  1.4977         0.420605   
     17. B(C  16,C   9)                  1.3882         0.628955   
     18. B(C  17,C  10)                  1.3882         0.628937   
     19. B(C  18,C  17)                  1.3834         0.640056   
     20. B(C  19,C  18)                  1.3835         0.639819   
     21. B(C  19,C  11)                  1.3881         0.629211   
     22. B(C  20,C  16)                  1.3834         0.640041   
     23. B(C  20,C  14)                  1.3835         0.639817   
     24. B(H  21,C  16)                  1.0785         0.375602   
     25. B(C  22,C  11)                  1.4977         0.420608   
     26. B(C  23,C  10)                  1.4980         0.420172   
     27. B(H  24,C  17)                  1.0785         0.375602   
     28. B(H  25,C  18)                  1.0784         0.375799   
     29. B(H  26,C  19)                  1.0785         0.375600   
     30. B(H  27,C  20)                  1.0784         0.375799   
     31. B(H  28,C  14)                  1.0785         0.375599   
     32. B(C  29,C   9)                  1.4980         0.420177   
     33. B(H  30,C  15)                  1.0898         0.360373   
     34. B(H  31,C  15)                  1.0900         0.360071   
     35. B(H  32,C  15)                  1.0855         0.366060   
     36. B(H  33,C  29)                  1.0856         0.365930   
     37. B(H  34,C  29)                  1.0904         0.359560   
     38. B(H  35,C  29)                  1.0896         0.360625   
     39. B(H  36,C  23)                  1.0855         0.366038   
     40. B(H  37,C  23)                  1.0903         0.359640   
     41. B(H  38,C  23)                  1.0896         0.360666   
     42. B(H  39,C  22)                  1.0900         0.360106   
     43. B(H  40,C  22)                  1.0855         0.366049   
     44. B(H  41,C  22)                  1.0898         0.360359   
     45. A(C   5,N   0,C   6)          125.6577         0.409872   
     46. A(C   1,N   0,C   5)          108.1338         0.437820   
     47. A(C   1,N   0,C   6)          126.2084         0.418844   
     48. A(N   2,C   1,H   3)          125.3582         0.361966   
     49. A(N   0,C   1,N   2)          109.2972         0.447575   
     50. A(N   0,C   1,H   3)          125.3446         0.361965   
     51. A(C   1,N   2,C   7)          126.2213         0.418848   
     52. A(C   1,N   2,C   4)          108.1326         0.437823   
     53. A(C   4,N   2,C   7)          125.6460         0.409876   
     54. A(C   5,C   4,H  12)          130.6446         0.364037   
     55. A(N   2,C   4,H  12)          122.1351         0.354904   
     56. A(N   2,C   4,C   5)          107.2195         0.439990   
     57. A(C   4,C   5,H  13)          130.6554         0.364036   
     58. A(N   0,C   5,H  13)          122.1269         0.354902   
     59. A(N   0,C   5,C   4)          107.2169         0.439989   
     60. A(C   8,C   6,C   9)          122.7514         0.432504   
     61. A(N   0,C   6,C   9)          118.6562         0.411871   
     62. A(N   0,C   6,C   8)          118.5899         0.411805   
     63. A(N   2,C   7,C  10)          118.6615         0.411874   
     64. A(C  10,C   7,C  11)          122.7497         0.432499   
     65. A(N   2,C   7,C  11)          118.5863         0.411803   
     66. A(C   6,C   8,C  15)          120.8467         0.404305   
     67. A(C   6,C   8,C  14)          117.6623         0.434399   
     68. A(C  14,C   8,C  15)          121.4906         0.406110   
     69. A(C   6,C   9,C  29)          120.9148         0.404296   
     70. A(C   6,C   9,C  16)          117.6690         0.434438   
     71. A(C  16,C   9,C  29)          121.4161         0.406008   
     72. A(C   7,C  10,C  17)          117.6694         0.434436   
     73. A(C  17,C  10,C  23)          121.4091         0.406005   
     74. A(C   7,C  10,C  23)          120.9213         0.404296   
     75. A(C   7,C  11,C  19)          117.6631         0.434395   
     76. A(C   7,C  11,C  22)          120.8514         0.404301   
     77. A(C  19,C  11,C  22)          121.4853         0.406111   
     78. A(C   8,C  14,C  20)          120.7118         0.437693   
     79. A(C  20,C  14,H  28)          120.0317         0.357342   
     80. A(C   8,C  14,H  28)          119.2564         0.356329   
     81. A(H  31,C  15,H  32)          108.2183         0.291587   
     82. A(H  30,C  15,H  32)          108.1278         0.291625   
     83. A(H  30,C  15,H  31)          108.0682         0.290870   
     84. A(C   8,C  15,H  31)          111.0539         0.330715   
     85. A(C   8,C  15,H  30)          111.0249         0.330761   
     86. A(C   8,C  15,H  32)          110.2410         0.331620   
     87. A(C   9,C  16,H  21)          119.2510         0.356305   
     88. A(C  20,C  16,H  21)          120.0412         0.357364   
     89. A(C   9,C  16,C  20)          120.7077         0.437689   
     90. A(C  10,C  17,C  18)          120.7088         0.437689   
     91. A(C  18,C  17,H  24)          120.0414         0.357365   
     92. A(C  10,C  17,H  24)          119.2497         0.356303   
     93. A(C  17,C  18,C  19)          120.4966         0.439046   
     94. A(C  19,C  18,H  25)          119.7519         0.357375   
     95. A(C  17,C  18,H  25)          119.7515         0.357397   
     96. A(C  11,C  19,C  18)          120.7125         0.437694   
     97. A(C  18,C  19,H  26)          120.0313         0.357343   
     98. A(C  11,C  19,H  26)          119.2562         0.356329   
     99. A(C  16,C  20,H  27)          119.7504         0.357396   
    100. A(C  14,C  20,H  27)          119.7519         0.357375   
    101. A(C  14,C  20,C  16)          120.4978         0.439044   
    102. A(H  40,C  22,H  41)          108.1172         0.291622   
    103. A(C  11,C  22,H  40)          110.2397         0.331618   
    104. A(H  39,C  22,H  41)          108.0677         0.290873   
    105. A(C  11,C  22,H  41)          111.0103         0.330760   
    106. A(H  39,C  22,H  40)          108.2265         0.291590   
    107. A(C  11,C  22,H  39)          111.0726         0.330721   
    108. A(H  37,C  23,H  38)          108.2470         0.290853   
    109. A(H  36,C  23,H  38)          108.3199         0.291660   
    110. A(C  10,C  23,H  38)          111.3360         0.330749   
    111. A(H  36,C  23,H  37)          107.9118         0.291529   
    112. A(C  10,C  23,H  37)          110.7157         0.330594   
    113. A(C  10,C  23,H  36)          110.2025         0.331560   
    114. A(H  34,C  29,H  35)          108.2406         0.290837   
    115. A(H  33,C  29,H  35)          108.3236         0.291641   
    116. A(C   9,C  29,H  35)          111.3243         0.330744   
    117. A(H  33,C  29,H  34)          107.9183         0.291506   
    118. A(C   9,C  29,H  34)          110.7196         0.330582   
    119. A(C   9,C  29,H  33)          110.2069         0.331544   
    120. D(N   2,C   1,N   0,C   5)     -0.0176         0.040546   
    121. D(N   2,C   1,N   0,C   6)    179.8527         0.040546   
    122. D(H   3,C   1,N   0,C   6)     -0.1417         0.040546   
    123. D(H   3,C   1,N   0,C   5)    179.9879         0.040546   
    124. D(C   7,N   2,C   1,N   0)    179.8612         0.040547   
    125. D(C   4,N   2,C   1,H   3)    179.9769         0.040547   
    126. D(C   4,N   2,C   1,N   0)     -0.0176         0.040547   
    127. D(C   7,N   2,C   1,H   3)     -0.1444         0.040547   
    128. D(H  12,C   4,N   2,C   7)     -0.1359         0.031094   
    129. D(H  12,C   4,N   2,C   1)    179.7437         0.031094   
    130. D(C   5,C   4,N   2,C   7)   -179.8339         0.031094   
    131. D(C   5,C   4,N   2,C   1)      0.0457         0.031094   
    132. D(H  13,C   5,N   0,C   1)    179.7566         0.031092   
    133. D(H  13,C   5,C   4,N   2)   -179.7330         0.033833   
    134. D(C   4,C   5,N   0,C   6)   -179.8255         0.031092   
    135. D(C   4,C   5,N   0,C   1)      0.0457         0.031092   
    136. D(N   0,C   5,C   4,H  12)   -179.7187         0.033833   
    137. D(H  13,C   5,C   4,H  12)      0.6041         0.033833   
    138. D(N   0,C   5,C   4,N   2)     -0.0558         0.033833   
    139. D(H  13,C   5,N   0,C   6)     -0.1147         0.031092   
    140. D(C   9,C   6,N   0,C   5)     95.9463         0.018486   
    141. D(C   9,C   6,N   0,C   1)    -83.9020         0.018486   
    142. D(C   8,C   6,N   0,C   5)    -83.4939         0.018486   
    143. D(C   8,C   6,N   0,C   1)     96.6577         0.018486   
    144. D(C  11,C   7,N   2,C   4)    -83.2557         0.018487   
    145. D(C  10,C   7,N   2,C   4)     96.1765         0.018487   
    146. D(C  10,C   7,N   2,C   1)    -83.6817         0.018487   
    147. D(C  11,C   7,N   2,C   1)     96.8861         0.018487   
    148. D(C  15,C   8,C   6,N   0)     -0.7045         0.026015   
    149. D(C  14,C   8,C   6,C   9)      0.0763         0.026015   
    150. D(C  14,C   8,C   6,N   0)    179.4923         0.026015   
    151. D(C  15,C   8,C   6,C   9)    179.8795         0.026015   
    152. D(C  29,C   9,C   6,C   8)   -179.8974         0.026065   
    153. D(C  29,C   9,C   6,N   0)      0.6870         0.026065   
    154. D(C  16,C   9,C   6,C   8)     -0.0492         0.026065   
    155. D(C  16,C   9,C   6,N   0)   -179.4648         0.026065   
    156. D(C  23,C  10,C   7,C  11)   -179.8870         0.026065   
    157. D(C  23,C  10,C   7,N   2)      0.7058         0.026065   
    158. D(C  17,C  10,C   7,C  11)     -0.0361         0.026065   
    159. D(C  17,C  10,C   7,N   2)   -179.4433         0.026065   
    160. D(C  22,C  11,C   7,C  10)    179.8809         0.026012   
    161. D(C  22,C  11,C   7,N   2)     -0.7115         0.026012   
    162. D(C  19,C  11,C   7,C  10)      0.0658         0.026012   
    163. D(C  19,C  11,C   7,N   2)    179.4734         0.026012   
    164. D(H  28,C  14,C   8,C  15)      0.1863         0.027445   
    165. D(C  20,C  14,C   8,C  15)   -179.8780         0.027445   
    166. D(H  28,C  14,C   8,C   6)    179.9881         0.027445   
    167. D(C  20,C  14,C   8,C   6)     -0.0761         0.027445   
    168. D(H  32,C  15,C   8,C  14)      2.3151         0.013080   
    169. D(H  32,C  15,C   8,C   6)   -177.4805         0.013080   
    170. D(H  31,C  15,C   8,C  14)    122.2488         0.013080   
    171. D(H  31,C  15,C   8,C   6)    -57.5468         0.013080   
    172. D(H  30,C  15,C   8,C  14)   -117.4865         0.013080   
    173. D(H  30,C  15,C   8,C   6)     62.7179         0.013080   
    174. D(H  21,C  16,C   9,C  29)     -0.2574         0.027422   
    175. D(H  21,C  16,C   9,C   6)    179.8952         0.027422   
    176. D(C  20,C  16,C   9,C  29)    179.8687         0.027422   
    177. D(C  20,C  16,C   9,C   6)      0.0213         0.027422   
    178. D(H  24,C  17,C  10,C  23)     -0.2677         0.027420   
    179. D(H  24,C  17,C  10,C   7)    179.8822         0.027420   
    180. D(C  18,C  17,C  10,C  23)    179.8654         0.027420   
    181. D(C  18,C  17,C  10,C   7)      0.0153         0.027420   
    182. D(C  19,C  18,C  17,C  10)     -0.0267         0.028464   
    183. D(H  25,C  18,C  17,H  24)      0.0387         0.028464   
    184. D(H  25,C  18,C  17,C  10)    179.9045         0.028464   
    185. D(C  19,C  18,C  17,H  24)   -179.8925         0.028464   
    186. D(H  26,C  19,C  18,H  25)      0.0610         0.028441   
    187. D(H  26,C  19,C  18,C  17)    179.9922         0.028441   
    188. D(C  11,C  19,C  18,H  25)   -179.8733         0.028441   
    189. D(C  11,C  19,C  18,C  17)      0.0580         0.028441   
    190. D(H  26,C  19,C  11,C  22)      0.1759         0.027446   
    191. D(H  26,C  19,C  11,C   7)    179.9897         0.027446   
    192. D(C  18,C  19,C  11,C  22)   -179.8893         0.027446   
    193. D(C  18,C  19,C  11,C   7)     -0.0755         0.027446   
    194. D(H  27,C  20,C  16,H  21)      0.0416         0.028462   
    195. D(H  27,C  20,C  16,C   9)    179.9145         0.028462   
    196. D(C  14,C  20,C  16,H  21)   -179.8962         0.028462   
    197. D(C  14,C  20,C  16,C   9)     -0.0233         0.028462   
    198. D(H  27,C  20,C  14,H  28)      0.0492         0.028441   
    199. D(H  27,C  20,C  14,C   8)   -179.8860         0.028441   
    200. D(C  16,C  20,C  14,H  28)    179.9870         0.028441   
    201. D(C  16,C  20,C  14,C   8)      0.0518         0.028441   
    202. D(H  41,C  22,C  11,C  19)   -117.0094         0.013081   
    203. D(H  41,C  22,C  11,C   7)     63.1827         0.013081   
    204. D(H  40,C  22,C  11,C  19)      2.7687         0.013081   
    205. D(H  40,C  22,C  11,C   7)   -177.0392         0.013081   
    206. D(H  39,C  22,C  11,C  19)    122.7239         0.013081   
    207. D(H  39,C  22,C  11,C   7)    -57.0840         0.013081   
    208. D(H  38,C  23,C  10,C  17)    129.1216         0.013054   
    209. D(H  38,C  23,C  10,C   7)    -51.0331         0.013054   
    210. D(H  37,C  23,C  10,C  17)   -110.4070         0.013054   
    211. D(H  37,C  23,C  10,C   7)     69.4383         0.013054   
    212. D(H  36,C  23,C  10,C  17)      8.9027         0.013054   
    213. D(H  36,C  23,C  10,C   7)   -171.2521         0.013054   
    214. D(H  35,C  29,C   9,C  16)    128.8876         0.013055   
    215. D(H  35,C  29,C   9,C   6)    -51.2699         0.013055   
    216. D(H  34,C  29,C   9,C  16)   -110.6542         0.013055   
    217. D(H  34,C  29,C   9,C   6)     69.1882         0.013055   
    218. D(H  33,C  29,C   9,C  16)      8.6687         0.013055   
    219. D(H  33,C  29,C   9,C   6)   -171.4888         0.013055   
    -----------------------------------------------------------------

Number of atoms                         .... 42
Number of degrees of freedom            .... 219

         *************************************************************
         *                GEOMETRY OPTIMIZATION CYCLE   1            *
         *************************************************************
---------------------------------
CARTESIAN COORDINATES (ANGSTROEM)
---------------------------------
  N     -1.084023    0.009209    0.485435
  C     -0.000152   -0.000850   -0.283690
  N      1.083944   -0.006935    0.485149
  H     -0.000440   -0.003536   -1.356198
  C      0.680904   -0.000173    1.786374
  C     -0.680617    0.009170    1.786571
  C     -2.440140    0.021103    0.033433
  C      2.440020   -0.020996    0.033116
  C     -3.129170   -1.189427   -0.042320
  C     -3.022657    1.243138   -0.301982
  C      3.021253   -1.244096   -0.300638
  C      3.130406    1.188685   -0.044171
  H      1.378517   -0.007244    2.598810
  H     -1.378124    0.020238    2.599058
  C     -4.448164   -1.154293   -0.473368
  C     -2.460540   -2.478001    0.326029
  C     -4.343953    1.232197   -0.727589
  C      4.342695   -1.235180   -0.725862
  C      5.049272   -0.048892   -0.811614
  C      4.449470    1.151514   -0.474828
  C     -5.049171    0.044996   -0.811982
  H     -4.820248    2.163089   -0.991794
  C      2.463279    2.478539    0.322413
  C      2.240583   -2.519000   -0.204781
  H      4.818052   -2.166971   -0.988581
  H      6.075612   -0.060042   -1.142393
  H      5.007381    2.071908   -0.544353
  H     -6.075372    0.054556   -1.143239
  H     -5.005055   -2.075390   -0.541766
  C     -2.243308    2.518944   -0.207445
  H     -2.167357   -2.480280    1.375643
  H     -1.566026   -2.640855   -0.275195
  H     -3.136006   -3.311841    0.162214
  H     -2.898370    3.370824   -0.361666
  H     -1.464255    2.552493   -0.969640
  H     -1.770233    2.622871    0.768585
  H      2.895594   -3.371765   -0.353660
  H      1.464616   -2.554560   -0.969940
  H      1.763660   -2.619491    0.769700
  H      1.564481    2.638027   -0.273250
  H      3.137078    3.312044    0.150187
  H      2.177459    2.485532    1.374046

----------------------------
CARTESIAN COORDINATES (A.U.)
----------------------------
  NO LB      ZA    FRAG     MASS         X           Y           Z
   0 N     7.0000    0    14.007   -2.048506    0.017402    0.917340
   1 C     6.0000    0    12.011   -0.000288   -0.001607   -0.536097
   2 N     7.0000    0    14.007    2.048358   -0.013105    0.916798
   3 H     1.0000    0     1.008   -0.000832   -0.006682   -2.562842
   4 C     6.0000    0    12.011    1.286722   -0.000326    3.375758
   5 C     6.0000    0    12.011   -1.286180    0.017330    3.376130
   6 C     6.0000    0    12.011   -4.611196    0.039879    0.063180
   7 C     6.0000    0    12.011    4.610970   -0.039676    0.062580
   8 C     6.0000    0    12.011   -5.913274   -2.247691   -0.079974
   9 C     6.0000    0    12.011   -5.711994    2.349191   -0.570664
  10 C     6.0000    0    12.011    5.709340   -2.351001   -0.568124
  11 C     6.0000    0    12.011    5.915610    2.246289   -0.083471
  12 H     1.0000    0     1.008    2.605020   -0.013689    4.911040
  13 H     1.0000    0     1.008   -2.604277    0.038245    4.911508
  14 C     6.0000    0    12.011   -8.405812   -2.181298   -0.894537
  15 C     6.0000    0    12.011   -4.649747   -4.682744    0.616106
  16 C     6.0000    0    12.011   -8.208881    2.328516   -1.374944
  17 C     6.0000    0    12.011    8.206505   -2.334151   -1.371680
  18 C     6.0000    0    12.011    9.541741   -0.092392   -1.533727
  19 C     6.0000    0    12.011    8.408279    2.176046   -0.897295
  20 C     6.0000    0    12.011   -9.541550    0.085031   -1.534424
  21 H     1.0000    0     1.008   -9.108949    4.087646   -1.874218
  22 C     6.0000    0    12.011    4.654923    4.683760    0.609273
  23 C     6.0000    0    12.011    4.234088   -4.760219   -0.386980
  24 H     1.0000    0     1.008    9.104799   -4.094981   -1.868147
  25 H     1.0000    0     1.008   11.481243   -0.113462   -2.158810
  26 H     1.0000    0     1.008    9.462579    3.915339   -1.028677
  27 H     1.0000    0     1.008  -11.480790    0.103096   -2.160408
  28 H     1.0000    0     1.008   -9.458182   -3.921918   -1.023790
  29 C     6.0000    0    12.011   -4.239238    4.760115   -0.392014
  30 H     1.0000    0     1.008   -4.095712   -4.687050    2.599589
  31 H     1.0000    0     1.008   -2.959359   -4.990493   -0.520043
  32 H     1.0000    0     1.008   -5.926193   -6.258473    0.306540
  33 H     1.0000    0     1.008   -5.477125    6.369935   -0.683449
  34 H     1.0000    0     1.008   -2.767042    4.823512   -1.832355
  35 H     1.0000    0     1.008   -3.345255    4.956508    1.452416
  36 H     1.0000    0     1.008    5.471880   -6.371713   -0.668321
  37 H     1.0000    0     1.008    2.767722   -4.827419   -1.832922
  38 H     1.0000    0     1.008    3.332834   -4.950120    1.454523
  39 H     1.0000    0     1.008    2.956440    4.985149   -0.516368
  40 H     1.0000    0     1.008    5.928218    6.258855    0.283811
  41 H     1.0000    0     1.008    4.114802    4.696975    2.596570

--------------------------------
INTERNAL COORDINATES (ANGSTROEM)
--------------------------------
 N      0   0   0     0.000000000000     0.00000000     0.00000000
 C      1   0   0     1.329071124529     0.00000000     0.00000000
 N      2   1   0     1.329065625879   109.29723909     0.00000000
 H      2   1   3     1.072510791572   125.34455384   180.00555122
 C      3   2   1     1.362231750010   108.13258050     0.00000000
 C      5   3   2     1.361553060909   107.21947875     0.04570524
 C      1   2   3     1.429511019264   126.20837728   179.85273559
 C      3   2   1     1.429501200753   126.22132239   179.86116834
 C      7   1   2     1.394949357683   118.58989273    96.65769511
 C      7   1   2     1.394704066001   118.65617055   276.09796284
 C      8   3   2     1.394703145051   118.66149451   276.31830517
 C      8   3   2     1.394966843773   118.58625304    96.88607768
 H      5   3   2     1.070872048500   122.13511386   179.74369157
 H      6   5   3     1.070875389469   130.65539493   180.26701583
 C      9   7   1     1.388085532129   117.66230955   179.49230781
 C      9   7   1     1.497722212339   120.84674645   359.29551038
 C     10   7   1     1.388194252741   117.66899439   180.53517050
 C     11   8   3     1.388202170832   117.66941237   180.55672550
 C     18  11   8     1.383431710929   120.70877703     0.00000000
 C     19  18  11     1.383532425821   120.49655218   359.97327659
 C     17  10   7     1.383438029055   120.70766605     0.00000000
 H     17  10   7     1.078527127361   119.25103666   179.89519624
 C     12   8   3     1.497720482583   120.85137089   359.28848579
 C     11   8   3     1.498002801501   120.92128429     0.70583859
 H     18  11   8     1.078526716941   119.24969740   179.88215345
 H     19  18  11     1.078384410029   119.75154055   179.90451191
 H     20  19  18     1.078528596433   120.03128692   179.99224764
 H     21  17  10     1.078384088635   119.75035393   179.91448265
 H     15   9   7     1.078528697844   119.25643567   179.98811864
 C     10   7   1     1.497999755948   120.91477644     0.68699069
 H     16   9   7     1.089793792329   111.02487058    62.71792671
 H     16   9   7     1.090022036318   111.05391675   302.45317674
 H     16   9   7     1.085531847349   110.24100164   182.51952964
 H     30  10   7     1.085628427140   110.20692922   188.51118421
 H     30  10   7     1.090408522096   110.71955858    69.18821085
 H     30  10   7     1.089603518004   111.32427419   308.73008773
 H     24  11   8     1.085547872433   110.20252066   188.74791792
 H     24  11   8     1.090347774555   110.71570032    69.43831428
 H     24  11   8     1.089572512321   111.33596063   308.96689036
 H     23  12   8     1.089995420221   111.07255191   302.91596196
 H     23  12   8     1.085539642172   110.23968301   182.96081668
 H     23  12   8     1.089804029990   111.01031332    63.18271837

---------------------------
INTERNAL COORDINATES (A.U.)
---------------------------
 N      0   0   0     0.000000000000     0.00000000     0.00000000
 C      1   0   0     2.511580437862     0.00000000     0.00000000
 N      2   1   0     2.511570046919   109.29723909     0.00000000
 H      2   1   3     2.026751671746   125.34455384   180.00555122
 C      3   2   1     2.574244938452   108.13258050     0.00000000
 C      5   3   2     2.572962401921   107.21947875     0.04570524
 C      1   2   3     2.701384331831   126.20837728   179.85273559
 C      3   2   1     2.701365777536   126.22132239   179.86116834
 C      7   1   2     2.636072256709   118.58989273    96.65769511
 C      7   1   2     2.635608722608   118.65617055   276.09796284
 C      8   3   2     2.635606982265   118.66149451   276.31830517
 C      8   3   2     2.636105300631   118.58625304    96.88607768
 H      5   3   2     2.023654896136   122.13511386   179.74369157
 H      6   5   3     2.023661209652   130.65539493   180.26701583
 C      9   7   1     2.623101506182   117.66230955   179.49230781
 C      9   7   1     2.830284806012   120.84674645   359.29551038
 C     10   7   1     2.623306958365   117.66899439   180.53517050
 C     11   8   3     2.623321921387   117.66941237   180.55672550
 C     18  11   8     2.614307058638   120.70877703     0.00000000
 C     19  18  11     2.614497382201   120.49655218   359.97327659
 C     17  10   7     2.614318998166   120.70766605     0.00000000
 H     17  10   7     2.038120898718   119.25103666   179.89519624
 C     12   8   3     2.830281537245   120.85137089   359.28848579
 C     11   8   3     2.830815042684   120.92128429     0.70583859
 H     18  11   8     2.038120123136   119.24969740   179.88215345
 H     19  18  11     2.037851202044   119.75154055   179.90451191
 H     20  19  18     2.038123674861   120.03128692   179.99224764
 H     21  17  10     2.037850594698   119.75035393   179.91448265
 H     15   9   7     2.038123866500   119.25643567   179.98811864
 C     10   7   1     2.830809287423   120.91477644     0.68699069
 H     16   9   7     2.059411809949   111.02487058    62.71792671
 H     16   9   7     2.059843128581   111.05391675   302.45317674
 H     16   9   7     2.051357901140   110.24100164   182.51952964
 H     30  10   7     2.051540410495   110.20692922   188.51118421
 H     30  10   7     2.060573480855   110.71955858    69.18821085
 H     30  10   7     2.059052243585   111.32427419   308.73008773
 H     24  11   8     2.051388184160   110.20252066   188.74791792
 H     24  11   8     2.060458684639   110.71570032    69.43831428
 H     24  11   8     2.058993651335   111.33596063   308.96689036
 H     23  12   8     2.059792831447   111.07255191   302.91596196
 H     23  12   8     2.051372631220   110.23968301   182.96081668
 H     23  12   8     2.059431156326   111.01031332    63.18271837

---------------------
BASIS SET INFORMATION
---------------------
There are 3 groups of distinct atoms

 Group   1 Type N   : 7s4p1d contracted to 3s2p1d pattern {511/31/1}
 Group   2 Type C   : 7s4p1d contracted to 3s2p1d pattern {511/31/1}
 Group   3 Type H   : 4s1p contracted to 2s1p pattern {31/1}

Atom   0N    basis set group =>   1
Atom   1C    basis set group =>   2
Atom   2N    basis set group =>   1
Atom   3H    basis set group =>   3
Atom   4C    basis set group =>   2
Atom   5C    basis set group =>   2
Atom   6C    basis set group =>   2
Atom   7C    basis set group =>   2
Atom   8C    basis set group =>   2
Atom   9C    basis set group =>   2
Atom  10C    basis set group =>   2
Atom  11C    basis set group =>   2
Atom  12H    basis set group =>   3
Atom  13H    basis set group =>   3
Atom  14C    basis set group =>   2
Atom  15C    basis set group =>   2
Atom  16C    basis set group =>   2
Atom  17C    basis set group =>   2
Atom  18C    basis set group =>   2
Atom  19C    basis set group =>   2
Atom  20C    basis set group =>   2
Atom  21H    basis set group =>   3
Atom  22C    basis set group =>   2
Atom  23C    basis set group =>   2
Atom  24H    basis set group =>   3
Atom  25H    basis set group =>   3
Atom  26H    basis set group =>   3
Atom  27H    basis set group =>   3
Atom  28H    basis set group =>   3
Atom  29C    basis set group =>   2
Atom  30H    basis set group =>   3
Atom  31H    basis set group =>   3
Atom  32H    basis set group =>   3
Atom  33H    basis set group =>   3
Atom  34H    basis set group =>   3
Atom  35H    basis set group =>   3
Atom  36H    basis set group =>   3
Atom  37H    basis set group =>   3
Atom  38H    basis set group =>   3
Atom  39H    basis set group =>   3
Atom  40H    basis set group =>   3
Atom  41H    basis set group =>   3
---------------------------------
AUXILIARY/J BASIS SET INFORMATION
---------------------------------
There are 3 groups of distinct atoms

 Group   1 Type N   : 12s5p4d2f1g contracted to 6s4p3d1f1g pattern {711111/2111/211/2/1}
 Group   2 Type C   : 12s5p4d2f1g contracted to 6s4p3d1f1g pattern {711111/2111/211/2/1}
 Group   3 Type H   : 5s2p1d contracted to 3s1p1d pattern {311/2/1}

Atom   0N    basis set group =>   1
Atom   1C    basis set group =>   2
Atom   2N    basis set group =>   1
Atom   3H    basis set group =>   3
Atom   4C    basis set group =>   2
Atom   5C    basis set group =>   2
Atom   6C    basis set group =>   2
Atom   7C    basis set group =>   2
Atom   8C    basis set group =>   2
Atom   9C    basis set group =>   2
Atom  10C    basis set group =>   2
Atom  11C    basis set group =>   2
Atom  12H    basis set group =>   3
Atom  13H    basis set group =>   3
Atom  14C    basis set group =>   2
Atom  15C    basis set group =>   2
Atom  16C    basis set group =>   2
Atom  17C    basis set group =>   2
Atom  18C    basis set group =>   2
Atom  19C    basis set group =>   2
Atom  20C    basis set group =>   2
Atom  21H    basis set group =>   3
Atom  22C    basis set group =>   2
Atom  23C    basis set group =>   2
Atom  24H    basis set group =>   3
Atom  25H    basis set group =>   3
Atom  26H    basis set group =>   3
Atom  27H    basis set group =>   3
Atom  28H    basis set group =>   3
Atom  29C    basis set group =>   2
Atom  30H    basis set group =>   3
Atom  31H    basis set group =>   3
Atom  32H    basis set group =>   3
Atom  33H    basis set group =>   3
Atom  34H    basis set group =>   3
Atom  35H    basis set group =>   3
Atom  36H    basis set group =>   3
Atom  37H    basis set group =>   3
Atom  38H    basis set group =>   3
Atom  39H    basis set group =>   3
Atom  40H    basis set group =>   3
Atom  41H    basis set group =>   3
------------------------------------------------------------------------------
                           ORCA GTO INTEGRAL CALCULATION
                           -- RI-GTO INTEGRALS CHOSEN --
------------------------------------------------------------------------------
------------------------------------------------------------------------------
                   ___                                                        
                  /   \      - P O W E R E D   B Y -                         
                 /     \                                                     
                 |  |  |   _    _      __       _____    __    __             
                 |  |  |  | |  | |    /  \     |  _  \  |  |  /  |          
                  \  \/   | |  | |   /    \    | | | |  |  | /  /          
                 / \  \   | |__| |  /  /\  \   | |_| |  |  |/  /          
                |  |  |   |  __  | /  /__\  \  |    /   |      \           
                |  |  |   | |  | | |   __   |  |    \   |  |\   \          
                \     /   | |  | | |  |  |  |  | |\  \  |  | \   \       
                 \___/    |_|  |_| |__|  |__|  |_| \__\ |__|  \__/        
                                                                              
                      - O R C A' S   B I G   F R I E N D -                    
                                      &                                       
                       - I N T E G R A L  F E E D E R -                       
                                                                              
 v1 FN, 2020, v2 2021                                                         
------------------------------------------------------------------------------


Reading SHARK input file 8_prot_aq_1.SHARKINP.tmp ... ok
----------------------
SHARK INTEGRAL PACKAGE
----------------------

Number of atoms                             ...     42
Number of basis functions                   ...    399
Number of shells                            ...    189
Maximum angular momentum                    ...      2
Integral batch strategy                     ... SHARK/LIBINT Hybrid
RI-J (if used) integral strategy            ... SPLIT-RIJ (Revised 2003 algorithm where possible)
Printlevel                                  ...      1
Contraction scheme used                     ... SEGMENTED contraction
Coulomb Range Separation                    ... NOT USED
Exchange Range Separation                   ... Long Range
   Mu parameter                             ...  0.300000
   Scaling (regular/separated)              ...  0.157706  0.842294
Finite Nucleus Model                        ... NOT USED
Auxiliary Coulomb fitting basis             ... AVAILABLE
   # of basis functions in Aux-J            ...   1260
   # of shells in Aux-J                     ...    420
   Maximum angular momentum in Aux-J        ...      4
Auxiliary J/K fitting basis                 ... NOT available
Auxiliary Correlation fitting basis         ... NOT available
Auxiliary 'external' fitting basis          ... NOT available
Integral threshold                          ...     2.500000e-11
Primitive cut-off                           ...     2.500000e-12
Primitive pair pre-selection threshold      ...     2.500000e-12

Calculating pre-screening integrals         ... done (  0.1 sec) Dimension = 189
Organizing shell pair data                  ... done (  0.1 sec)
Shell pair information
Total number of shell pairs                 ...     17955
Shell pairs after pre-screening             ...     13709
Total number of primitive shell pairs       ...     64239
Primitive shell pairs kept                  ...     31512
          la=0 lb=0:   4365 shell pairs
          la=1 lb=0:   5127 shell pairs
          la=1 lb=1:   1550 shell pairs
          la=2 lb=0:   1585 shell pairs
          la=2 lb=1:    931 shell pairs
          la=2 lb=2:    151 shell pairs

Calculating one electron integrals          ... done (  0.1 sec)
Calculating RI/J V-Matrix + Cholesky decomp.... done (  0.1 sec)
Calculating Nuclear repulsion               ... done (  0.0 sec) ENN=   1622.713702597470 Eh

SHARK setup successfully completed in   0.6 seconds

Maximum memory used throughout the entire GTOINT-calculation: 81.7 MB
-------------------------------------------------------------------------------
                                 ORCA SCF
-------------------------------------------------------------------------------

------------
SCF SETTINGS
------------
Hamiltonian:
 Density Functional     Method          .... DFT(GTOs)
 Exchange Functional    Exchange        .... WB97X
 Correlation Functional Correlation     .... WB97X
 Gradients option       PostSCFGGA      .... off
 Hybrid DFT is turned on
   Fraction HF Exchange ScalHFX         ....  0.157706
   Scaling of DF-GGA-X  ScalDFX         ....  0.000000
   Scaling of DF-GGA-C  ScalDFC         ....  1.000000
   Scaling of DF-LDA-C  ScalLDAC        ....  1.000000
   Perturbative correction              ....  0.000000
   Density functional embedding theory  .... OFF
 Long-range corrected/Screened/Range-Separated Hybrid DFT is turned on
   Amount of maximum screened exact exchange              ....  0.842294
   Range separation parameter mu (erf(mu*r12)/r12)        ....  0.300000
 RI-approximation to the Coulomb term is turned on
   Number of AuxJ basis functions       .... 1260
   RIJ-COSX (HFX calculated with COS-X)).... on


General Settings:
 Integral files         IntName         .... 8_prot_aq_1
 Hartree-Fock type      HFTyp           .... RHF
 Total Charge           Charge          ....    1
 Multiplicity           Mult            ....    1
 Number of Electrons    NEL             ....  148
 Basis Dimension        Dim             ....  399
 Nuclear Repulsion      ENuc            ....   1622.7137025975 Eh

Convergence Acceleration:
 DIIS                   CNVDIIS         .... on
   Start iteration      DIISMaxIt       ....     0
   Startup error        DIISStart       ....  0.200000
   # of expansion vecs  DIISMaxEq       ....     5
   Bias factor          DIISBfac        ....   1.050
   Max. coefficient     DIISMaxC        ....  10.000
 Trust-Rad. Augm. Hess. CNVTRAH         .... auto
   Auto Start mean grad. ratio tolernc. ....  1.125000
   Auto Start start iteration           ....    20
   Auto Start num. interpolation iter.  ....    10
   Max. Number of Micro iterations      ....    16
   Max. Number of Macro iterations      .... Maxiter - #DIIS iter
   Number of Davidson start vectors     ....     2
   Converg. threshold I  (grad. norm)   ....   1.000e-05
   Converg. threshold II (energy diff.) ....   1.000e-08
   Grad. Scal. Fac. for Micro threshold ....   0.100
   Minimum threshold for Micro iter.    ....   0.010
   NR start threshold (gradient norm)   ....   0.001
   Initial trust radius                 ....   0.400
   Minimum AH scaling param. (alpha)    ....   1.000
   Maximum AH scaling param. (alpha)    .... 1000.000
   Orbital update algorithm             .... Taylor
   White noise on init. David. guess    .... on
   Maximum white noise                  ....   0.010
   Quad. conv. algorithm                .... NR
 SOSCF                  CNVSOSCF        .... on
   Start iteration      SOSCFMaxIt      ....   150
   Startup grad/error   SOSCFStart      ....  0.001000
 Level Shifting         CNVShift        .... on
   Level shift para.    LevelShift      ....    0.2500
   Turn off err/grad.   ShiftErr        ....    0.0000
 Zerner damping         CNVZerner       .... off
 Static damping         CNVDamp         .... on
   Fraction old density DampFac         ....    0.8500
   Max. Damping (<1)    DampMax         ....    0.9800
   Min. Damping (>=0)   DampMin         ....    0.0000
   Turn off err/grad.   DampErr         ....    0.0300
 Fernandez-Rico         CNVRico         .... off

SCF Procedure:
 Maximum # iterations   MaxIter         ....   125
 SCF integral mode      SCFMode         .... Direct
   Integral package                     .... SHARK and LIBINT hybrid scheme
 Reset frequency        DirectResetFreq ....    20
 Integral Threshold     Thresh          ....  2.500e-11 Eh
 Primitive CutOff       TCut            ....  2.500e-12 Eh

Convergence Tolerance:
 Convergence Check Mode ConvCheckMode   .... Total+1el-Energy
 Convergence forced     ConvForced      .... 0
 Energy Change          TolE            ....  1.000e-08 Eh
 1-El. energy change                    ....  1.000e-05 Eh
 Orbital Gradient       TolG            ....  1.000e-05
 Orbital Rotation angle TolX            ....  1.000e-05
 DIIS Error             TolErr          ....  5.000e-07


Diagonalization of the overlap matrix:
Smallest eigenvalue                        ... 1.915e-04
Time for diagonalization                   ...    0.028 sec
Threshold for overlap eigenvalues          ... 1.000e-08
Number of eigenvalues below threshold      ... 0
Time for construction of square roots      ...    0.012 sec
Total time needed                          ...    0.041 sec

Time for model grid setup =    1.262 sec

------------------------------
INITIAL GUESS: MODEL POTENTIAL
------------------------------
Loading Hartree-Fock densities                     ... done
Calculating cut-offs                               ... done
Initializing the effective Hamiltonian             ... done
Setting up the integral package (SHARK)            ... done
Starting the Coulomb interaction                   ... done (   1.7 sec)
Reading the grid                                   ... done
Mapping shells                                     ... done
Starting the XC term evaluation                    ... done (   1.3 sec)
  promolecular density results
     # of electrons  =    149.008734483
     EX              =   -116.646260313
     EC              =     -4.984404177
     EX+EC           =   -121.630664490
Transforming the Hamiltonian                       ... done (   0.0 sec)
Diagonalizing the Hamiltonian                      ... done (   0.0 sec)
Back transforming the eigenvectors                 ... done (   0.0 sec)
Now organizing SCF variables                       ... done
                      ------------------
                      INITIAL GUESS DONE (   4.3 sec)
                      ------------------
-------------------
DFT GRID GENERATION
-------------------

General Integration Accuracy     IntAcc      ... 4.388
Radial Grid Type                 RadialGrid  ... OptM3 with GC (2021)
Angular Grid (max. ang.)         AngularGrid ... 4 (Lebedev-302)
Angular grid pruning method      GridPruning ... 4 (adaptive)
Weight generation scheme         WeightScheme... Becke
Basis function cutoff            BFCut       ... 1.0000e-11
Integration weight cutoff        WCut        ... 1.0000e-14
Angular grids for H and He will be reduced by one unit
Partially contracted basis set               ... off
Rotationally invariant grid construction     ... off

Total number of grid points                  ...   191678
Total number of batches                      ...     3014
Average number of points per batch           ...       63
Average number of grid points per atom       ...     4564
Time for grid setup =    4.371 sec

--------------------
COSX GRID GENERATION
--------------------

GRIDX 1
-------
General Integration Accuracy     IntAcc      ... 3.816
Radial Grid Type                 RadialGrid  ... OptM3 with GC (2021)
Angular Grid (max. ang.)         AngularGrid ... 1 (Lebedev-50)
Angular grid pruning method      GridPruning ... 4 (adaptive)
Weight generation scheme         WeightScheme... Becke
Basis function cutoff            BFCut       ... 1.0000e-11
Integration weight cutoff        WCut        ... 1.0000e-14
Angular grids for H and He will be reduced by one unit
Partially contracted basis set               ... on
Rotationally invariant grid construction     ... off

Total number of grid points                  ...    24377
Total number of batches                      ...      401
Average number of points per batch           ...       60
Average number of grid points per atom       ...      580
UseSFitting                                  ... on

GRIDX 2
-------
General Integration Accuracy     IntAcc      ... 4.020
Radial Grid Type                 RadialGrid  ... OptM3 with GC (2021)
Angular Grid (max. ang.)         AngularGrid ... 2 (Lebedev-110)
Angular grid pruning method      GridPruning ... 4 (adaptive)
Weight generation scheme         WeightScheme... Becke
Basis function cutoff            BFCut       ... 1.0000e-11
Integration weight cutoff        WCut        ... 1.0000e-14
Angular grids for H and He will be reduced by one unit
Partially contracted basis set               ... on
Rotationally invariant grid construction     ... off

Total number of grid points                  ...    52018
Total number of batches                      ...      833
Average number of points per batch           ...       62
Average number of grid points per atom       ...     1239
UseSFitting                                  ... on

GRIDX 3
-------
General Integration Accuracy     IntAcc      ... 4.338
Radial Grid Type                 RadialGrid  ... OptM3 with GC (2021)
Angular Grid (max. ang.)         AngularGrid ... 3 (Lebedev-194)
Angular grid pruning method      GridPruning ... 4 (adaptive)
Weight generation scheme         WeightScheme... Becke
Basis function cutoff            BFCut       ... 1.0000e-11
Integration weight cutoff        WCut        ... 1.0000e-14
Angular grids for H and He will be reduced by one unit
Partially contracted basis set               ... on
Rotationally invariant grid construction     ... off

Total number of grid points                  ...   113312
Total number of batches                      ...     1788
Average number of points per batch           ...       63
Average number of grid points per atom       ...     2698
UseSFitting                                  ... on

Time for X-Grid setup             =    5.785 sec


--------------------
CPCM SOLVATION MODEL
--------------------
CPCM parameters:
  Epsilon                                         ...      80.4000
  Refrac                                          ...       1.3300
  Rsolv                                           ...       1.3000
  Surface type                                    ... GAUSSIAN VDW
  Epsilon function type                           ...         CPCM
Radii:
 Radius for N  used is    3.5149 Bohr (=   1.8600 Ang.)
 Radius for C  used is    3.8550 Bohr (=   2.0400 Ang.)
 Radius for H  used is    2.4944 Bohr (=   1.3200 Ang.)
Calculating surface                               ...        done! (  0.0s)
GEPOL surface points                              ...         2206
GEPOL Volume                                      ...    2387.9511
GEPOL Surface-area                                ...    1214.3273
Calculating surface distance matrix               ...        done! (  0.0s)
Performing Cholesky decomposition & store         ...        done! (  0.2s)
Overall time for CPCM initialization              ...                 0.2s
--------------
SCF ITERATIONS
--------------
ITER       Energy         Delta-E        Max-DP      RMS-DP      [F,P]     Damp
               ***  Starting incremental Fock matrix formation  ***
  0   -844.8671131498   0.000000000000 0.03203109  0.00066708  0.1494392 0.8500
  1   -844.9401783429  -0.073065193099 0.02887271  0.00061211  0.1212949 0.8500
                               ***Turning on DIIS***
  2   -844.9965966102  -0.056418267301 0.02273614  0.00050490  0.0941110 0.8500
  3   -845.0390241662  -0.042427555991 0.01451842  0.00038478  0.0722021 0.8500
  4   -845.0720018279  -0.032977661779 0.00984981  0.00030824  0.0578082 0.8500
  5   -845.0981092422  -0.026107414281 0.00750092  0.00025727  0.0478816 0.8500
  6   -845.1193723911  -0.021263148891 0.00645478  0.00021813  0.0402884 0.8500
  7   -845.1369798956  -0.017607504520 0.00557035  0.00018697  0.0341228 0.8500
  8   -845.1517061479  -0.014726252228 0.03188049  0.00106800  0.0288732 0.0000
  9   -845.2309814177  -0.079275269835 0.00141813  0.00002906  0.0011960 0.0000
                      *** Initiating the SOSCF procedure ***
                           *** Shutting down DIIS ***
                      *** Re-Reading the Fockian *** 
                      *** Removing any level shift *** 
ITER      Energy       Delta-E        Grad      Rot      Max-DP    RMS-DP
 10   -845.23101608  -0.0000346606  0.000584  0.000584  0.000771  0.000014
               *** Restarting incremental Fock matrix formation ***
 11   -845.23095388   0.0000621991  0.000259  0.000624  0.000549  0.000015
 12   -845.23095649  -0.0000026062  0.000194  0.000880  0.000513  0.000011
 13   -845.23095717  -0.0000006832  0.000066  0.000158  0.000221  0.000005
 14   -845.23095733  -0.0000001615  0.000008  0.000023  0.000040  0.000001
 15   -845.23095734  -0.0000000129  0.000004  0.000014  0.000013  0.000000
                  ***Gradient check signals convergence***
              ***Rediagonalizing the Fockian in SOSCF/NRSCF***

               *****************************************************
               *                     SUCCESS                       *
               *           SCF CONVERGED AFTER  16 CYCLES          *
               *****************************************************

Old exchange energy                            =    -38.234483200 Eh
New exchange energy                            =    -38.234478228 Eh
Exchange energy change after final integration =      0.000004972 Eh
Total energy after final integration           =   -845.230952369 Eh
Final COS-X integration done in                =   193.134 sec

----------------
TOTAL SCF ENERGY
----------------

Total Energy       :         -845.23095237 Eh          -22999.90351 eV

Components:
Nuclear Repulsion  :         1622.71370260 Eh           44156.28471 eV
Electronic Energy  :        -2467.94465497 Eh          -67156.18822 eV
One Electron Energy:        -4342.61242535 Eh         -118168.49166 eV
Two Electron Energy:         1874.66777039 Eh           51012.30345 eV
Max COSX asymmetry :            0.00000331 Eh               0.00009 eV
CPCM Dielectric    :           -0.07589199 Eh              -2.06513 eV

Virial components:
Potential Energy   :        -1681.23203047 Eh          -45748.64937 eV
Kinetic Energy     :          836.00107810 Eh           22748.74586 eV
Virial Ratio       :            2.01104051


DFT components:
N(Alpha)           :       73.999806048072 electrons
N(Beta)            :       73.999806048072 electrons
N(Total)           :      147.999612096144 electrons
E(XC)              :      -86.118949229087 Eh       
DFET-embed. en.    :        0.000000000000 Eh       
CPCM Solvation Model Properties:
Surface-charge          :           -1.02581995
Charge-correction       :            0.00292886 Eh               0.07970 eV
Free-energy (cav+disp)  :  This term is not implemented in the current solvation scheme

---------------
SCF CONVERGENCE
---------------

  Last Energy change         ...    2.2860e-09  Tolerance :   1.0000e-08
  Last MAX-Density change    ...    4.4409e-15  Tolerance :   1.0000e-07
  Last RMS-Density change    ...    3.5567e-17  Tolerance :   5.0000e-09
  Last Orbital Gradient      ...    9.1748e-07  Tolerance :   1.0000e-05
  Last Orbital Rotation      ...    3.4907e-06  Tolerance :   1.0000e-05

             **** THE GBW FILE WAS UPDATED (8_prot_aq_1.gbw) ****
             **** DENSITY 8_prot_aq_1.scfp WAS UPDATED ****
             **** ENERGY FILE WAS UPDATED (8_prot_aq_1.en.tmp) ****
             **** THE GBW FILE WAS UPDATED (8_prot_aq_1.gbw) ****
             **** DENSITY 8_prot_aq_1.scfp WAS UPDATED ****
----------------
ORBITAL ENERGIES
----------------

  NO   OCC          E(Eh)            E(eV) 
   0   2.0000     -14.524997      -395.2453 
   1   2.0000     -14.524974      -395.2446 
   2   2.0000     -10.394066      -282.8369 
   3   2.0000     -10.340302      -281.3739 
   4   2.0000     -10.339728      -281.3583 
   5   2.0000     -10.330369      -281.1036 
   6   2.0000     -10.330324      -281.1024 
   7   2.0000     -10.301265      -280.3117 
   8   2.0000     -10.301262      -280.3116 
   9   2.0000     -10.301175      -280.3092 
  10   2.0000     -10.301171      -280.3091 
  11   2.0000     -10.284080      -279.8440 
  12   2.0000     -10.284077      -279.8440 
  13   2.0000     -10.278813      -279.7007 
  14   2.0000     -10.278811      -279.7007 
  15   2.0000     -10.278806      -279.7005 
  16   2.0000     -10.278804      -279.7005 
  17   2.0000     -10.273387      -279.5531 
  18   2.0000     -10.273371      -279.5526 
  19   2.0000     -10.273212      -279.5483 
  20   2.0000     -10.273205      -279.5481 
  21   2.0000      -1.236046       -33.6345 
  22   2.0000      -1.121280       -30.5116 
  23   2.0000      -1.021154       -27.7870 
  24   2.0000      -1.001830       -27.2612 
  25   2.0000      -0.943345       -25.6697 
  26   2.0000      -0.929083       -25.2816 
  27   2.0000      -0.928695       -25.2711 
  28   2.0000      -0.917336       -24.9620 
  29   2.0000      -0.894291       -24.3349 
  30   2.0000      -0.854775       -23.2596 
  31   2.0000      -0.832920       -22.6649 
  32   2.0000      -0.814358       -22.1598 
  33   2.0000      -0.813264       -22.1300 
  34   2.0000      -0.791224       -21.5303 
  35   2.0000      -0.790514       -21.5110 
  36   2.0000      -0.740270       -20.1438 
  37   2.0000      -0.733807       -19.9679 
  38   2.0000      -0.717286       -19.5184 
  39   2.0000      -0.713632       -19.4189 
  40   2.0000      -0.687236       -18.7006 
  41   2.0000      -0.654004       -17.7963 
  42   2.0000      -0.647677       -17.6242 
  43   2.0000      -0.618095       -16.8192 
  44   2.0000      -0.615961       -16.7612 
  45   2.0000      -0.594815       -16.1857 
  46   2.0000      -0.594483       -16.1767 
  47   2.0000      -0.587454       -15.9854 
  48   2.0000      -0.578810       -15.7502 
  49   2.0000      -0.576416       -15.6851 
  50   2.0000      -0.550763       -14.9870 
  51   2.0000      -0.550023       -14.9669 
  52   2.0000      -0.541017       -14.7218 
  53   2.0000      -0.540203       -14.6997 
  54   2.0000      -0.535040       -14.5592 
  55   2.0000      -0.532355       -14.4861 
  56   2.0000      -0.526253       -14.3201 
  57   2.0000      -0.526230       -14.3195 
  58   2.0000      -0.519622       -14.1396 
  59   2.0000      -0.517697       -14.0873 
  60   2.0000      -0.489069       -13.3082 
  61   2.0000      -0.486927       -13.2500 
  62   2.0000      -0.480176       -13.0663 
  63   2.0000      -0.474604       -12.9146 
  64   2.0000      -0.472967       -12.8701 
  65   2.0000      -0.463145       -12.6028 
  66   2.0000      -0.459834       -12.5127 
  67   2.0000      -0.457718       -12.4552 
  68   2.0000      -0.435075       -11.8390 
  69   2.0000      -0.382574       -10.4104 
  70   2.0000      -0.365610        -9.9488 
  71   2.0000      -0.362395        -9.8613 
  72   2.0000      -0.348889        -9.4938 
  73   2.0000      -0.348430        -9.4813 
  74   0.0000       0.042938         1.1684 
  75   0.0000       0.047103         1.2817 
  76   0.0000       0.056350         1.5334 
  77   0.0000       0.065456         1.7811 
  78   0.0000       0.065477         1.7817 
  79   0.0000       0.087790         2.3889 
  80   0.0000       0.129094         3.5128 
  81   0.0000       0.157590         4.2882 
  82   0.0000       0.160487         4.3671 
  83   0.0000       0.165788         4.5113 
  84   0.0000       0.176670         4.8074 
  85   0.0000       0.181368         4.9353 
  86   0.0000       0.181887         4.9494 
  87   0.0000       0.192905         5.2492 
  88   0.0000       0.202073         5.4987 
  89   0.0000       0.211491         5.7550 
  90   0.0000       0.219324         5.9681 
  91   0.0000       0.221693         6.0326 
  92   0.0000       0.222226         6.0471 
  93   0.0000       0.223641         6.0856 
  94   0.0000       0.231255         6.2928 
  95   0.0000       0.238289         6.4842 
  96   0.0000       0.240721         6.5503 
  97   0.0000       0.248637         6.7658 
  98   0.0000       0.255825         6.9614 
  99   0.0000       0.257744         7.0136 
 100   0.0000       0.261696         7.1211 
 101   0.0000       0.271494         7.3877 
 102   0.0000       0.277243         7.5442 
 103   0.0000       0.280579         7.6349 
 104   0.0000       0.285378         7.7655 
 105   0.0000       0.298247         8.1157 
 106   0.0000       0.305480         8.3125 
 107   0.0000       0.327562         8.9134 
 108   0.0000       0.331398         9.0178 
 109   0.0000       0.334253         9.0955 
 110   0.0000       0.349424         9.5083 
 111   0.0000       0.355257         9.6670 
 112   0.0000       0.382184        10.3998 
 113   0.0000       0.388435        10.5699 
 114   0.0000       0.397119        10.8062 
 115   0.0000       0.399656        10.8752 
 116   0.0000       0.400864        10.9081 
 117   0.0000       0.419877        11.4254 
 118   0.0000       0.420955        11.4548 
 119   0.0000       0.426358        11.6018 
 120   0.0000       0.428849        11.6696 
 121   0.0000       0.437715        11.9108 
 122   0.0000       0.443710        12.0740 
 123   0.0000       0.452570        12.3151 
 124   0.0000       0.476729        12.9725 
 125   0.0000       0.477208        12.9855 
 126   0.0000       0.493150        13.4193 
 127   0.0000       0.493296        13.4233 
 128   0.0000       0.495141        13.4735 
 129   0.0000       0.510698        13.8968 
 130   0.0000       0.512561        13.9475 
 131   0.0000       0.521676        14.1955 
 132   0.0000       0.525266        14.2932 
 133   0.0000       0.531602        14.4656 
 134   0.0000       0.542200        14.7540 
 135   0.0000       0.543661        14.7938 
 136   0.0000       0.544775        14.8241 
 137   0.0000       0.558336        15.1931 
 138   0.0000       0.565674        15.3928 
 139   0.0000       0.576047        15.6750 
 140   0.0000       0.578131        15.7318 
 141   0.0000       0.587062        15.9748 
 142   0.0000       0.587496        15.9866 
 143   0.0000       0.589527        16.0418 
 144   0.0000       0.593299        16.1445 
 145   0.0000       0.597110        16.2482 
 146   0.0000       0.598701        16.2915 
 147   0.0000       0.619124        16.8472 
 148   0.0000       0.637383        17.3441 
 149   0.0000       0.647487        17.6190 
 150   0.0000       0.651383        17.7250 
 151   0.0000       0.665172        18.1002 
 152   0.0000       0.681789        18.5524 
 153   0.0000       0.688828        18.7440 
 154   0.0000       0.697677        18.9848 
 155   0.0000       0.701519        19.0893 
 156   0.0000       0.702626        19.1194 
 157   0.0000       0.710750        19.3405 
 158   0.0000       0.713735        19.4217 
 159   0.0000       0.717704        19.5297 
 160   0.0000       0.729370        19.8472 
 161   0.0000       0.744161        20.2497 
 162   0.0000       0.745289        20.2803 
 163   0.0000       0.748154        20.3583 
 164   0.0000       0.752344        20.4723 
 165   0.0000       0.755211        20.5503 
 166   0.0000       0.755841        20.5675 
 167   0.0000       0.761580        20.7236 
 168   0.0000       0.765413        20.8279 
 169   0.0000       0.767056        20.8727 
 170   0.0000       0.768962        20.9245 
 171   0.0000       0.775773        21.1099 
 172   0.0000       0.782651        21.2970 
 173   0.0000       0.784417        21.3451 
 174   0.0000       0.787196        21.4207 
 175   0.0000       0.787604        21.4318 
 176   0.0000       0.790894        21.5213 
 177   0.0000       0.792904        21.5760 
 178   0.0000       0.799932        21.7673 
 179   0.0000       0.802020        21.8241 
 180   0.0000       0.813669        22.1411 
 181   0.0000       0.814998        22.1772 
 182   0.0000       0.820138        22.3171 
 183   0.0000       0.828409        22.5422 
 184   0.0000       0.838963        22.8293 
 185   0.0000       0.845760        23.0143 
 186   0.0000       0.846782        23.0421 
 187   0.0000       0.858539        23.3620 
 188   0.0000       0.861266        23.4362 
 189   0.0000       0.864085        23.5129 
 190   0.0000       0.875419        23.8214 
 191   0.0000       0.876824        23.8596 
 192   0.0000       0.883662        24.0457 
 193   0.0000       0.889516        24.2050 
 194   0.0000       0.893982        24.3265 
 195   0.0000       0.897212        24.4144 
 196   0.0000       0.905880        24.6502 
 197   0.0000       0.911657        24.8075 
 198   0.0000       0.927958        25.2510 
 199   0.0000       0.930966        25.3329 
 200   0.0000       0.931913        25.3587 
 201   0.0000       0.939776        25.5726 
 202   0.0000       0.940125        25.5821 
 203   0.0000       0.968222        26.3467 
 204   0.0000       0.997873        27.1535 
 205   0.0000       0.999340        27.1934 
 206   0.0000       1.025521        27.9058 
 207   0.0000       1.029379        28.0108 
 208   0.0000       1.038002        28.2455 
 209   0.0000       1.056589        28.7512 
 210   0.0000       1.084098        29.4998 
 211   0.0000       1.126986        30.6669 
 212   0.0000       1.141160        31.0526 
 213   0.0000       1.193206        32.4688 
 214   0.0000       1.228952        33.4415 
 215   0.0000       1.235389        33.6166 
 216   0.0000       1.238248        33.6944 
 217   0.0000       1.242662        33.8146 
 218   0.0000       1.254087        34.1254 
 219   0.0000       1.257647        34.2223 
 220   0.0000       1.262743        34.3610 
 221   0.0000       1.276442        34.7338 
 222   0.0000       1.280636        34.8479 
 223   0.0000       1.293487        35.1976 
 224   0.0000       1.304746        35.5040 
 225   0.0000       1.316992        35.8372 
 226   0.0000       1.324117        36.0311 
 227   0.0000       1.326621        36.0992 
 228   0.0000       1.327888        36.1337 
 229   0.0000       1.334043        36.3011 
 230   0.0000       1.339935        36.4615 
 231   0.0000       1.347143        36.6576 
 232   0.0000       1.348599        36.6972 
 233   0.0000       1.388431        37.7811 
 234   0.0000       1.388831        37.7920 
 235   0.0000       1.414442        38.4889 
 236   0.0000       1.437442        39.1148 
 237   0.0000       1.446535        39.3622 
 238   0.0000       1.457175        39.6517 
 239   0.0000       1.480641        40.2903 
 240   0.0000       1.519398        41.3449 
 241   0.0000       1.584064        43.1046 
 242   0.0000       1.601902        43.5900 
 243   0.0000       1.607686        43.7474 
 244   0.0000       1.611109        43.8405 
 245   0.0000       1.634207        44.4690 
 246   0.0000       1.634931        44.4887 
 247   0.0000       1.635677        44.5090 
 248   0.0000       1.646532        44.8044 
 249   0.0000       1.651584        44.9419 
 250   0.0000       1.655570        45.0503 
 251   0.0000       1.667364        45.3713 
 252   0.0000       1.669740        45.4359 
 253   0.0000       1.673652        45.5424 
 254   0.0000       1.689655        45.9778 
 255   0.0000       1.708123        46.4804 
 256   0.0000       1.716594        46.7109 
 257   0.0000       1.730242        47.0823 
 258   0.0000       1.744127        47.4601 
 259   0.0000       1.755067        47.7578 
 260   0.0000       1.769817        48.1592 
 261   0.0000       1.794912        48.8420 
 262   0.0000       1.800613        48.9972 
 263   0.0000       1.804529        49.1037 
 264   0.0000       1.809847        49.2484 
 265   0.0000       1.813451        49.3465 
 266   0.0000       1.814940        49.3870 
 267   0.0000       1.834339        49.9149 
 268   0.0000       1.834928        49.9309 
 269   0.0000       1.839587        50.0577 
 270   0.0000       1.846149        50.2363 
 271   0.0000       1.861746        50.6607 
 272   0.0000       1.862561        50.6829 
 273   0.0000       1.871328        50.9214 
 274   0.0000       1.873011        50.9672 
 275   0.0000       1.874388        51.0047 
 276   0.0000       1.900116        51.7048 
 277   0.0000       1.906520        51.8790 
 278   0.0000       1.918181        52.1964 
 279   0.0000       1.921032        52.2739 
 280   0.0000       1.922443        52.3123 
 281   0.0000       1.925909        52.4066 
 282   0.0000       1.932161        52.5768 
 283   0.0000       1.932857        52.5957 
 284   0.0000       1.936734        52.7012 
 285   0.0000       1.940500        52.8037 
 286   0.0000       1.940567        52.8055 
 287   0.0000       1.953837        53.1666 
 288   0.0000       1.964629        53.4603 
 289   0.0000       2.003700        54.5235 
 290   0.0000       2.004753        54.5521 
 291   0.0000       2.011270        54.7294 
 292   0.0000       2.016072        54.8601 
 293   0.0000       2.020275        54.9745 
 294   0.0000       2.026370        55.1403 
 295   0.0000       2.029704        55.2311 
 296   0.0000       2.037159        55.4339 
 297   0.0000       2.061692        56.1015 
 298   0.0000       2.063145        56.1410 
 299   0.0000       2.075740        56.4837 
 300   0.0000       2.087037        56.7912 
 301   0.0000       2.089194        56.8499 
 302   0.0000       2.092599        56.9425 
 303   0.0000       2.098642        57.1070 
 304   0.0000       2.127827        57.9011 
 305   0.0000       2.137314        58.1593 
 306   0.0000       2.142049        58.2881 
 307   0.0000       2.147388        58.4334 
 308   0.0000       2.152588        58.5749 
 309   0.0000       2.157866        58.7185 
 310   0.0000       2.165354        58.9223 
 311   0.0000       2.187239        59.5178 
 312   0.0000       2.205132        60.0047 
 313   0.0000       2.218599        60.3712 
 314   0.0000       2.221036        60.4375 
 315   0.0000       2.223007        60.4911 
 316   0.0000       2.225184        60.5503 
 317   0.0000       2.245231        61.0959 
 318   0.0000       2.254624        61.3514 
 319   0.0000       2.260609        61.5143 
 320   0.0000       2.262700        61.5712 
 321   0.0000       2.315633        63.0116 
 322   0.0000       2.318454        63.0883 
 323   0.0000       2.348914        63.9172 
 324   0.0000       2.355895        64.1071 
 325   0.0000       2.361888        64.2702 
 326   0.0000       2.363595        64.3167 
 327   0.0000       2.384361        64.8818 
 328   0.0000       2.394130        65.1476 
 329   0.0000       2.396738        65.2186 
 330   0.0000       2.396825        65.2209 
 331   0.0000       2.404039        65.4172 
 332   0.0000       2.410543        65.5942 
 333   0.0000       2.418535        65.8117 
 334   0.0000       2.423286        65.9410 
 335   0.0000       2.440739        66.4159 
 336   0.0000       2.487062        67.6764 
 337   0.0000       2.507656        68.2368 
 338   0.0000       2.538259        69.0695 
 339   0.0000       2.549267        69.3691 
 340   0.0000       2.551425        69.4278 
 341   0.0000       2.553582        69.4865 
 342   0.0000       2.557726        69.5993 
 343   0.0000       2.564185        69.7750 
 344   0.0000       2.565951        69.8231 
 345   0.0000       2.579492        70.1915 
 346   0.0000       2.583328        70.2959 
 347   0.0000       2.589700        70.4693 
 348   0.0000       2.646668        72.0195 
 349   0.0000       2.650297        72.1183 
 350   0.0000       2.666729        72.5654 
 351   0.0000       2.669215        72.6330 
 352   0.0000       2.687355        73.1266 
 353   0.0000       2.691312        73.2343 
 354   0.0000       2.693467        73.2930 
 355   0.0000       2.708581        73.7042 
 356   0.0000       2.734783        74.4172 
 357   0.0000       2.742168        74.6182 
 358   0.0000       2.748486        74.7901 
 359   0.0000       2.767328        75.3028 
 360   0.0000       2.800793        76.2134 
 361   0.0000       2.810091        76.4665 
 362   0.0000       2.818330        76.6907 
 363   0.0000       2.848461        77.5106 
 364   0.0000       2.853635        77.6514 
 365   0.0000       2.869373        78.0796 
 366   0.0000       2.883413        78.4617 
 367   0.0000       2.884171        78.4823 
 368   0.0000       2.889359        78.6235 
 369   0.0000       2.895062        78.7786 
 370   0.0000       2.949054        80.2478 
 371   0.0000       2.956995        80.4639 
 372   0.0000       2.981971        81.1436 
 373   0.0000       2.985921        81.2510 
 374   0.0000       3.021725        82.2253 
 375   0.0000       3.022155        82.2370 
 376   0.0000       3.033005        82.5323 
 377   0.0000       3.050538        83.0094 
 378   0.0000       3.058630        83.2296 
 379   0.0000       3.068791        83.5061 
 380   0.0000       3.072185        83.5984 
 381   0.0000       3.078611        83.7733 
 382   0.0000       3.080417        83.8224 
 383   0.0000       3.095412        84.2305 
 384   0.0000       3.104363        84.4740 
 385   0.0000       3.130800        85.1934 
 386   0.0000       3.137614        85.3788 
 387   0.0000       3.186333        86.7045 
 388   0.0000       3.190616        86.8211 
 389   0.0000       3.198866        87.0456 
 390   0.0000       3.204273        87.1927 
[...]
 14:    108.95   0.000371    1.87  0.001063  (-0.001685 -0.003381 -0.032378)
 15:    120.15   0.000036    0.18  0.000094  ( 0.007717 -0.005538  0.001844)
 16:    134.63   0.000092    0.46  0.000213  (-0.000488 -0.000076  0.014574)
 17:    192.99   0.000125    0.63  0.000202  (-0.013760  0.003518 -0.000088)
 18:    208.97   0.000127    0.64  0.000189  ( 0.000528 -0.000124 -0.013743)
 19:    231.76   0.000001    0.00  0.000001  ( 0.000032 -0.000046 -0.000942)
 20:    232.19   0.000006    0.03  0.000008  ( 0.000078  0.002776 -0.000131)
 21:    281.45   0.000026    0.13  0.000029  (-0.005277  0.000805  0.000352)
 22:    301.99   0.000002    0.01  0.000002  ( 0.000258 -0.001306 -0.000149)
 23:    332.13   0.003478   17.58  0.003268  (-0.000085  0.000001 -0.057169)
 24:    356.01   0.002064   10.43  0.001810  (-0.000185  0.000059  0.042538)
 25:    357.18   0.000129    0.65  0.000113  (-0.000097  0.000048  0.010626)
 26:    393.67   0.000034    0.17  0.000027  ( 0.004354 -0.002835 -0.000056)
 27:    426.78   0.001720    8.69  0.001258  ( 0.035423 -0.001772  0.000036)
 28:    480.87   0.000329    1.66  0.000213  ( 0.000914  0.014576  0.000003)
 29:    492.28   0.000000    0.00  0.000000  ( 0.000015 -0.000141  0.000379)
 30:    536.13   0.000072    0.36  0.000042  ( 0.001081  0.006368  0.000005)
 31:    536.38   0.000000    0.00  0.000000  ( 0.000027 -0.000326  0.000242)
 32:    540.94   0.001123    5.68  0.000648  (-0.000894 -0.025441  0.000038)
 33:    545.56   0.000002    0.01  0.000001  (-0.000008  0.000079 -0.001154)
 34:    568.35   0.000785    3.97  0.000431  ( 0.000065  0.000037  0.020757)
 35:    593.34   0.000012    0.06  0.000006  ( 0.000512  0.000004  0.002456)
 36:    594.23   0.000356    1.80  0.000187  ( 0.013676  0.000249 -0.000060)
 37:    620.04   0.000127    0.64  0.000064  ( 0.007983 -0.000329 -0.000001)
 38:    691.73   0.013609   68.77  0.006139  (-0.002654 -0.078310  0.000201)
 39:    693.07   0.000014    0.07  0.000006  ( 0.000129  0.000570  0.002449)
 40:    765.72   0.008666   43.79  0.003532  (-0.000187  0.059427 -0.000208)
 41:    768.23   0.000027    0.13  0.000011  (-0.000091 -0.000339  0.003270)
 42:    775.00   0.000238    1.20  0.000096  (-0.000189 -0.000067 -0.009786)
 43:    776.15   0.000197    0.99  0.000079  ( 0.008274 -0.003240 -0.000454)
 44:    783.12   0.000121    0.61  0.000048  (-0.006325 -0.002858 -0.000108)
 45:    807.10   0.016561   83.69  0.006403  ( 0.008026 -0.002133  0.079588)
 46:    807.52   0.003509   17.73  0.001356  ( 0.028432 -0.007450 -0.022186)
 47:    899.64   0.005509   27.84  0.001911  (-0.000029 -0.043714  0.000123)
 48:    911.42   0.000003    0.01  0.000001  ( 0.000080 -0.000032  0.000993)
 49:    939.27   0.000027    0.14  0.000009  ( 0.000541  0.002472 -0.001636)
 50:    939.49   0.000040    0.20  0.000013  (-0.000586 -0.003381 -0.001220)
 51:    944.41   0.000021    0.11  0.000007  ( 0.000175  0.000829  0.002512)
 52:    945.68   0.000964    4.87  0.000318  ( 0.001342  0.017784 -0.000137)
 53:    970.64   0.003748   18.94  0.001205  (-0.034693  0.001229  0.000015)
 54:    980.20   0.000033    0.17  0.000011  (-0.000024 -0.000020 -0.003243)
 55:   1008.46   0.001534    7.75  0.000475  (-0.021660  0.001085  0.002092)
 56:   1008.76   0.000339    1.71  0.000105  ( 0.005128 -0.000153  0.008862)
 57:   1040.23   0.000118    0.60  0.000035  ( 0.003443  0.004627  0.001454)
 58:   1040.26   0.000962    4.86  0.000288  ( 0.000533  0.000283 -0.016974)
 59:   1056.06   0.001315    6.64  0.000388  ( 0.001473  0.000850 -0.019637)
 60:   1056.17   0.000376    1.90  0.000111  (-0.002351 -0.001946 -0.010082)
 61:   1059.71   0.001512    7.64  0.000445  ( 0.008888  0.007886 -0.017435)
 62:   1059.80   0.002202   11.13  0.000648  ( 0.006281  0.005913  0.023957)
 63:   1063.50   0.000535    2.70  0.000157  ( 0.000205  0.000367 -0.012517)
 64:   1063.94   0.000713    3.60  0.000209  ( 0.000839  0.014429  0.000345)
 65:   1080.75   0.007515   37.98  0.002170  (-0.046581  0.000380  0.000037)
 66:   1093.18   0.004470   22.59  0.001276  ( 0.000033  0.000181  0.035721)
 67:   1110.18   0.000055    0.28  0.000016  ( 0.000052 -0.000036 -0.003947)
 68:   1120.21   0.010380   52.46  0.002892  ( 0.053770 -0.000598  0.000036)
 69:   1146.33   0.000153    0.78  0.000042  (-0.000019  0.000016  0.006463)
 70:   1174.85   0.000059    0.30  0.000016  (-0.000153 -0.003950 -0.000416)
 71:   1174.86   0.001852    9.36  0.000492  (-0.000869 -0.022164  0.000094)
 72:   1246.62   0.012528   63.31  0.003136  (-0.055994  0.000952 -0.000008)
 73:   1262.61   0.008174   41.31  0.002020  ( 0.044944 -0.000412  0.000005)
 74:   1281.09   0.000001    0.01  0.000000  ( 0.000054  0.000037  0.000544)
 75:   1281.34   0.000047    0.24  0.000012  ( 0.000551 -0.003356  0.000057)
 76:   1299.64   0.000015    0.07  0.000003  (-0.000100  0.000021  0.001868)
 77:   1307.66   0.001669    8.43  0.000398  (-0.019952 -0.000409 -0.000013)
 78:   1332.46   0.000025    0.13  0.000006  (-0.000087  0.000778 -0.002284)
 79:   1332.92   0.008420   42.55  0.001971  (-0.001692 -0.044366  0.000002)
 80:   1382.29   0.000788    3.98  0.000178  ( 0.000088 -0.000118 -0.013334)
 81:   1394.78   0.000110    0.55  0.000025  (-0.004869 -0.000882 -0.000114)
 82:   1394.96   0.000011    0.05  0.000002  (-0.000779 -0.000063  0.001324)
 83:   1401.83   0.001398    7.06  0.000311  ( 0.017618  0.000858 -0.000046)
 84:   1406.59   0.000042    0.21  0.000009  ( 0.000208  0.000102  0.003041)
 85:   1425.17   0.000407    2.06  0.000089  ( 0.009009 -0.002805  0.000189)
 86:   1440.14   0.002930   14.81  0.000635  ( 0.002024 -0.000359  0.025114)
 87:   1442.16   0.001809    9.14  0.000391  (-0.019554  0.001496  0.002615)
 88:   1446.73   0.002270   11.47  0.000490  (-0.000915  0.007575  0.020768)
 89:   1447.53   0.003937   19.90  0.000849  ( 0.010968 -0.023534  0.013214)
 90:   1448.23   0.001256    6.35  0.000271  ( 0.007553  0.003208  0.014260)
 91:   1448.68   0.002395   12.11  0.000516  (-0.013983  0.006180  0.016801)
 92:   1450.55   0.005021   25.38  0.001080  ( 0.004420  0.004246  0.032291)
 93:   1451.08   0.003649   18.44  0.000785  ( 0.020920  0.017108 -0.007385)
 94:   1474.33   0.000407    2.06  0.000086  (-0.000223  0.000201  0.009280)
 95:   1527.17   0.012633   63.84  0.002582  ( 0.050767 -0.002056 -0.000027)
 96:   1535.71   0.000049    0.25  0.000010  ( 0.000093  0.000035  0.003157)
 97:   1536.13   0.011522   58.23  0.002341  (-0.003889 -0.048223  0.000053)
 98:   1550.30   0.003199   16.16  0.000644  ( 0.000075 -0.000137 -0.025374)
 99:   1644.95   0.000947    4.79  0.000180  (-0.000185 -0.000075 -0.013404)
100:   1645.77   0.055482  280.38  0.010520  (-0.102566  0.000679  0.000020)
101:   1694.98   0.002672   13.51  0.000492  ( 0.022176 -0.000471 -0.000009)
102:   1695.62   0.000257    1.30  0.000047  ( 0.000095  0.000064  0.006880)
103:   1707.58   0.000032    0.16  0.000006  ( 0.000024  0.000205  0.002427)
104:   1708.40   0.006361   32.14  0.001162  (-0.000944 -0.034073  0.000025)
105:   3067.45   0.005970   30.17  0.000607  ( 0.003468  0.024392  0.000565)
106:   3067.98   0.001417    7.16  0.000144  (-0.007475  0.007894 -0.005094)
107:   3068.39   0.001921    9.71  0.000195  ( 0.010888  0.008746  0.000583)
108:   3069.35   0.002812   14.21  0.000286  (-0.015129  0.006948  0.002953)
109:   3155.98   0.000918    4.64  0.000091  ( 0.000101  0.002698  0.009134)
110:   3156.05   0.002334   11.79  0.000231  ( 0.004508 -0.000503 -0.014497)
111:   3156.86   0.000788    3.98  0.000078  (-0.003194  0.002857 -0.007717)
112:   3157.74   0.000668    3.37  0.000066  (-0.005047  0.001833 -0.006097)
113:   3192.16   0.003008   15.20  0.000294  ( 0.009557 -0.014059  0.002247)
114:   3192.23   0.000807    4.08  0.000079  (-0.004841  0.005788  0.004684)
115:   3192.74   0.002146   10.85  0.000210  (-0.010956 -0.009133 -0.002510)
116:   3192.98   0.001709    8.64  0.000167  ( 0.010087  0.007737 -0.002332)
117:   3214.48   0.000071    0.36  0.000007  ( 0.002588  0.000453 -0.000039)
118:   3214.49   0.000013    0.06  0.000001  ( 0.000082  0.000033  0.001100)
119:   3221.97   0.001355    6.85  0.000131  (-0.000207 -0.011431 -0.000701)
120:   3221.98   0.001439    7.27  0.000139  ( 0.000164  0.011784 -0.000701)
121:   3233.76   0.002791   14.10  0.000269  (-0.016407 -0.000028  0.000395)
122:   3233.78   0.000304    1.54  0.000029  (-0.001226 -0.000041 -0.005275)
123:   3296.02   0.015179   76.71  0.001437  ( 0.000002  0.000106  0.037910)
124:   3300.96   0.007631   38.56  0.000721  (-0.026855  0.000479 -0.000001)
125:   3319.31   0.004050   20.47  0.000381  (-0.000000  0.000047  0.019513)

* The epsilon (eps) is given for a Dirac delta lineshape.
** The dipole moment derivative (T) already includes vibrational overlap.

The first frequency considered to be a vibration is 7
The total number of vibrations considered is 119


--------------------------
THERMOCHEMISTRY AT 298.15K
--------------------------

Temperature         ... 298.15 K
Pressure            ... 1.00 atm
Total Mass          ... 277.39 AMU

Throughout the following assumptions are being made:
  (1) The electronic state is orbitally nondegenerate
  (2) There are no thermally accessible electronically excited states
  (3) Hindered rotations indicated by low frequency modes are not
      treated as such but are treated as vibrations and this may
      cause some error
  (4) All equations used are the standard statistical mechanics
      equations for an ideal gas
  (5) All vibrations are strictly harmonic

freq.      12.03  E(vib)   ...       0.58 
freq.      49.39  E(vib)   ...       0.52 
freq.      51.74  E(vib)   ...       0.52 
freq.      83.90  E(vib)   ...       0.48 
freq.      91.48  E(vib)   ...       0.47 
freq.      96.96  E(vib)   ...       0.46 
freq.     101.48  E(vib)   ...       0.46 
freq.     108.95  E(vib)   ...       0.45 
freq.     120.15  E(vib)   ...       0.44 
freq.     134.63  E(vib)   ...       0.42 
freq.     192.99  E(vib)   ...       0.36 
freq.     208.97  E(vib)   ...       0.34 
freq.     231.76  E(vib)   ...       0.32 
freq.     232.19  E(vib)   ...       0.32 
freq.     281.45  E(vib)   ...       0.28 
freq.     301.99  E(vib)   ...       0.26 
freq.     332.13  E(vib)   ...       0.24 
freq.     356.01  E(vib)   ...       0.22 
freq.     357.18  E(vib)   ...       0.22 
freq.     393.67  E(vib)   ...       0.20 
freq.     426.78  E(vib)   ...       0.18 
freq.     480.87  E(vib)   ...       0.15 
freq.     492.28  E(vib)   ...       0.14 
freq.     536.13  E(vib)   ...       0.12 
freq.     536.38  E(vib)   ...       0.12 
freq.     540.94  E(vib)   ...       0.12 
freq.     545.56  E(vib)   ...       0.12 
freq.     568.35  E(vib)   ...       0.11 
freq.     593.34  E(vib)   ...       0.10 
freq.     594.23  E(vib)   ...       0.10 
freq.     620.04  E(vib)   ...       0.09 
freq.     691.73  E(vib)   ...       0.07 
freq.     693.07  E(vib)   ...       0.07 
freq.     765.72  E(vib)   ...       0.06 
freq.     768.23  E(vib)   ...       0.06 
freq.     775.00  E(vib)   ...       0.05 
freq.     776.15  E(vib)   ...       0.05 
freq.     783.12  E(vib)   ...       0.05 
freq.     807.10  E(vib)   ...       0.05 
freq.     807.52  E(vib)   ...       0.05 
freq.     899.64  E(vib)   ...       0.03 
freq.     911.42  E(vib)   ...       0.03 
freq.     939.27  E(vib)   ...       0.03 
freq.     939.49  E(vib)   ...       0.03 
freq.     944.41  E(vib)   ...       0.03 
freq.     945.68  E(vib)   ...       0.03 
freq.     970.64  E(vib)   ...       0.03 
freq.     980.20  E(vib)   ...       0.02 
freq.    1008.46  E(vib)   ...       0.02 
freq.    1008.76  E(vib)   ...       0.02 
freq.    1040.23  E(vib)   ...       0.02 
freq.    1040.26  E(vib)   ...       0.02 
freq.    1056.06  E(vib)   ...       0.02 
freq.    1056.17  E(vib)   ...       0.02 
freq.    1059.71  E(vib)   ...       0.02 
freq.    1059.80  E(vib)   ...       0.02 
freq.    1063.50  E(vib)   ...       0.02 
freq.    1063.94  E(vib)   ...       0.02 
freq.    1080.75  E(vib)   ...       0.02 
freq.    1093.18  E(vib)   ...       0.02 
freq.    1110.18  E(vib)   ...       0.02 
freq.    1120.21  E(vib)   ...       0.01 
freq.    1146.33  E(vib)   ...       0.01 
freq.    1174.85  E(vib)   ...       0.01 
freq.    1174.86  E(vib)   ...       0.01 
freq.    1246.62  E(vib)   ...       0.01 
freq.    1262.61  E(vib)   ...       0.01 
freq.    1281.09  E(vib)   ...       0.01 
freq.    1281.34  E(vib)   ...       0.01 
freq.    1299.64  E(vib)   ...       0.01 
freq.    1307.66  E(vib)   ...       0.01 
freq.    1332.46  E(vib)   ...       0.01 
freq.    1332.92  E(vib)   ...       0.01 
freq.    1382.29  E(vib)   ...       0.01 
freq.    1394.78  E(vib)   ...       0.00 
freq.    1394.96  E(vib)   ...       0.00 
freq.    1401.83  E(vib)   ...       0.00 
freq.    1406.59  E(vib)   ...       0.00 
freq.    1425.17  E(vib)   ...       0.00 
freq.    1440.14  E(vib)   ...       0.00 
freq.    1442.16  E(vib)   ...       0.00 
freq.    1446.73  E(vib)   ...       0.00 
freq.    1447.53  E(vib)   ...       0.00 
freq.    1448.23  E(vib)   ...       0.00 
freq.    1448.68  E(vib)   ...       0.00 
freq.    1450.55  E(vib)   ...       0.00 
freq.    1451.08  E(vib)   ...       0.00 
freq.    1474.33  E(vib)   ...       0.00 
freq.    1527.17  E(vib)   ...       0.00 
freq.    1535.71  E(vib)   ...       0.00 
freq.    1536.13  E(vib)   ...       0.00 
freq.    1550.30  E(vib)   ...       0.00 
freq.    1644.95  E(vib)   ...       0.00 
freq.    1645.77  E(vib)   ...       0.00 
freq.    1694.98  E(vib)   ...       0.00 
freq.    1695.62  E(vib)   ...       0.00 
freq.    1707.58  E(vib)   ...       0.00 
freq.    1708.40  E(vib)   ...       0.00 
freq.    3067.45  E(vib)   ...       0.00 
freq.    3067.98  E(vib)   ...       0.00 
freq.    3068.39  E(vib)   ...       0.00 
freq.    3069.35  E(vib)   ...       0.00 
freq.    3155.98  E(vib)   ...       0.00 
freq.    3156.05  E(vib)   ...       0.00 
freq.    3156.86  E(vib)   ...       0.00 
freq.    3157.74  E(vib)   ...       0.00 
freq.    3192.16  E(vib)   ...       0.00 
freq.    3192.23  E(vib)   ...       0.00 
freq.    3192.74  E(vib)   ...       0.00 
freq.    3192.98  E(vib)   ...       0.00 
freq.    3214.48  E(vib)   ...       0.00 
freq.    3214.49  E(vib)   ...       0.00 
freq.    3221.97  E(vib)   ...       0.00 
freq.    3221.98  E(vib)   ...       0.00 
freq.    3233.76  E(vib)   ...       0.00 
freq.    3233.78  E(vib)   ...       0.00 
freq.    3296.02  E(vib)   ...       0.00 
freq.    3300.96  E(vib)   ...       0.00 
freq.    3319.31  E(vib)   ...       0.00 

------------
INNER ENERGY
------------

The inner energy is: U= E(el) + E(ZPE) + E(vib) + E(rot) + E(trans)
    E(el)   - is the total energy from the electronic structure calculation
              = E(kin-el) + E(nuc-el) + E(el-el) + E(nuc-nuc)
    E(ZPE)  - the the zero temperature vibrational energy from the frequency calculation
    E(vib)  - the the finite temperature correction to E(ZPE) due to population
              of excited vibrational states
    E(rot)  - is the rotational thermal energy
    E(trans)- is the translational thermal energy

Summary of contributions to the inner energy U:
Electronic energy                ...   -845.24579970 Eh
Zero point energy                ...      0.35858869 Eh     225.02 kcal/mol
Thermal vibrational correction   ...      0.01613756 Eh      10.13 kcal/mol
Thermal rotational correction    ...      0.00141627 Eh       0.89 kcal/mol
Thermal translational correction ...      0.00141627 Eh       0.89 kcal/mol
-----------------------------------------------------------------------
Total thermal energy                   -844.86824090 Eh


Summary of corrections to the electronic energy:
(perhaps to be used in another calculation)
Total thermal correction                  0.01897011 Eh      11.90 kcal/mol
Non-thermal (ZPE) correction              0.35858869 Eh     225.02 kcal/mol
-----------------------------------------------------------------------
Total correction                          0.37755880 Eh     236.92 kcal/mol


--------
ENTHALPY
--------

The enthalpy is H = U + kB*T
                kB is Boltzmann's constant
Total free energy                 ...   -844.86824090 Eh 
Thermal Enthalpy correction       ...      0.00094421 Eh       0.59 kcal/mol
-----------------------------------------------------------------------
Total Enthalpy                    ...   -844.86729669 Eh


Note: Only C1 symmetry has been detected, increase convergence thresholds 
      if your molecule has a higher symmetry. Symmetry factor of 1.0 is   
      used for the rotational entropy correction. 
 

Note: Rotational entropy computed according to Herzberg 
Infrared and Raman Spectra, Chapter V,1, Van Nostrand Reinhold, 1945 
Point Group:  C1, Symmetry Number:   1  
Rotational constants in cm-1:     0.023129     0.005954     0.005200 

Vibrational entropy computed according to the QRRHO of S. Grimme
Chem.Eur.J. 2012 18 9955


-------
ENTROPY
-------

The entropy contributions are T*S = T*(S(el)+S(vib)+S(rot)+S(trans))
     S(el)   - electronic entropy
     S(vib)  - vibrational entropy
     S(rot)  - rotational entropy
     S(trans)- translational entropy
The entropies will be listed as multiplied by the temperature to get
units of energy

Electronic entropy                ...      0.00000000 Eh      0.00 kcal/mol
Vibrational entropy               ...      0.02875720 Eh     18.05 kcal/mol
Rotational entropy                ...      0.01619069 Eh     10.16 kcal/mol
Translational entropy             ...      0.02031620 Eh     12.75 kcal/mol
-----------------------------------------------------------------------
Final entropy term                ...      0.06526409 Eh     40.95 kcal/mol

In case the symmetry of your molecule has not been determined correctly
or in case you have a reason to use a different symmetry number we print 
out the resulting rotational entropy values for sn=1,12 :
 --------------------------------------------------------
|  sn= 1 | S(rot)=       0.01619069 Eh     10.16 kcal/mol|
|  sn= 2 | S(rot)=       0.01553623 Eh      9.75 kcal/mol|
|  sn= 3 | S(rot)=       0.01515340 Eh      9.51 kcal/mol|
|  sn= 4 | S(rot)=       0.01488177 Eh      9.34 kcal/mol|
|  sn= 5 | S(rot)=       0.01467109 Eh      9.21 kcal/mol|
|  sn= 6 | S(rot)=       0.01449894 Eh      9.10 kcal/mol|
|  sn= 7 | S(rot)=       0.01435339 Eh      9.01 kcal/mol|
|  sn= 8 | S(rot)=       0.01422732 Eh      8.93 kcal/mol|
|  sn= 9 | S(rot)=       0.01411611 Eh      8.86 kcal/mol|
|  sn=10 | S(rot)=       0.01401663 Eh      8.80 kcal/mol|
|  sn=11 | S(rot)=       0.01392664 Eh      8.74 kcal/mol|
|  sn=12 | S(rot)=       0.01384448 Eh      8.69 kcal/mol|
 --------------------------------------------------------


-------------------
GIBBS FREE ENERGY
-------------------

The Gibbs free energy is G = H - T*S

Total enthalpy                    ...   -844.86729669 Eh 
Total entropy correction          ...     -0.06526409 Eh    -40.95 kcal/mol
-----------------------------------------------------------------------
Final Gibbs free energy         ...   -844.93256077 Eh

For completeness - the Gibbs free energy minus the electronic energy
G-E(el)                           ...      0.31323892 Eh    196.56 kcal/mol


Timings for individual modules:

Sum of individual times         ...    12917.968 sec (= 215.299 min)
GTO integral calculation        ...        4.050 sec (=   0.067 min)   0.0 %
SCF iterations                  ...     5232.596 sec (=  87.210 min)  40.5 %
SCF Gradient evaluation         ...     1272.889 sec (=  21.215 min)   9.9 %
Geometry relaxation             ...        0.608 sec (=   0.010 min)   0.0 %
Analytical frequency calculation...     6407.826 sec (= 106.797 min)  49.6 %
                             ****ORCA TERMINATED NORMALLY****
TOTAL RUN TIME: 0 days 3 hours 35 minutes 19 seconds 294 msec
