
                                 *****************
                                 * O   R   C   A *
                                 *****************

                                            #,                                       
                                            ###                                      
                                            ####                                     
                                            #####                                    
                                            ######                                   
                                           ########,                                 
                                     ,,################,,,,,                         
                               ,,#################################,,                 
                          ,,##########################################,,             
                       ,#########################################, ''#####,          
                    ,#############################################,,   '####,        
                  ,##################################################,,,,####,       
                ,###########''''           ''''###############################       
              ,#####''   ,,,,##########,,,,          '''####'''          '####       
            ,##' ,,,,###########################,,,                        '##       
           ' ,,###''''                  '''############,,,                           
         ,,##''                                '''############,,,,        ,,,,,,###''
      ,#''                                            '''#######################'''  
     '                                                          ''''####''''         
             ,#######,   #######,   ,#######,      ##                                
            ,#'     '#,  ##    ##  ,#'     '#,    #''#        ######   ,####,        
            ##       ##  ##   ,#'  ##            #'  '#       #        #'  '#        
            ##       ##  #######   ##           ,######,      #####,   #    #        
            '#,     ,#'  ##    ##  '#,     ,#' ,#      #,         ##   #,  ,#        
             '#######'   ##     ##  '#######'  #'      '#     #####' # '####'        



                  #######################################################
                  #                        -***-                        #
                  #          Department of theory and spectroscopy      #
                  #    Directorship and core code : Frank Neese         #
                  #        Max Planck Institute fuer Kohlenforschung    #
                  #                Kaiser Wilhelm Platz 1               #
                  #                 D-45470 Muelheim/Ruhr               #
                  #                      Germany                        #
                  #                                                     #
                  #                  All rights reserved                #
                  #                        -***-                        #
                  #######################################################


                         Program Version 5.0.4 -  RELEASE  -


 With contributions from (in alphabetic order):
   Daniel Aravena         : Magnetic Suceptibility
   Michael Atanasov       : Ab Initio Ligand Field Theory (pilot matlab implementation)
   Alexander A. Auer      : GIAO ZORA, VPT2 properties, NMR spectrum
   Ute Becker             : Parallelization
   Giovanni Bistoni       : ED, misc. LED, open-shell LED, HFLD
   Martin Brehm           : Molecular dynamics
   Dmytro Bykov           : SCF Hessian
   Vijay G. Chilkuri      : MRCI spin determinant printing, contributions to CSF-ICE
   Dipayan Datta          : RHF DLPNO-CCSD density
   Achintya Kumar Dutta   : EOM-CC, STEOM-CC
   Dmitry Ganyushin       : Spin-Orbit,Spin-Spin,Magnetic field MRCI
   Miquel Garcia          : C-PCM and meta-GGA Hessian, CC/C-PCM, Gaussian charge scheme
   Yang Guo               : DLPNO-NEVPT2, F12-NEVPT2, CIM, IAO-localization
   Andreas Hansen         : Spin unrestricted coupled pair/coupled cluster methods
   Benjamin Helmich-Paris : MC-RPA, TRAH-SCF, COSX integrals
   Lee Huntington         : MR-EOM, pCC
   Robert Izsak           : Overlap fitted RIJCOSX, COSX-SCS-MP3, EOM
   Marcus Kettner         : VPT2
   Christian Kollmar      : KDIIS, OOCD, Brueckner-CCSD(T), CCSD density, CASPT2, CASPT2-K
   Simone Kossmann        : Meta GGA functionals, TD-DFT gradient, OOMP2, MP2 Hessian
   Martin Krupicka        : Initial AUTO-CI
   Lucas Lang             : DCDCAS
   Marvin Lechner         : AUTO-CI (C++ implementation), FIC-MRCC
   Dagmar Lenk            : GEPOL surface, SMD
   Dimitrios Liakos       : Extrapolation schemes; Compound Job, initial MDCI parallelization
   Dimitrios Manganas     : Further ROCIS development; embedding schemes
   Dimitrios Pantazis     : SARC Basis sets
   Anastasios Papadopoulos: AUTO-CI, single reference methods and gradients
   Taras Petrenko         : DFT Hessian,TD-DFT gradient, ASA, ECA, R-Raman, ABS, FL, XAS/XES, NRVS
   Peter Pinski           : DLPNO-MP2, DLPNO-MP2 Gradient
   Christoph Reimann      : Effective Core Potentials
   Marius Retegan         : Local ZFS, SOC
   Christoph Riplinger    : Optimizer, TS searches, QM/MM, DLPNO-CCSD(T), (RO)-DLPNO pert. Triples
   Tobias Risthaus        : Range-separated hybrids, TD-DFT gradient, RPA, STAB
   Michael Roemelt        : Original ROCIS implementation
   Masaaki Saitow         : Open-shell DLPNO-CCSD energy and density
   Barbara Sandhoefer     : DKH picture change effects
   Avijit Sen             : IP-ROCIS
   Kantharuban Sivalingam : CASSCF convergence, NEVPT2, FIC-MRCI
   Bernardo de Souza      : ESD, SOC TD-DFT
   Georgi Stoychev        : AutoAux, RI-MP2 NMR, DLPNO-MP2 response
   Willem Van den Heuvel  : Paramagnetic NMR
   Boris Wezisla          : Elementary symmetry handling
   Frank Wennmohs         : Technical directorship


 We gratefully acknowledge several colleagues who have allowed us to
 interface, adapt or use parts of their codes:
   Stefan Grimme, W. Hujo, H. Kruse, P. Pracht,  : VdW corrections, initial TS optimization,
                  C. Bannwarth, S. Ehlert          DFT functionals, gCP, sTDA/sTD-DF
   Ed Valeev, F. Pavosevic, A. Kumar             : LibInt (2-el integral package), F12 methods
   Garnet Chan, S. Sharma, J. Yang, R. Olivares  : DMRG
   Ulf Ekstrom                                   : XCFun DFT Library
   Mihaly Kallay                                 : mrcc  (arbitrary order and MRCC methods)
   Jiri Pittner, Ondrej Demel                    : Mk-CCSD
   Frank Weinhold                                : gennbo (NPA and NBO analysis)
   Christopher J. Cramer and Donald G. Truhlar   : smd solvation model
   Lars Goerigk                                  : TD-DFT with DH, B97 family of functionals
   V. Asgeirsson, H. Jonsson                     : NEB implementation
   FAccTs GmbH                                   : IRC, NEB, NEB-TS, DLPNO-Multilevel, CI-OPT
                                                   MM, QMMM, 2- and 3-layer-ONIOM, Crystal-QMMM,
                                                   LR-CPCM, SF, NACMEs, symmetry and pop. for TD-DFT,
                                                   nearIR, NL-DFT gradient (VV10), updates on ESD,
                                                   ML-optimized integration grids
   S Lehtola, MJT Oliveira, MAL Marques          : LibXC Library
   Liviu Ungur et al                             : ANISO software


 Your calculation uses the libint2 library for the computation of 2-el integrals
 For citations please refer to: http://libint.valeyev.net

 Your ORCA version has been built with support for libXC version: 5.1.0
 For citations please refer to: https://tddft.org/programs/libxc/

 This ORCA versions uses:
   CBLAS   interface :  Fast vector & matrix operations
   LAPACKE interface :  Fast linear algebra routines
   SCALAPACK package :  Parallel linear algebra routines
   Shared memory     :  Shared parallel matrices
   BLAS/LAPACK       :  OpenBLAS 0.3.15  USE64BITINT DYNAMIC_ARCH NO_AFFINITY SkylakeX SINGLE_THREADED
        Core in use  :  SkylakeX
   Copyright (c) 2011-2014, The OpenBLAS Project




***************************************
The coordinates will be read from file: 9_deprot_aq_1.xyz
***************************************


Your calculation utilizes the atom-pairwise dispersion correction
based on tight binding partial charges (D4)
Cite in your paper:
E.Caldeweyher, C.Bannwarth, S.Grimme, J.Chem.Phys., (2017), 147, 034112.
E.Caldeweyher, S.Ehlert, A.Hansen, H.Neugebauer, S.Grimme, J.Chem.Phys., (2018), in progress.
   

XCFun DFT library Copyright 2009-2010 Ulf Ekstrom and contributors.
See http://admol.org/xcfun for more information.
This is free software; see the source code for copying conditions.
There is ABSOLUTELY NO WARRANTY; not even for MERCHANTABILITY or FITNESS FOR A PARTICULAR PURPOSE.
For details see the documentation.
Scientific users of this library should cite U. Ekstrom, L. Visscher, R. Bast, A. J. Thorvaldsen and K. Ruud;
J.Chem.Theor.Comp. 2010, DOI: 10.1021/ct100117s
XCFun Version 0.99 

================================================================================

----- Orbital basis set information -----
Your calculation utilizes the basis: def2-SVP
   F. Weigend and R. Ahlrichs, Phys. Chem. Chem. Phys. 7, 3297 (2005).

----- AuxJ basis set information -----
Your calculation utilizes the auxiliary basis: def2/J
   F. Weigend, Phys. Chem. Chem. Phys. 8, 1057 (2006).

================================================================================
                                        WARNINGS
                       Please study these warnings very carefully!
================================================================================


WARNING: Geometry Optimization
  ===> : Switching off AutoStart
         For restart on a previous wavefunction, please use MOREAD

INFO   : the flag for use of the SHARK integral package has been found!

================================================================================
                                       INPUT FILE
================================================================================
NAME = 9_deprot_aq_1.inp
|  1> # ORCA 5.0.4 - /users/bwb16179/postgrad/2024_03/DFT_Crest_Conformers/Opt/deprot/9_deprot_aq_1.inp # write input file
|  2> # Basic Mode
|  3> #
|  4> ! Opt Freq wB97X Def2-SVP D4 SlowConv TightSCF Defgrid2 Def2/J RIJCOSX CPCM(Water)
|  5> 
|  6> 
|  7> 
|  8> %maxcore 4500
|  9> 
| 10> %geom
| 11> Maxiter 150
| 12> END
| 13> 
| 14> * xyzfile 0 1 9_deprot_aq_1.xyz
| 15> 
| 16>                          ****END OF INPUT****
================================================================================

                       *****************************
                       * Geometry Optimization Run *
                       *****************************

Geometry optimization settings:
Update method            Update   .... BFGS
Choice of coordinates    CoordSys .... Z-matrix Internals
Initial Hessian          InHess   .... Almoef's Model

Convergence Tolerances:
Energy Change            TolE     ....  5.0000e-06 Eh
Max. Gradient            TolMAXG  ....  3.0000e-04 Eh/bohr
RMS Gradient             TolRMSG  ....  1.0000e-04 Eh/bohr
Max. Displacement        TolMAXD  ....  4.0000e-03 bohr
RMS Displacement         TolRMSD  ....  2.0000e-03 bohr
Strict Convergence                ....  False
------------------------------------------------------------------------------
                        ORCA OPTIMIZATION COORDINATE SETUP
------------------------------------------------------------------------------

The optimization will be done in new redundant internal coordinates
Making redundant internal coordinates   ...  (new redundants) done
Evaluating the initial hessian          ...  (Almloef) done
Evaluating the coordinates              ...  done
Calculating the B-matrix                .... done
Calculating the G-matrix                .... done
Diagonalizing the G-matrix              .... done
The first mode is                       ....   40
The number of degrees of freedom        ....   45

    -----------------------------------------------------------------
                    Redundant Internal Coordinates


    -----------------------------------------------------------------
         Definition                    Initial Value    Approx d2E/dq
    -----------------------------------------------------------------
      1. B(C   1,N   0)                  1.3343         0.686607   
      2. B(N   2,C   1)                  1.3343         0.686603   
      3. B(C   3,N   2)                  1.4640         0.426354   
      4. B(C   4,N   0)                  1.4640         0.426360   
      5. B(C   4,C   3)                  1.5283         0.375873   
      6. B(C   5,N   0)                  1.4286         0.485552   
      7. B(C   6,N   2)                  1.4286         0.485618   
      8. B(H   7,C   5)                  1.0960         0.352284   
      9. B(H   8,C   5)                  1.0874         0.363597   
     10. B(H   9,C   5)                  1.0960         0.352274   
     11. B(H  10,C   6)                  1.0960         0.352298   
     12. B(H  11,C   6)                  1.0874         0.363602   
     13. B(H  12,C   6)                  1.0960         0.352269   
     14. B(H  13,C   3)                  1.0961         0.352120   
     15. B(H  14,C   3)                  1.0961         0.352119   
     16. B(H  15,C   4)                  1.0961         0.352129   
     17. B(H  16,C   4)                  1.0961         0.352126   
     18. A(C   1,N   0,C   5)          125.3822         0.417646   
     19. A(C   4,N   0,C   5)          119.7545         0.384048   
     20. A(C   1,N   0,C   4)          114.8633         0.408117   
     21. A(N   0,C   1,N   2)          106.3251         0.444456   
     22. A(C   3,N   2,C   6)          119.7465         0.384056   
     23. A(C   1,N   2,C   3)          114.8631         0.408116   
     24. A(C   1,N   2,C   6)          125.3904         0.417656   
     25. A(C   4,C   3,H  13)          112.8824         0.323454   
     26. A(N   2,C   3,H  14)          110.3128         0.328252   
     27. A(H  13,C   3,H  14)          108.3676         0.288802   
     28. A(N   2,C   3,H  13)          110.3109         0.328252   
     29. A(C   4,C   3,H  14)          112.8824         0.323453   
     30. A(N   2,C   3,C   4)          101.9743         0.369745   
     31. A(C   3,C   4,H  15)          112.8831         0.323455   
     32. A(N   0,C   4,H  15)          110.3099         0.328254   
     33. A(N   0,C   4,C   3)          101.9743         0.369746   
     34. A(N   0,C   4,H  16)          110.3088         0.328254   
     35. A(H  15,C   4,H  16)          108.3694         0.288804   
     36. A(C   3,C   4,H  16)          112.8843         0.323454   
     37. A(H   8,C   5,H   9)          109.1601         0.290278   
     38. A(H   7,C   5,H   9)          108.2198         0.288843   
     39. A(N   0,C   5,H   9)          110.9231         0.335422   
     40. A(H   7,C   5,H   8)          109.1613         0.290279   
     41. A(N   0,C   5,H   8)          108.4272         0.337192   
     42. A(N   0,C   5,H   7)          110.9191         0.335423   
     43. A(H  11,C   6,H  12)          109.1572         0.290278   
     44. A(H  10,C   6,H  12)          108.2204         0.288844   
     45. A(N   2,C   6,H  12)          110.9245         0.335428   
     46. A(H  10,C   6,H  11)          109.1607         0.290282   
     47. A(N   2,C   6,H  11)          108.4296         0.337201   
     48. A(N   2,C   6,H  10)          110.9181         0.335433   
     49. D(N   2,C   1,N   0,C   5)    179.9835         0.035175   
     50. D(N   2,C   1,N   0,C   4)     -0.0031         0.035175   
     51. D(C   3,N   2,C   1,N   0)      0.0097         0.035175   
     52. D(C   6,N   2,C   1,N   0)    179.9615         0.035175   
     53. D(H  13,C   3,N   2,C   1)   -120.1669         0.015498   
     54. D(C   4,C   3,N   2,C   1)     -0.0118         0.015498   
     55. D(C   4,C   3,N   2,C   6)   -179.9665         0.015498   
     56. D(H  14,C   3,N   2,C   1)    120.1441         0.015498   
     57. D(H  13,C   3,N   2,C   6)     59.8784         0.015498   
     58. D(H  14,C   3,N   2,C   6)    -59.8106         0.015498   
     59. D(H  15,C   4,N   0,C   5)    -59.8359         0.015499   
     60. D(H  15,C   4,N   0,C   1)    120.1515         0.015499   
     61. D(H  16,C   4,N   0,C   1)   -120.1604         0.015499   
     62. D(H  16,C   4,C   3,H  14)      0.0048         0.011273   
     63. D(H  16,C   4,C   3,H  13)   -123.3192         0.011273   
     64. D(C   3,C   4,N   0,C   5)   -179.9914         0.015499   
     65. D(C   3,C   4,N   0,C   1)     -0.0040         0.015499   
     66. D(H  15,C   4,C   3,H  13)      0.0093         0.011273   
     67. D(H  15,C   4,C   3,N   2)   -118.3276         0.011273   
     68. D(N   0,C   4,C   3,H  14)   -118.3306         0.011273   
     69. D(H  15,C   4,C   3,H  14)    123.3333         0.011273   
     70. D(H  16,C   4,C   3,N   2)    118.3439         0.011273   
     71. D(N   0,C   4,C   3,H  13)    118.3455         0.011273   
     72. D(N   0,C   4,C   3,N   2)      0.0085         0.011273   
     73. D(H  16,C   4,N   0,C   5)     59.8522         0.015499   
     74. D(H   9,C   5,N   0,C   1)   -119.8128         0.020179   
     75. D(H   8,C   5,N   0,C   4)   -179.9753         0.020179   
     76. D(H   8,C   5,N   0,C   1)      0.0387         0.020179   
     77. D(H   7,C   5,N   0,C   4)    -60.1247         0.020179   
     78. D(H   9,C   5,N   0,C   4)     60.1733         0.020179   
     79. D(H   7,C   5,N   0,C   1)    119.8892         0.020179   
     80. D(H  12,C   6,N   2,C   3)     60.2103         0.020185   
     81. D(H  12,C   6,N   2,C   1)   -119.7393         0.020185   
     82. D(H  11,C   6,N   2,C   3)   -179.9395         0.020185   
     83. D(H  11,C   6,N   2,C   1)      0.1109         0.020185   
     84. D(H  10,C   6,N   2,C   3)    -60.0888         0.020185   
     85. D(H  10,C   6,N   2,C   1)    119.9616         0.020185   
    -----------------------------------------------------------------

Number of atoms                         .... 17
Number of degrees of freedom            .... 85

         *************************************************************
         *                GEOMETRY OPTIMIZATION CYCLE   1            *
         *************************************************************
---------------------------------
CARTESIAN COORDINATES (ANGSTROEM)
---------------------------------
  N     -1.067923   -0.190165    0.000092
  C     -0.000050   -0.990203   -0.000104
  N      1.067898   -0.190264   -0.000320
  C      0.764216    1.241921   -0.000056
  C     -0.764114    1.241989    0.000086
  C     -2.428338   -0.626362    0.000025
  C      2.428300   -0.626380    0.000207
  H     -2.956712   -0.260242    0.887682
  H     -2.440665   -1.713661    0.000486
  H     -2.956455   -0.261017   -0.888114
  H      2.957181   -0.259458   -0.886804
  H      2.440728   -1.713674   -0.001188
  H      2.955869   -0.261807    0.888992
  H      1.190363    1.721376   -0.888851
  H      1.190529    1.721118    0.888801
  H     -1.190394    1.721331   -0.888697
  H     -1.190251    1.721288    0.888964

----------------------------
CARTESIAN COORDINATES (A.U.)
----------------------------
  NO LB      ZA    FRAG     MASS         X           Y           Z
   0 N     7.0000    0    14.007   -2.018081   -0.359360    0.000174
   1 C     6.0000    0    12.011   -0.000095   -1.871212   -0.000196
   2 N     7.0000    0    14.007    2.018034   -0.359546   -0.000605
   3 C     6.0000    0    12.011    1.444159    2.346890   -0.000105
   4 C     6.0000    0    12.011   -1.443966    2.347018    0.000163
   5 C     6.0000    0    12.011   -4.588894   -1.183653    0.000048
   6 C     6.0000    0    12.011    4.588822   -1.183687    0.000391
   7 H     1.0000    0     1.008   -5.587376   -0.491785    1.677477
   8 H     1.0000    0     1.008   -4.612189   -3.238350    0.000919
   9 H     1.0000    0     1.008   -5.586890   -0.493252   -1.678291
  10 H     1.0000    0     1.008    5.588262   -0.490304   -1.675816
  11 H     1.0000    0     1.008    4.612308   -3.238375   -0.002246
  12 H     1.0000    0     1.008    5.585784   -0.494743    1.679952
  13 H     1.0000    0     1.008    2.249460    3.252929   -1.679685
  14 H     1.0000    0     1.008    2.249773    3.252441    1.679590
  15 H     1.0000    0     1.008   -2.249519    3.252843   -1.679395
  16 H     1.0000    0     1.008   -2.249249    3.252762    1.679899

--------------------------------
INTERNAL COORDINATES (ANGSTROEM)
--------------------------------
 N      0   0   0     0.000000000000     0.00000000     0.00000000
 C      1   0   0     1.334320696312     0.00000000     0.00000000
 N      2   1   0     1.334322136004   106.32507048     0.00000000
 C      3   2   1     1.464027059539   114.86308033     0.00000000
 C      1   2   3     1.464023139533   114.86330027     0.00000000
 C      1   2   3     1.428635198718   125.38218687   179.98354477
 C      3   2   1     1.428598198521   125.39043766   179.96145723
 H      6   1   2     1.095973589774   110.91908546   119.88924671
 H      6   1   2     1.087369013367   108.42722470     0.03867321
 H      6   1   2     1.095981110681   110.92309388   240.18722188
 H      7   3   2     1.095962810160   110.91807795   119.96159386
 H      7   3   2     1.087365634871   108.42961333     0.11093421
 H      7   3   2     1.095984961495   110.92451127   240.26066094
 H      4   3   2     1.096099881956   110.31086841   239.83314372
 H      4   3   2     1.096101148540   110.31275772   120.14412095
 H      5   1   2     1.096093102417   110.30986758   120.15154535
 H      5   1   2     1.096095249448   110.30875353   239.83963653

---------------------------
INTERNAL COORDINATES (A.U.)
---------------------------
 N      0   0   0     0.000000000000     0.00000000     0.00000000
 C      1   0   0     2.521500690854     0.00000000     0.00000000
 N      2   1   0     2.521503411477   106.32507048     0.00000000
 C      3   2   1     2.766610195179   114.86308033     0.00000000
 C      1   2   3     2.766602787441   114.86330027     0.00000000
 C      1   2   3     2.699729270857   125.38218687   179.98354477
 C      3   2   1     2.699659350617   125.39043766   179.96145723
 H      6   1   2     2.071089934684   110.91908546   119.88924671
 H      6   1   2     2.054829641776   108.42722470     0.03867321
 H      6   1   2     2.071104147138   110.92309388   240.18722188
 H      7   3   2     2.071069564166   110.91807795   119.96159386
 H      7   3   2     2.054823257343   108.42961333     0.11093421
 H      7   3   2     2.071111424122   110.92451127   240.26066094
 H      4   3   2     2.071328592320   110.31086841   239.83314372
 H      4   3   2     2.071330985818   110.31275772   120.14412095
 H      5   1   2     2.071315780848   110.30986758   120.15154535
 H      5   1   2     2.071319838149   110.30875353   239.83963653

---------------------
BASIS SET INFORMATION
---------------------
There are 3 groups of distinct atoms

 Group   1 Type N   : 7s4p1d contracted to 3s2p1d pattern {511/31/1}
 Group   2 Type C   : 7s4p1d contracted to 3s2p1d pattern {511/31/1}
 Group   3 Type H   : 4s1p contracted to 2s1p pattern {31/1}

Atom   0N    basis set group =>   1
Atom   1C    basis set group =>   2
Atom   2N    basis set group =>   1
Atom   3C    basis set group =>   2
Atom   4C    basis set group =>   2
Atom   5C    basis set group =>   2
Atom   6C    basis set group =>   2
Atom   7H    basis set group =>   3
Atom   8H    basis set group =>   3
Atom   9H    basis set group =>   3
Atom  10H    basis set group =>   3
Atom  11H    basis set group =>   3
Atom  12H    basis set group =>   3
Atom  13H    basis set group =>   3
Atom  14H    basis set group =>   3
Atom  15H    basis set group =>   3
Atom  16H    basis set group =>   3
---------------------------------
AUXILIARY/J BASIS SET INFORMATION
---------------------------------
There are 3 groups of distinct atoms

 Group   1 Type N   : 12s5p4d2f1g contracted to 6s4p3d1f1g pattern {711111/2111/211/2/1}
 Group   2 Type C   : 12s5p4d2f1g contracted to 6s4p3d1f1g pattern {711111/2111/211/2/1}
 Group   3 Type H   : 5s2p1d contracted to 3s1p1d pattern {311/2/1}

Atom   0N    basis set group =>   1
Atom   1C    basis set group =>   2
Atom   2N    basis set group =>   1
Atom   3C    basis set group =>   2
Atom   4C    basis set group =>   2
Atom   5C    basis set group =>   2
Atom   6C    basis set group =>   2
Atom   7H    basis set group =>   3
Atom   8H    basis set group =>   3
Atom   9H    basis set group =>   3
Atom  10H    basis set group =>   3
Atom  11H    basis set group =>   3
Atom  12H    basis set group =>   3
Atom  13H    basis set group =>   3
Atom  14H    basis set group =>   3
Atom  15H    basis set group =>   3
Atom  16H    basis set group =>   3
------------------------------------------------------------------------------
                           ORCA GTO INTEGRAL CALCULATION
                           -- RI-GTO INTEGRALS CHOSEN --
------------------------------------------------------------------------------
------------------------------------------------------------------------------
                   ___                                                        
                  /   \      - P O W E R E D   B Y -                         
                 /     \                                                     
                 |  |  |   _    _      __       _____    __    __             
                 |  |  |  | |  | |    /  \     |  _  \  |  |  /  |          
                  \  \/   | |  | |   /    \    | | | |  |  | /  /          
                 / \  \   | |__| |  /  /\  \   | |_| |  |  |/  /          
                |  |  |   |  __  | /  /__\  \  |    /   |      \           
                |  |  |   | |  | | |   __   |  |    \   |  |\   \          
                \     /   | |  | | |  |  |  |  | |\  \  |  | \   \       
                 \___/    |_|  |_| |__|  |__|  |_| \__\ |__|  \__/        
                                                                              
                      - O R C A' S   B I G   F R I E N D -                    
                                      &                                       
                       - I N T E G R A L  F E E D E R -                       
                                                                              
 v1 FN, 2020, v2 2021                                                         
------------------------------------------------------------------------------


Reading SHARK input file 9_deprot_aq_1.SHARKINP.tmp ... ok
----------------------
SHARK INTEGRAL PACKAGE
----------------------

Number of atoms                             ...     17
Number of basis functions                   ...    148
Number of shells                            ...     72
Maximum angular momentum                    ...      2
Integral batch strategy                     ... SHARK/LIBINT Hybrid
RI-J (if used) integral strategy            ... SPLIT-RIJ (Revised 2003 algorithm where possible)
Printlevel                                  ...      1
Contraction scheme used                     ... SEGMENTED contraction
Coulomb Range Separation                    ... NOT USED
Exchange Range Separation                   ... Long Range
   Mu parameter                             ...  0.300000
   Scaling (regular/separated)              ...  0.157706  0.842294
Finite Nucleus Model                        ... NOT USED
Auxiliary Coulomb fitting basis             ... AVAILABLE
   # of basis functions in Aux-J            ...    453
   # of shells in Aux-J                     ...    155
   Maximum angular momentum in Aux-J        ...      4
Auxiliary J/K fitting basis                 ... NOT available
Auxiliary Correlation fitting basis         ... NOT available
Auxiliary 'external' fitting basis          ... NOT available
Integral threshold                          ...     2.500000e-11
Primitive cut-off                           ...     2.500000e-12
Primitive pair pre-selection threshold      ...     2.500000e-12

Calculating pre-screening integrals         ... done (  0.0 sec) Dimension = 72
Organizing shell pair data                  ... done (  0.0 sec)
Shell pair information
Total number of shell pairs                 ...      2628
Shell pairs after pre-screening             ...      2509
Total number of primitive shell pairs       ...      9166
Primitive shell pairs kept                  ...      6638
          la=0 lb=0:    829 shell pairs
          la=1 lb=0:    938 shell pairs
          la=1 lb=1:    279 shell pairs
          la=2 lb=0:    273 shell pairs
          la=2 lb=1:    162 shell pairs
          la=2 lb=2:     28 shell pairs

Calculating one electron integrals          ... done (  0.0 sec)
Calculating RI/J V-Matrix + Cholesky decomp.... done (  0.0 sec)
Calculating Nuclear repulsion               ... done (  0.0 sec) ENN=    314.998336575269 Eh

SHARK setup successfully completed in   0.2 seconds

Maximum memory used throughout the entire GTOINT-calculation: 18.7 MB
-------------------------------------------------------------------------------
                                 ORCA SCF
-------------------------------------------------------------------------------

------------
SCF SETTINGS
------------
Hamiltonian:
 Density Functional     Method          .... DFT(GTOs)
 Exchange Functional    Exchange        .... WB97X
 Correlation Functional Correlation     .... WB97X
 Gradients option       PostSCFGGA      .... off
 Hybrid DFT is turned on
   Fraction HF Exchange ScalHFX         ....  0.157706
   Scaling of DF-GGA-X  ScalDFX         ....  0.000000
   Scaling of DF-GGA-C  ScalDFC         ....  1.000000
   Scaling of DF-LDA-C  ScalLDAC        ....  1.000000
   Perturbative correction              ....  0.000000
   Density functional embedding theory  .... OFF
 Long-range corrected/Screened/Range-Separated Hybrid DFT is turned on
   Amount of maximum screened exact exchange              ....  0.842294
   Range separation parameter mu (erf(mu*r12)/r12)        ....  0.300000
 RI-approximation to the Coulomb term is turned on
   Number of AuxJ basis functions       .... 453
   RIJ-COSX (HFX calculated with COS-X)).... on


General Settings:
 Integral files         IntName         .... 9_deprot_aq_1
 Hartree-Fock type      HFTyp           .... RHF
 Total Charge           Charge          ....    0
 Multiplicity           Mult            ....    1
 Number of Electrons    NEL             ....   54
 Basis Dimension        Dim             ....  148
 Nuclear Repulsion      ENuc            ....    314.9983365753 Eh

Convergence Acceleration:
 DIIS                   CNVDIIS         .... on
   Start iteration      DIISMaxIt       ....     0
   Startup error        DIISStart       ....  0.200000
   # of expansion vecs  DIISMaxEq       ....     5
   Bias factor          DIISBfac        ....   1.050
   Max. coefficient     DIISMaxC        ....  10.000
 Trust-Rad. Augm. Hess. CNVTRAH         .... auto
   Auto Start mean grad. ratio tolernc. ....  1.125000
   Auto Start start iteration           ....    20
   Auto Start num. interpolation iter.  ....    10
   Max. Number of Micro iterations      ....    16
   Max. Number of Macro iterations      .... Maxiter - #DIIS iter
   Number of Davidson start vectors     ....     2
   Converg. threshold I  (grad. norm)   ....   1.000e-05
   Converg. threshold II (energy diff.) ....   1.000e-08
   Grad. Scal. Fac. for Micro threshold ....   0.100
   Minimum threshold for Micro iter.    ....   0.010
   NR start threshold (gradient norm)   ....   0.001
   Initial trust radius                 ....   0.400
   Minimum AH scaling param. (alpha)    ....   1.000
   Maximum AH scaling param. (alpha)    .... 1000.000
   Orbital update algorithm             .... Taylor
   White noise on init. David. guess    .... on
   Maximum white noise                  ....   0.010
   Quad. conv. algorithm                .... NR
 SOSCF                  CNVSOSCF        .... on
   Start iteration      SOSCFMaxIt      ....   150
   Startup grad/error   SOSCFStart      ....  0.001000
 Level Shifting         CNVShift        .... on
   Level shift para.    LevelShift      ....    0.2500
   Turn off err/grad.   ShiftErr        ....    0.0000
 Zerner damping         CNVZerner       .... off
 Static damping         CNVDamp         .... on
   Fraction old density DampFac         ....    0.8500
   Max. Damping (<1)    DampMax         ....    0.9800
   Min. Damping (>=0)   DampMin         ....    0.0000
   Turn off err/grad.   DampErr         ....    0.0300
 Fernandez-Rico         CNVRico         .... off

SCF Procedure:
 Maximum # iterations   MaxIter         ....   125
 SCF integral mode      SCFMode         .... Direct
   Integral package                     .... SHARK and LIBINT hybrid scheme
 Reset frequency        DirectResetFreq ....    20
 Integral Threshold     Thresh          ....  2.500e-11 Eh
 Primitive CutOff       TCut            ....  2.500e-12 Eh

Convergence Tolerance:
 Convergence Check Mode ConvCheckMode   .... Total+1el-Energy
 Convergence forced     ConvForced      .... 0
 Energy Change          TolE            ....  1.000e-08 Eh
 1-El. energy change                    ....  1.000e-05 Eh
 Orbital Gradient       TolG            ....  1.000e-05
 Orbital Rotation angle TolX            ....  1.000e-05
 DIIS Error             TolErr          ....  5.000e-07


Diagonalization of the overlap matrix:
Smallest eigenvalue                        ... 1.576e-03
Time for diagonalization                   ...    0.004 sec
Threshold for overlap eigenvalues          ... 1.000e-08
Number of eigenvalues below threshold      ... 0
Time for construction of square roots      ...    0.002 sec
Total time needed                          ...    0.006 sec

Time for model grid setup =    0.220 sec

------------------------------
INITIAL GUESS: MODEL POTENTIAL
------------------------------
Loading Hartree-Fock densities                     ... done
Calculating cut-offs                               ... done
Initializing the effective Hamiltonian             ... done
Setting up the integral package (SHARK)            ... done
Starting the Coulomb interaction                   ... done (   0.2 sec)
Reading the grid                                   ... done
Mapping shells                                     ... done
Starting the XC term evaluation                    ... done (   0.3 sec)
  promolecular density results
     # of electrons  =     53.997434459
     EX              =    -41.633781471
     EC              =     -1.786924891
     EX+EC           =    -43.420706362
Transforming the Hamiltonian                       ... done (   0.0 sec)
Diagonalizing the Hamiltonian                      ... done (   0.0 sec)
Back transforming the eigenvectors                 ... done (   0.0 sec)
Now organizing SCF variables                       ... done
                      ------------------
                      INITIAL GUESS DONE (   0.7 sec)
                      ------------------
-------------------
DFT GRID GENERATION
-------------------

General Integration Accuracy     IntAcc      ... 4.388
Radial Grid Type                 RadialGrid  ... OptM3 with GC (2021)
Angular Grid (max. ang.)         AngularGrid ... 4 (Lebedev-302)
Angular grid pruning method      GridPruning ... 4 (adaptive)
Weight generation scheme         WeightScheme... Becke
Basis function cutoff            BFCut       ... 1.0000e-11
Integration weight cutoff        WCut        ... 1.0000e-14
Angular grids for H and He will be reduced by one unit
Partially contracted basis set               ... off
Rotationally invariant grid construction     ... off

Total number of grid points                  ...    74250
Total number of batches                      ...     1168
Average number of points per batch           ...       63
Average number of grid points per atom       ...     4368
Time for grid setup =    0.898 sec

--------------------
COSX GRID GENERATION
--------------------

GRIDX 1
-------
General Integration Accuracy     IntAcc      ... 3.816
Radial Grid Type                 RadialGrid  ... OptM3 with GC (2021)
Angular Grid (max. ang.)         AngularGrid ... 1 (Lebedev-50)
Angular grid pruning method      GridPruning ... 4 (adaptive)
Weight generation scheme         WeightScheme... Becke
Basis function cutoff            BFCut       ... 1.0000e-11
Integration weight cutoff        WCut        ... 1.0000e-14
Angular grids for H and He will be reduced by one unit
Partially contracted basis set               ... on
Rotationally invariant grid construction     ... off

Total number of grid points                  ...     9523
Total number of batches                      ...      160
Average number of points per batch           ...       59
Average number of grid points per atom       ...      560
UseSFitting                                  ... on

GRIDX 2
-------
General Integration Accuracy     IntAcc      ... 4.020
Radial Grid Type                 RadialGrid  ... OptM3 with GC (2021)
Angular Grid (max. ang.)         AngularGrid ... 2 (Lebedev-110)
Angular grid pruning method      GridPruning ... 4 (adaptive)
Weight generation scheme         WeightScheme... Becke
Basis function cutoff            BFCut       ... 1.0000e-11
Integration weight cutoff        WCut        ... 1.0000e-14
Angular grids for H and He will be reduced by one unit
Partially contracted basis set               ... on
Rotationally invariant grid construction     ... off

Total number of grid points                  ...    20180
Total number of batches                      ...      325
Average number of points per batch           ...       62
Average number of grid points per atom       ...     1187
UseSFitting                                  ... on

GRIDX 3
-------
General Integration Accuracy     IntAcc      ... 4.338
Radial Grid Type                 RadialGrid  ... OptM3 with GC (2021)
Angular Grid (max. ang.)         AngularGrid ... 3 (Lebedev-194)
Angular grid pruning method      GridPruning ... 4 (adaptive)
Weight generation scheme         WeightScheme... Becke
Basis function cutoff            BFCut       ... 1.0000e-11
Integration weight cutoff        WCut        ... 1.0000e-14
Angular grids for H and He will be reduced by one unit
Partially contracted basis set               ... on
Rotationally invariant grid construction     ... off

Total number of grid points                  ...    44145
Total number of batches                      ...      699
Average number of points per batch           ...       63
Average number of grid points per atom       ...     2597
UseSFitting                                  ... on

Time for X-Grid setup             =    1.156 sec


--------------------
CPCM SOLVATION MODEL
--------------------
CPCM parameters:
  Epsilon                                         ...      80.4000
  Refrac                                          ...       1.3300
  Rsolv                                           ...       1.3000
  Surface type                                    ... GAUSSIAN VDW
  Epsilon function type                           ...         CPCM
Radii:
 Radius for N  used is    3.5149 Bohr (=   1.8600 Ang.)
 Radius for C  used is    3.8550 Bohr (=   2.0400 Ang.)
 Radius for H  used is    2.4944 Bohr (=   1.3200 Ang.)
Calculating surface                               ...        done! (  0.0s)
GEPOL surface points                              ...          971
GEPOL Volume                                      ...     920.8230
GEPOL Surface-area                                ...     540.5045
Calculating surface distance matrix               ...        done! (  0.0s)
Performing Cholesky decomposition & store         ...        done! (  0.0s)
Overall time for CPCM initialization              ...                 0.0s
--------------
SCF ITERATIONS
--------------
ITER       Energy         Delta-E        Max-DP      RMS-DP      [F,P]     Damp
               ***  Starting incremental Fock matrix formation  ***
  0   -305.5792391552   0.000000000000 0.03497123  0.00086913  0.1281225 0.8500
  1   -305.6059905485  -0.026751393308 0.03702483  0.00083093  0.1047180 0.8500
                               ***Turning on DIIS***
  2   -305.6266243293  -0.020633780882 0.03252318  0.00068364  0.0818784 0.8500
  3   -305.6421647671  -0.015540437789 0.02637901  0.00048867  0.0633200 0.8500
  4   -305.6542713403  -0.012106573168 0.02162701  0.00037211  0.0509058 0.8500
  5   -305.6638742336  -0.009602893329 0.01809922  0.00030385  0.0422642 0.8500
  6   -305.6717118536  -0.007837619949 0.01534813  0.00025586  0.0356337 0.8500
  7   -305.6782140502  -0.006502196671 0.01317600  0.00022044  0.0302362 0.8500
  8   -305.6836614720  -0.005447421705 0.07596457  0.00126575  0.0256309 0.0000
  9   -305.7131228550  -0.029461383083 0.00133496  0.00005190  0.0014110 0.0000
                      *** Initiating the SOSCF procedure ***
                           *** Shutting down DIIS ***
                      *** Re-Reading the Fockian *** 
                      *** Removing any level shift *** 
ITER      Energy       Delta-E        Grad      Rot      Max-DP    RMS-DP
 10   -305.71313671  -0.0000138574  0.000280  0.000280  0.000578  0.000025
               *** Restarting incremental Fock matrix formation ***
 11   -305.71317503  -0.0000383150  0.000273  0.000494  0.001025  0.000020
 12   -305.71317584  -0.0000008104  0.000066  0.000249  0.000342  0.000013
 13   -305.71317599  -0.0000001547  0.000032  0.000051  0.000141  0.000003
 14   -305.71317602  -0.0000000321  0.000003  0.000005  0.000016  0.000001
                  ***Gradient check signals convergence***
              ***Rediagonalizing the Fockian in SOSCF/NRSCF***

               *****************************************************
               *                     SUCCESS                       *
               *           SCF CONVERGED AFTER  15 CYCLES          *
               *****************************************************

Old exchange energy                            =    -13.845025044 Eh
New exchange energy                            =    -13.845017617 Eh
Exchange energy change after final integration =      0.000007427 Eh
Total energy after final integration           =   -305.713168598 Eh
Final COS-X integration done in                =    22.237 sec

----------------
TOTAL SCF ENERGY
----------------

Total Energy       :         -305.71316860 Eh           -8318.87824 eV

Components:
Nuclear Repulsion  :          314.99833658 Eh            8571.54051 eV
Electronic Energy  :         -620.71150517 Eh          -16890.41875 eV
One Electron Energy:        -1035.82527692 Eh          -28186.23875 eV
Two Electron Energy:          415.11377175 Eh           11295.82000 eV
Max COSX asymmetry :            0.00000306 Eh               0.00008 eV
CPCM Dielectric    :           -0.01390090 Eh              -0.37826 eV

Virial components:
Potential Energy   :         -608.06411898 Eh          -16546.26587 eV
Kinetic Energy     :          302.35095039 Eh            8227.38763 eV
Virial Ratio       :            2.01112025


DFT components:
N(Alpha)           :       27.000030577749 electrons
N(Beta)            :       27.000030577749 electrons
N(Total)           :       54.000061155497 electrons
E(XC)              :      -30.778033581077 Eh       
DFET-embed. en.    :        0.000000000000 Eh       
CPCM Solvation Model Properties:
Surface-charge          :           -0.02155104
Charge-correction       :           -0.00053075 Eh              -0.01444 eV
Free-energy (cav+disp)  :  This term is not implemented in the current solvation scheme

---------------
SCF CONVERGENCE
---------------

  Last Energy change         ...   -9.5025e-10  Tolerance :   1.0000e-08
  Last MAX-Density change    ...    3.5527e-15  Tolerance :   1.0000e-07
  Last RMS-Density change    ...    5.4541e-17  Tolerance :   5.0000e-09
  Last Orbital Gradient      ...    1.6196e-06  Tolerance :   1.0000e-05
  Last Orbital Rotation      ...    2.1127e-06  Tolerance :   1.0000e-05

             **** THE GBW FILE WAS UPDATED (9_deprot_aq_1.gbw) ****
             **** DENSITY 9_deprot_aq_1.scfp WAS UPDATED ****
             **** ENERGY FILE WAS UPDATED (9_deprot_aq_1.en.tmp) ****
             **** THE GBW FILE WAS UPDATED (9_deprot_aq_1.gbw) ****
             **** DENSITY 9_deprot_aq_1.scfp WAS UPDATED ****
----------------
ORBITAL ENERGIES
----------------

  NO   OCC          E(Eh)            E(eV) 
   0   2.0000     -14.417137      -392.3102 
   1   2.0000     -14.417123      -392.3099 
   2   2.0000     -10.296991      -280.1954 
   3   2.0000     -10.296966      -280.1947 
   4   2.0000     -10.288979      -279.9773 
   5   2.0000     -10.288943      -279.9764 
   6   2.0000     -10.277968      -279.6777 
   7   2.0000      -1.119002       -30.4496 
   8   2.0000      -1.018857       -27.7245 
   9   2.0000      -0.884629       -24.0720 
  10   2.0000      -0.848425       -23.0868 
  11   2.0000      -0.789625       -21.4868 
  12   2.0000      -0.726442       -19.7675 
  13   2.0000      -0.660672       -17.9778 
  14   2.0000      -0.612905       -16.6780 
  15   2.0000      -0.609595       -16.5879 
  16   2.0000      -0.568859       -15.4794 
  17   2.0000      -0.550929       -14.9915 
  18   2.0000      -0.523449       -14.2438 
  19   2.0000      -0.518139       -14.0993 
  20   2.0000      -0.515994       -14.0409 
  21   2.0000      -0.473919       -12.8960 
  22   2.0000      -0.468390       -12.7455 
  23   2.0000      -0.463448       -12.6111 
  24   2.0000      -0.422266       -11.4904 
  25   2.0000      -0.316285        -8.6065 
  26   2.0000      -0.303286        -8.2528 
  27   0.0000       0.129965         3.5365 
  28   0.0000       0.150099         4.0844 
  29   0.0000       0.166152         4.5212 
  30   0.0000       0.203407         5.5350 
  31   0.0000       0.210667         5.7325 
  32   0.0000       0.215625         5.8675 
  33   0.0000       0.219950         5.9852 
  34   0.0000       0.238916         6.5012 
  35   0.0000       0.246192         6.6992 
  36   0.0000       0.249964         6.8019 
  37   0.0000       0.252789         6.8788 
  38   0.0000       0.281617         7.6632 
  39   0.0000       0.298696         8.1279 
  40   0.0000       0.308481         8.3942 
  41   0.0000       0.313522         8.5314 
  42   0.0000       0.378355        10.2956 
  43   0.0000       0.406330        11.0568 
  44   0.0000       0.466604        12.6969 
  45   0.0000       0.479151        13.0384 
  46   0.0000       0.507368        13.8062 
  47   0.0000       0.540214        14.7000 
  48   0.0000       0.546300        14.8656 
  49   0.0000       0.576912        15.6986 
  50   0.0000       0.578437        15.7401 
  51   0.0000       0.604548        16.4506 
  52   0.0000       0.606419        16.5015 
  53   0.0000       0.631983        17.1971 
  54   0.0000       0.692382        18.8407 
  55   0.0000       0.702499        19.1160 
  56   0.0000       0.716442        19.4954 
  57   0.0000       0.719295        19.5730 
  58   0.0000       0.748990        20.3810 
  59   0.0000       0.753119        20.4934 
  60   0.0000       0.769561        20.9408 
  61   0.0000       0.773700        21.0535 
  62   0.0000       0.781135        21.2558 
  63   0.0000       0.794310        21.6143 
  64   0.0000       0.794613        21.6225 
  65   0.0000       0.796584        21.6762 
  66   0.0000       0.798348        21.7242 
  67   0.0000       0.806931        21.9577 
  68   0.0000       0.809626        22.0311 
  69   0.0000       0.818381        22.2693 
  70   0.0000       0.838307        22.8115 
  71   0.0000       0.842185        22.9170 
  72   0.0000       0.932293        25.3690 
  73   0.0000       0.963302        26.2128 
  74   0.0000       0.984670        26.7942 
  75   0.0000       1.074031        29.2259 
  76   0.0000       1.104343        30.0507 
  77   0.0000       1.137033        30.9402 
  78   0.0000       1.148593        31.2548 
  79   0.0000       1.228980        33.4422 
  80   0.0000       1.256289        34.1854 
  81   0.0000       1.276814        34.7439 
  82   0.0000       1.359124        36.9836 
  83   0.0000       1.367950        37.2238 
  84   0.0000       1.446985        39.3745 
  85   0.0000       1.458514        39.6882 
  86   0.0000       1.532773        41.7089 
  87   0.0000       1.560504        42.4635 
  88   0.0000       1.646782        44.8112 
  89   0.0000       1.647436        44.8290 
  90   0.0000       1.662909        45.2501 
  91   0.0000       1.715764        46.6883 
  92   0.0000       1.727087        46.9964 
  93   0.0000       1.740064        47.3496 
  94   0.0000       1.786895        48.6239 
  95   0.0000       1.796192        48.8769 
  96   0.0000       1.835884        49.9569 
  97   0.0000       1.855011        50.4774 
  98   0.0000       1.882878        51.2357 
  99   0.0000       1.893880        51.5351 
 100   0.0000       1.898680        51.6657 
 101   0.0000       1.908682        51.9379 
 102   0.0000       1.910186        51.9788 
 103   0.0000       1.941598        52.8336 
 104   0.0000       1.949194        53.0403 
 105   0.0000       1.960981        53.3610 
 106   0.0000       1.962193        53.3940 
 107   0.0000       2.052943        55.8634 
 108   0.0000       2.055010        55.9197 
 109   0.0000       2.060113        56.0585 
 110   0.0000       2.113298        57.5058 
 111   0.0000       2.144174        58.3459 
 112   0.0000       2.144552        58.3562 
 113   0.0000       2.150065        58.5063 
 114   0.0000       2.190533        59.6074 
 115   0.0000       2.236881        60.8686 
 116   0.0000       2.252763        61.3008 
 117   0.0000       2.357735        64.1572 
 118   0.0000       2.378199        64.7141 
 119   0.0000       2.388599        64.9971 
 120   0.0000       2.409209        65.5579 
 121   0.0000       2.416626        65.7597 
 122   0.0000       2.444958        66.5307 
 123   0.0000       2.485033        67.6212 
 124   0.0000       2.523223        68.6604 
 125   0.0000       2.553411        69.4819 
 126   0.0000       2.616647        71.2026 
 127   0.0000       2.653350        72.2013 
 128   0.0000       2.655083        72.2485 
 129   0.0000       2.765794        75.2611 
 130   0.0000       2.781587        75.6908 
 131   0.0000       2.814007        76.5730 
 132   0.0000       2.818910        76.7064 
 133   0.0000       2.889005        78.6138 
 134   0.0000       2.921114        79.4876 
 135   0.0000       2.949274        80.2538 
 136   0.0000       2.977894        81.0326 
 137   0.0000       2.984185        81.2038 
 138   0.0000       3.030323        82.4593 
 139   0.0000       3.058786        83.2338 
 140   0.0000       3.070536        83.5535 
 141   0.0000       3.089229        84.0622 
 142   0.0000       3.092101        84.1403 
 143   0.0000       3.189124        86.7805 
 144   0.0000       3.219358        87.6032 
 145   0.0000       3.250392        88.4477 
 146   0.0000       3.427371        93.2635 
 147   0.0000       3.454493        94.0015 

                    ********************************
                    * MULLIKEN POPULATION ANALYSIS *
                    ********************************

-----------------------
MULLIKEN ATOMIC CHARGES
-----------------------
   0 N :   -0.344536
   1 C :   -0.168938
   2 N :   -0.344507
   3 C :    0.116056
   4 C :    0.116088
   5 C :    0.116201
   6 C :    0.116199
   7 H :    0.034708
   8 H :    0.036886
   9 H :    0.034710
  10 H :    0.034706
  11 H :    0.036880
  12 H :    0.034705
  13 H :    0.045220
  14 H :    0.045203
  15 H :    0.045205
  16 H :    0.045213
Sum of atomic charges:    0.0000000

--------------------------------
MULLIKEN REDUCED ORBITAL CHARGES
--------------------------------
  0 N s       :     3.414651  s :     3.414651
      pz      :     1.636479  p :     3.899891
      px      :     1.140880
      py      :     1.122532
      dz2     :     0.002227  d :     0.029994
      dxz     :     0.004419
      dyz     :     0.003080
      dx2y2   :     0.011720
      dxy     :     0.008548
  1 C s       :     3.586363  s :     3.586363
      pz      :     0.603300  p :     2.510810
      px      :     0.704411
      py      :     1.203099
      dz2     :     0.007408  d :     0.071765
      dxz     :     0.018539
      dyz     :     0.009873
      dx2y2   :     0.008314
      dxy     :     0.027630
  2 N s       :     3.414634  s :     3.414634
      pz      :     1.636483  p :     3.899878
      px      :     1.140862
      py      :     1.122533
      dz2     :     0.002227  d :     0.029995
      dxz     :     0.004420
      dyz     :     0.003079
      dx2y2   :     0.011721
      dxy     :     0.008548
  3 C s       :     2.968462  s :     2.968462
      pz      :     1.041556  p :     2.869827
      px      :     1.001138
      py      :     0.827133
      dz2     :     0.006989  d :     0.045655
      dxz     :     0.006585
      dyz     :     0.011721
      dx2y2   :     0.013642
      dxy     :     0.006718
  4 C s       :     2.968445  s :     2.968445
      pz      :     1.041550  p :     2.869812
      px      :     1.001119
      py      :     0.827143
      dz2     :     0.006989  d :     0.045655
      dxz     :     0.006585
      dyz     :     0.011721
      dx2y2   :     0.013641
      dxy     :     0.006719
  5 C s       :     2.976080  s :     2.976080
      pz      :     1.028099  p :     2.866381
      px      :     0.818258
      py      :     1.020023
      dz2     :     0.006821  d :     0.041339
      dxz     :     0.013873
      dyz     :     0.002818
      dx2y2   :     0.011437
      dxy     :     0.006389
  6 C s       :     2.976063  s :     2.976063
      pz      :     1.028095  p :     2.866397
      px      :     0.818265
      py      :     1.020037
      dz2     :     0.006821  d :     0.041341
      dxz     :     0.013874
      dyz     :     0.002818
      dx2y2   :     0.011438
      dxy     :     0.006389
  7 H s       :     0.942203  s :     0.942203
      pz      :     0.012013  p :     0.023089
      px      :     0.005340
      py      :     0.005736
  8 H s       :     0.939662  s :     0.939662
      pz      :     0.004935  p :     0.023452
      px      :     0.002740
      py      :     0.015778
  9 H s       :     0.942201  s :     0.942201
      pz      :     0.012020  p :     0.023089
      px      :     0.005338
      py      :     0.005732
 10 H s       :     0.942205  s :     0.942205
      pz      :     0.012003  p :     0.023090
      px      :     0.005345
      py      :     0.005741
 11 H s       :     0.939668  s :     0.939668
      pz      :     0.004935  p :     0.023452
      px      :     0.002740
      py      :     0.015777
 12 H s       :     0.942206  s :     0.942206
      pz      :     0.012029  p :     0.023088
      px      :     0.005332
      py      :     0.005727
 13 H s       :     0.932633  s :     0.932633
      pz      :     0.012030  p :     0.022148
      px      :     0.005061
      py      :     0.005057
 14 H s       :     0.932648  s :     0.932648
      pz      :     0.012032  p :     0.022148
      px      :     0.005062
      py      :     0.005055
 15 H s       :     0.932647  s :     0.932647
      pz      :     0.012030  p :     0.022148
      px      :     0.005062
      py      :     0.005056
 16 H s       :     0.932638  s :     0.932638
      pz      :     0.012032  p :     0.022148
      px      :     0.005060
      py      :     0.005056


                     *******************************
                     * LOEWDIN POPULATION ANALYSIS *
                     *******************************

----------------------
LOEWDIN ATOMIC CHARGES
----------------------
   0 N :   -0.052061
   1 C :   -0.273360
   2 N :   -0.052059
   3 C :    0.038106
   4 C :    0.038109
   5 C :    0.023538
   6 C :    0.023530
   7 H :    0.021912
   8 H :    0.028101
   9 H :    0.021904
  10 H :    0.021920
  11 H :    0.028100
  12 H :    0.021897
  13 H :    0.027595
  14 H :    0.027587
  15 H :    0.027589
  16 H :    0.027592

-------------------------------
LOEWDIN REDUCED ORBITAL CHARGES
-------------------------------
  0 N s       :     3.065732  s :     3.065732
      pz      :     1.560416  p :     3.916062
      px      :     1.184101
      py      :     1.171545
      dz2     :     0.003990  d :     0.070267
      dxz     :     0.007683
      dyz     :     0.005359
      dx2y2   :     0.029743
      dxy     :     0.023492
  1 C s       :     3.178897  s :     3.178897
      pz      :     0.651167  p :     2.936000
      px      :     0.862542
      py      :     1.422290
      dz2     :     0.016905  d :     0.158463
      dxz     :     0.041259
      dyz     :     0.014054
      dx2y2   :     0.021039
      dxy     :     0.065206
  2 N s       :     3.065724  s :     3.065724
      pz      :     1.560419  p :     3.916066
      px      :     1.184103
      py      :     1.171543
      dz2     :     0.003990  d :     0.070270
      dxz     :     0.007684
      dyz     :     0.005359
      dx2y2   :     0.029746
      dxy     :     0.023490
  3 C s       :     2.836358  s :     2.836358
      pz      :     1.083638  p :     3.014448
      px      :     1.021938
      py      :     0.908872
      dz2     :     0.016981  d :     0.111088
      dxz     :     0.014943
      dyz     :     0.029342
      dx2y2   :     0.035202
      dxy     :     0.014620
  4 C s       :     2.836355  s :     2.836355
      pz      :     1.083636  p :     3.014447
      px      :     1.021933
      py      :     0.908877
      dz2     :     0.016982  d :     0.111089
      dxz     :     0.014943
      dyz     :     0.029342
      dx2y2   :     0.035200
      dxy     :     0.014623
  5 C s       :     2.822815  s :     2.822815
      pz      :     1.076301  p :     3.049619
      px      :     0.909023
      py      :     1.064294
      dz2     :     0.017311  d :     0.104028
      dxz     :     0.035732
      dyz     :     0.006556
      dx2y2   :     0.029271
      dxy     :     0.015159
  6 C s       :     2.822802  s :     2.822802
      pz      :     1.076297  p :     3.049631
      px      :     0.909030
      py      :     1.064304
      dz2     :     0.017312  d :     0.104036
      dxz     :     0.035734
      dyz     :     0.006556
      dx2y2   :     0.029275
      dxy     :     0.015158
  7 H s       :     0.913506  s :     0.913506
      pz      :     0.032238  p :     0.064581
      px      :     0.016898
      py      :     0.015446
  8 H s       :     0.905607  s :     0.905607
      pz      :     0.012927  p :     0.066292
      px      :     0.009501
      py      :     0.043863
  9 H s       :     0.913515  s :     0.913515
      pz      :     0.032258  p :     0.064581
      px      :     0.016891
      py      :     0.015433
 10 H s       :     0.913498  s :     0.913498
      pz      :     0.032211  p :     0.064582
      px      :     0.016911
      py      :     0.015460
 11 H s       :     0.905609  s :     0.905609
      pz      :     0.012928  p :     0.066291
      px      :     0.009501
      py      :     0.043862
 12 H s       :     0.913522  s :     0.913522
      pz      :     0.032285  p :     0.064581
      px      :     0.016876
      py      :     0.015420
 13 H s       :     0.906065  s :     0.906065
      pz      :     0.033063  p :     0.066340
      px      :     0.016580
      py      :     0.016697
 14 H s       :     0.906072  s :     0.906072
      pz      :     0.033067  p :     0.066341
      px      :     0.016583
      py      :     0.016691
 15 H s       :     0.906070  s :     0.906070
      pz      :     0.033064  p :     0.066342
      px      :     0.016583
      py      :     0.016695
 16 H s       :     0.906067  s :     0.906067
      pz      :     0.033068  p :     0.066341
      px      :     0.016580
      py      :     0.016694


                      *****************************
                      * MAYER POPULATION ANALYSIS *
                      *****************************

  NA   - Mulliken gross atomic population
  ZA   - Total nuclear charge
  QA   - Mulliken gross atomic charge
  VA   - Mayer's total valence
  BVA  - Mayer's bonded valence
  FA   - Mayer's free valence

  ATOM       NA         ZA         QA         VA         BVA        FA
  0 N      7.3445     7.0000    -0.3445     3.2894     3.2894     0.0000
  1 C      6.1689     6.0000    -0.1689     2.6909     2.6909     0.0000
  2 N      7.3445     7.0000    -0.3445     3.2894     3.2894    -0.0000
  3 C      5.8839     6.0000     0.1161     4.0004     4.0004    -0.0000
  4 C      5.8839     6.0000     0.1161     4.0004     4.0004     0.0000
  5 C      5.8838     6.0000     0.1162     3.9087     3.9087     0.0000
  6 C      5.8838     6.0000     0.1162     3.9088     3.9088     0.0000
  7 H      0.9653     1.0000     0.0347     0.9918     0.9918    -0.0000
  8 H      0.9631     1.0000     0.0369     1.0195     1.0195     0.0000
  9 H      0.9653     1.0000     0.0347     0.9918     0.9918     0.0000
 10 H      0.9653     1.0000     0.0347     0.9918     0.9918     0.0000
 11 H      0.9631     1.0000     0.0369     1.0195     1.0195     0.0000
 12 H      0.9653     1.0000     0.0347     0.9918     0.9918    -0.0000
 13 H      0.9548     1.0000     0.0452     0.9842     0.9842    -0.0000
 14 H      0.9548     1.0000     0.0452     0.9842     0.9842    -0.0000
 15 H      0.9548     1.0000     0.0452     0.9842     0.9842    -0.0000
 16 H      0.9548     1.0000     0.0452     0.9842     0.9842    -0.0000

  Mayer bond orders larger than 0.100000
B(  0-N ,  1-C ) :   1.2754 B(  0-N ,  4-C ) :   0.9423 B(  0-N ,  5-C ) :   0.9796 
B(  1-C ,  2-N ) :   1.2754 B(  2-N ,  3-C ) :   0.9424 B(  2-N ,  6-C ) :   0.9796 
B(  3-C ,  4-C ) :   1.1021 B(  3-C , 13-H ) :   0.9537 B(  3-C , 14-H ) :   0.9537 
B(  4-C , 15-H ) :   0.9537 B(  4-C , 16-H ) :   0.9537 B(  5-C ,  7-H ) :   0.9749 
B(  5-C ,  8-H ) :   0.9732 B(  5-C ,  9-H ) :   0.9749 B(  6-C , 10-H ) :   0.9749 
B(  6-C , 11-H ) :   0.9732 B(  6-C , 12-H ) :   0.9749 

-------
TIMINGS
-------

Total SCF time: 0 days 0 hours 2 min 40 sec 

Total time                  ....     160.206 sec
Sum of individual times     ....     159.619 sec  ( 99.6%)

Fock matrix formation       ....     156.776 sec  ( 97.9%)
  Split-RI-J                ....       5.775 sec  (  3.7% of F)
  Chain of spheres X        ....     121.659 sec  ( 77.6% of F)
  XC integration            ....      19.475 sec  ( 12.4% of F)
    Basis function eval.    ....       6.812 sec  ( 35.0% of XC)
    Density eval.           ....       4.035 sec  ( 20.7% of XC)
    XC-Functional eval.     ....       3.422 sec  ( 17.6% of XC)
    XC-Potential eval.      ....       4.596 sec  ( 23.6% of XC)
Diagonalization             ....       0.053 sec  (  0.0%)
Density matrix formation    ....       0.007 sec  (  0.0%)
Population analysis         ....       0.008 sec  (  0.0%)
Initial guess               ....       0.467 sec  (  0.3%)
Orbital Transformation      ....       0.000 sec  (  0.0%)
Orbital Orthonormalization  ....       0.000 sec  (  0.0%)
DIIS solution               ....       0.018 sec  (  0.0%)
SOSCF solution              ....       0.016 sec  (  0.0%)
Grid generation             ....       2.274 sec  (  1.4%)

Maximum memory used throughout the entire SCF-calculation: 65.9 MB


-------------------------------------------------------------------------------
                          DFT DISPERSION CORRECTION                            
                                                                               
                                 DFTD4 V2.5                                    
-------------------------------------------------------------------------------
The WB97X functional is recognized
Active option DFTDOPT                   ...         5   

Starting D4
-------------------------   ----------------
Dispersion correction           -0.001942843
-------------------------   ----------------


-------------------------   --------------------
FINAL SINGLE POINT ENERGY      -305.715111440932
-------------------------   --------------------

------------------------------------------------------------------------------
                         ORCA SCF GRADIENT CALCULATION
------------------------------------------------------------------------------

 ... reading COSX grid (gridx3)
Gradient of the Kohn-Sham DFT energy:
Kohn-Sham wavefunction type      ... RKS
Hartree-Fock exchange scaling    ...    0.158
Number of operators              ...    1
Number of atoms                  ...   17
Basis set dimensions             ...  148
Integral neglect threshold       ... 2.5e-11
Integral primitive cutoff        ... 2.5e-12
SHARK Integral package           ... ON

Nuc. rep. gradient       (SHARK) ... done (  0.0 sec)
HCore & Overlap gradient (SHARK) ... done (  0.2 sec)
RI-J gradient            (SHARK) ... done (  1.3 sec)
COSX-gradient                    ... done ( 24.0 sec)
Exchange-correlation gradient    ... done
Dispersion correction            ... Starting D4


------------------- 
Dispersion Gradient 
------------------- 
   1  :   -0.000012948   -0.000000753   -0.000000000
   2  :   -0.000000001   -0.000007595   -0.000000001
   3  :    0.000012948   -0.000000754   -0.000000004
   4  :    0.000013429    0.000024675    0.000000001
   5  :   -0.000013426    0.000024677    0.000000001
   6  :   -0.000044916   -0.000011686   -0.000000001
   7  :    0.000044917   -0.000011685    0.000000008
   8  :   -0.000006808   -0.000003427   -0.000001004
   9  :   -0.000007759   -0.000001912   -0.000000000
  10  :   -0.000006808   -0.000003427    0.000001005
  11  :    0.000006806   -0.000003428    0.000001003
  12  :    0.000007759   -0.000001913    0.000000001
  13  :    0.000006809   -0.000003426   -0.000001006
  14  :    0.000002064    0.000000164    0.000000724
  15  :    0.000002064    0.000000163   -0.000000727
  16  :   -0.000002064    0.000000163    0.000000725
  17  :   -0.000002065    0.000000164   -0.000000725

  |G| =    0.000081598

done

------------------
CARTESIAN GRADIENT
------------------

   1   N   :   -0.000463439   -0.005806036   -0.000000912
   2   C   :   -0.000007614    0.008928154    0.000002777
   3   N   :    0.000476717   -0.005841182   -0.000002303
   4   C   :    0.002185572    0.003927873    0.000002584
   5   C   :   -0.002171821    0.003936142   -0.000000046
   6   C   :    0.000441771   -0.001219816    0.000001802
   7   C   :   -0.000458105   -0.001194836   -0.000008218
   8   H   :    0.003600229   -0.001395520   -0.004029147
   9   H   :    0.001505513    0.007126461   -0.000002996
  10   H   :    0.003598029   -0.001393651    0.004029376
  11   H   :   -0.003602860   -0.001400772    0.004029910
  12   H   :   -0.001504360    0.007131183    0.000008760
  13   H   :   -0.003598375   -0.001393751   -0.004031341
  14   H   :   -0.002152157   -0.002839784    0.003138266
  15   H   :   -0.002151463   -0.002836468   -0.003142472
  16   H   :    0.002151717   -0.002844746    0.003143134
  17   H   :    0.002150485   -0.002845169   -0.003140570

Difference to translation invariance:
           :   -0.0000001608    0.0000380805   -0.0000013977

Difference to rotation invariance:
           :    0.0000011572    0.0000025764    0.0000000549

Norm of the cartesian gradient     ...    0.0226442163
RMS gradient                       ...    0.0031708245
MAX gradient                       ...    0.0089281541

-------
TIMINGS
-------

Total SCF gradient time            ...       32.927 sec

One electron gradient       ....       0.231 sec  (  0.7%)
RI-J Coulomb gradient       ....       1.282 sec  (  3.9%)
COSX gradient               ....      24.037 sec  ( 73.0%)
XC gradient                 ....       5.814 sec  ( 17.7%)
CPCM gradient               ....       0.544 sec  (  1.7%)
   A-Matrix (El+Nuc)        ....       0.056 sec  (  0.2%)
   Potential                ....       0.489 sec  (  1.5%)

Maximum memory used throughout the entire SCFGRAD-calculation: 52.9 MB
------------------------------------------------------------------------------
                         ORCA GEOMETRY RELAXATION STEP
------------------------------------------------------------------------------

Reading the OPT-File                    .... done
Getting information on internals        .... done
Copying old internal coords+grads       .... done
Making the new internal coordinates     .... (new redundants).... done
Validating the new internal coordinates .... (new redundants).... done
Calculating the B-matrix                .... done
Calculating the G,G- and P matrices     .... done
Transforming gradient to internals      .... done
Projecting the internal gradient        .... done
Number of atoms                         ....  17
Number of internal coordinates          ....  85
Current Energy                          ....  -305.715111441 Eh
Current gradient norm                   ....     0.022644216 Eh/bohr
Maximum allowed component of the step   ....  0.300
Current trust radius                    ....  0.300
Evaluating the initial hessian          ....  (Almloef) done
Projecting the Hessian                  .... done
Forming the augmented Hessian           .... done
Diagonalizing the augmented Hessian     .... done
Last element of RFO vector              ....  0.997932854
Lowest eigenvalues of augmented Hessian:
 -0.001614225  0.013668930  0.020179322  0.020184981  0.020203847
Length of the computed step             ....  0.064398344
The final length of the internal step   ....  0.064398344
Converting the step to cartesian space:
 Initial RMS(Int)=    0.0069849811
Transforming coordinates:
 Iter   0:  RMS(Cart)=    0.0181083698 RMS(Int)=    0.0069847769
 Iter   1:  RMS(Cart)=    0.0000283040 RMS(Int)=    0.0000168027
 Iter   2:  RMS(Cart)=    0.0000001860 RMS(Int)=    0.0000001321
 Iter   3:  RMS(Cart)=    0.0000000011 RMS(Int)=    0.0000000008
done
Storing new coordinates                 .... done

                                .--------------------.
          ----------------------|Geometry convergence|-------------------------
          Item                value                   Tolerance       Converged
          ---------------------------------------------------------------------
          RMS gradient        0.0028405446            0.0001000000      NO
          MAX gradient        0.0096826127            0.0003000000      NO
          RMS step            0.0069849811            0.0020000000      NO
          MAX step            0.0198726978            0.0040000000      NO
          ........................................................
          Max(Bonds)      0.0105      Max(Angles)    0.32
          Max(Dihed)        0.42      Max(Improp)    0.00
          ---------------------------------------------------------------------

The optimization has not yet converged - more geometry cycles are needed


    ---------------------------------------------------------------------------
                         Redundant Internal Coordinates
                            (Angstroem and degrees)

        Definition                    Value    dE/dq     Step     New-Value
    ----------------------------------------------------------------------------
     1. B(C   1,N   0)                1.3343 -0.008218  0.0067    1.3411   
     2. B(N   2,C   1)                1.3343 -0.008215  0.0067    1.3411   
     3. B(C   3,N   2)                1.4640 -0.002083  0.0024    1.4664   
     4. B(C   4,N   0)                1.4640 -0.002087  0.0024    1.4664   
     5. B(C   4,C   3)                1.5283 -0.003885  0.0045    1.5328   
     6. B(C   5,N   0)                1.4286 -0.009658  0.0105    1.4391   
     7. B(C   6,N   2)                1.4286 -0.009683  0.0105    1.4391   
     8. B(H   7,C   5)                1.0960 -0.005466  0.0082    1.1041   
     9. B(H   8,C   5)                1.0874 -0.007141  0.0103    1.0977   
    10. B(H   9,C   5)                1.0960 -0.005464  0.0082    1.1042   
    11. B(H  10,C   6)                1.0960 -0.005470  0.0082    1.1041   
    12. B(H  11,C   6)                1.0874 -0.007146  0.0104    1.0977   
    13. B(H  12,C   6)                1.0960 -0.005466  0.0082    1.1042   
    14. B(H  13,C   3)                1.0961 -0.004625  0.0069    1.1030   
    15. B(H  14,C   3)                1.0961 -0.004626  0.0069    1.1030   
    16. B(H  15,C   4)                1.0961 -0.004631  0.0069    1.1030   
    17. B(H  16,C   4)                1.0961 -0.004628  0.0069    1.1030   
    18. A(C   1,N   0,C   5)          125.38 -0.000740    0.10    125.48   
    19. A(C   4,N   0,C   5)          119.75 -0.000452    0.07    119.82   
    20. A(C   1,N   0,C   4)          114.86  0.001192   -0.17    114.70   
    21. A(N   0,C   1,N   2)          106.33  0.000461    0.08    106.40   
    22. A(C   3,N   2,C   6)          119.75 -0.000477    0.07    119.82   
    23. A(C   1,N   2,C   3)          114.86  0.001193   -0.17    114.70   
    24. A(C   1,N   2,C   6)          125.39 -0.000716    0.10    125.49   
    25. A(C   4,C   3,H  13)          112.88  0.000273    0.00    112.89   
    26. A(N   2,C   3,H  14)          110.31  0.000192    0.11    110.42   
    27. A(H  13,C   3,H  14)          108.37  0.000418   -0.32    108.05   
    28. A(N   2,C   3,H  13)          110.31  0.000191    0.11    110.42   
    29. A(C   4,C   3,H  14)          112.88  0.000272    0.00    112.89   
    30. A(N   2,C   3,C   4)          101.97 -0.001426    0.13    102.10   
    31. A(C   3,C   4,H  15)          112.88  0.000273    0.00    112.89   
    32. A(N   0,C   4,H  15)          110.31  0.000187    0.11    110.42   
    33. A(N   0,C   4,C   3)          101.97 -0.001421    0.13    102.10   
    34. A(N   0,C   4,H  16)          110.31  0.000187    0.11    110.42   
    35. A(H  15,C   4,H  16)          108.37  0.000420   -0.32    108.05   
    36. A(C   3,C   4,H  16)          112.88  0.000274    0.00    112.89   
    37. A(H   8,C   5,H   9)          109.16  0.001260   -0.21    108.95   
    38. A(H   7,C   5,H   9)          108.22  0.001268   -0.26    107.96   
    39. A(N   0,C   5,H   9)          110.92 -0.001037    0.19    111.11   
    40. A(H   7,C   5,H   8)          109.16  0.001261   -0.21    108.95   
    41. A(N   0,C   5,H   8)          108.43 -0.001631    0.31    108.73   
    42. A(N   0,C   5,H   7)          110.92 -0.001038    0.19    111.10   
    43. A(H  11,C   6,H  12)          109.16  0.001258   -0.21    108.94   
    44. A(H  10,C   6,H  12)          108.22  0.001269   -0.26    107.96   
    45. A(N   2,C   6,H  12)          110.92 -0.001040    0.19    111.11   
    46. A(H  10,C   6,H  11)          109.16  0.001260   -0.21    108.95   
    47. A(N   2,C   6,H  11)          108.43 -0.001629    0.31    108.73   
    48. A(N   2,C   6,H  10)          110.92 -0.001035    0.18    111.10   
    49. D(N   2,C   1,N   0,C   5)    179.98 -0.000000    0.00    179.98   
    50. D(N   2,C   1,N   0,C   4)     -0.00 -0.000000    0.00     -0.00   
    51. D(C   3,N   2,C   1,N   0)      0.01  0.000000    0.00      0.01   
    52. D(C   6,N   2,C   1,N   0)    179.96 -0.000002    0.01    179.97   
    53. D(H  13,C   3,N   2,C   1)   -120.17  0.000381   -0.13   -120.30   
    54. D(C   4,C   3,N   2,C   1)     -0.01  0.000000   -0.00     -0.01   
    55. D(C   4,C   3,N   2,C   6)   -179.97  0.000002   -0.01   -179.97   
    56. D(H  14,C   3,N   2,C   1)    120.14 -0.000381    0.13    120.27   
    57. D(H  13,C   3,N   2,C   6)     59.88  0.000384   -0.13     59.74   
    58. D(H  14,C   3,N   2,C   6)    -59.81 -0.000379    0.12    -59.69   
    59. D(H  15,C   4,N   0,C   5)    -59.84 -0.000379    0.13    -59.71   
    60. D(H  15,C   4,N   0,C   1)    120.15 -0.000380    0.13    120.28   
    61. D(H  16,C   4,N   0,C   1)   -120.16  0.000380   -0.13   -120.29   
    62. D(H  16,C   4,C   3,H  14)      0.00 -0.000003    0.00      0.01   
    63. D(H  16,C   4,C   3,H  13)   -123.32 -0.000989    0.42   -122.90   
    64. D(C   3,C   4,N   0,C   5)   -179.99  0.000000   -0.00   -179.99   
    65. D(C   3,C   4,N   0,C   1)     -0.00  0.000000   -0.00     -0.01   
    66. D(H  15,C   4,C   3,H  13)      0.01  0.000001    0.00      0.01   
    67. D(H  15,C   4,C   3,N   2)   -118.33  0.000495   -0.21   -118.54   
    68. D(N   0,C   4,C   3,H  14)   -118.33  0.000492   -0.21   -118.54   
    69. D(H  15,C   4,C   3,H  14)    123.33  0.000987   -0.42    122.91   
    70. D(H  16,C   4,C   3,N   2)    118.34 -0.000495    0.21    118.56   
    71. D(N   0,C   4,C   3,H  13)    118.35 -0.000494    0.21    118.56   
    72. D(N   0,C   4,C   3,N   2)      0.01 -0.000001    0.00      0.01   
    73. D(H  16,C   4,N   0,C   5)     59.85  0.000380   -0.13     59.72   
    74. D(H   9,C   5,N   0,C   1)   -119.81  0.000109   -0.04   -119.86   
    75. D(H   8,C   5,N   0,C   4)   -179.98  0.000000   -0.00   -179.98   
    76. D(H   8,C   5,N   0,C   1)      0.04  0.000000   -0.00      0.04   
    77. D(H   7,C   5,N   0,C   4)    -60.12 -0.000107    0.04    -60.09   
    78. D(H   9,C   5,N   0,C   4)     60.17  0.000109   -0.04     60.13   
    79. D(H   7,C   5,N   0,C   1)    119.89 -0.000107    0.04    119.93   
    80. D(H  12,C   6,N   2,C   3)     60.21  0.000111   -0.05     60.16   
    81. D(H  12,C   6,N   2,C   1)   -119.74  0.000113   -0.05   -119.79   
    82. D(H  11,C   6,N   2,C   3)   -179.94 -0.000001   -0.00   -179.94   
    83. D(H  11,C   6,N   2,C   1)      0.11  0.000001   -0.01      0.10   
    84. D(H  10,C   6,N   2,C   3)    -60.09 -0.000106    0.04    -60.05   
    85. D(H  10,C   6,N   2,C   1)    119.96 -0.000105    0.03    120.00   
    ----------------------------------------------------------------------------

         *************************************************************
         *                GEOMETRY OPTIMIZATION CYCLE   2            *
         *************************************************************
---------------------------------
CARTESIAN COORDINATES (ANGSTROEM)
---------------------------------
  N     -1.073855   -0.190555    0.000101
  C     -0.000032   -0.993901   -0.000068
  N      1.073841   -0.190623   -0.000268
  C      0.766435    1.243220   -0.000006
  C     -0.766368    1.243270    0.000069
  C     -2.444727   -0.628498    0.000020
  C      2.444711   -0.628534    0.000189
  H     -2.979828   -0.260092    0.892815
  H     -2.464175   -1.726041    0.000475
  H     -2.979554   -0.260851   -0.893259
  H      2.980249   -0.259378   -0.892028
  H      2.464222   -1.726079   -0.001157
  H      2.979087   -0.261625    0.894048
  H      1.195382    1.728982   -0.892581
  H      1.195470    1.728701    0.892683
  H     -1.195375    1.728895   -0.892553
  H     -1.195304    1.728898    0.892722

----------------------------
CARTESIAN COORDINATES (A.U.)
----------------------------
  NO LB      ZA    FRAG     MASS         X           Y           Z
   0 N     7.0000    0    14.007   -2.029291   -0.360096    0.000191
   1 C     6.0000    0    12.011   -0.000060   -1.878200   -0.000128
   2 N     7.0000    0    14.007    2.029266   -0.360225   -0.000507
[...]
     27      -0.167832  -0.343396  -0.038005   0.286129   0.305574   0.216977
     28       0.105251   0.146763  -0.017304  -0.038762   0.026631  -0.152507
     29       0.151013   0.302409   0.029994  -0.149900  -0.167086   0.380277
     30      -0.167987   0.343666   0.037967  -0.286309   0.305592   0.216921
     31      -0.104492   0.145597  -0.017280  -0.038218  -0.026992   0.152809
     32      -0.151207   0.302824   0.030005  -0.150127   0.167253  -0.379438
     33       0.085849  -0.057233   0.063529   0.180888  -0.052821   0.004369
     34       0.008742   0.002267   0.006779  -0.000125   0.014954  -0.261574
     35       0.000615  -0.000813   0.000112   0.000408  -0.000160  -0.000281
     36      -0.167727   0.343306   0.038023  -0.286008   0.305592   0.216960
     37      -0.105583   0.147338  -0.017312  -0.039006  -0.026461   0.152316
     38       0.150886  -0.302250  -0.029991   0.149769  -0.167026   0.380589
     39       0.205512  -0.022337   0.278556   0.069483  -0.062017   0.005605
     40       0.262486  -0.083781   0.253965  -0.267991   0.268769   0.009065
     41       0.267140  -0.059552   0.314564  -0.096436   0.114678  -0.014771
     42       0.205576  -0.022329   0.278637   0.069488  -0.062061   0.005625
     43       0.262575  -0.083828   0.254076  -0.268043   0.268886   0.009086
     44      -0.266992   0.059516  -0.314397   0.096313  -0.114567   0.014822
     45       0.205564   0.022324  -0.278628  -0.069480  -0.062046   0.005617
     46      -0.262554  -0.083790   0.254061  -0.268038  -0.268830  -0.009079
     47      -0.267023  -0.059505   0.314435  -0.096363  -0.114593   0.014805
     48       0.205506   0.022319  -0.278566  -0.069506  -0.062032   0.005611
     49      -0.262520  -0.083781   0.254003  -0.268046  -0.268784  -0.009070
     50       0.267106   0.059530  -0.314538   0.096414   0.114639  -0.014783
                 42         43         44         45         46         47    
      0      -0.000208  -0.000327   0.000212  -0.000000  -0.000000  -0.000001
      1       0.000157   0.001638  -0.000795   0.000000  -0.000000  -0.000000
      2       0.000000   0.000000  -0.000000  -0.000887   0.000599   0.000052
      3      -0.000000   0.002760   0.000000  -0.000000  -0.000001   0.000000
      4      -0.000873  -0.000000   0.001359  -0.000001  -0.000000  -0.000001
      5      -0.000000  -0.000000   0.000000   0.000000  -0.000783   0.000000
      6       0.000209  -0.000327  -0.000212  -0.000000  -0.000001   0.000002
      7       0.000157  -0.001638  -0.000795   0.000000   0.000001  -0.000001
      8      -0.000001   0.000000   0.000000   0.000887   0.000599  -0.000052
      9      -0.002275  -0.032318  -0.035314   0.000031   0.000009   0.000013
     10      -0.001883  -0.036340  -0.035205   0.000040   0.000014   0.000018
     11       0.000000  -0.000042  -0.000062  -0.060983  -0.024410  -0.031965
     12       0.002275  -0.032317   0.035314  -0.000028   0.000007  -0.000012
     13      -0.001883   0.036340  -0.035206   0.000029  -0.000009   0.000012
     14       0.000001  -0.000030   0.000051   0.060985  -0.024398   0.031973
     15      -0.036637   0.001326   0.002561  -0.000012   0.000022   0.000021
     16       0.003803   0.000370  -0.000485   0.000007  -0.000013  -0.000012
     17      -0.000031  -0.000001   0.000006   0.030944  -0.062341  -0.059365
     18       0.036640   0.001326  -0.002561   0.000030   0.000056  -0.000051
     19       0.003802  -0.000370  -0.000485   0.000022   0.000042  -0.000039
     20       0.000075  -0.000000  -0.000010  -0.030938  -0.062332   0.059376
     21       0.217516  -0.006521  -0.015806   0.113121  -0.224264  -0.212057
     22      -0.152078   0.006588   0.008261  -0.079302   0.160437   0.153458
     23      -0.378743   0.013422   0.023668  -0.185981   0.373165   0.355185
     24       0.004577   0.000656  -0.001722   0.000003  -0.000003  -0.000002
     25       0.261936  -0.014090  -0.013447   0.000107  -0.000202  -0.000193
     26      -0.000098   0.000005   0.000005   0.003153  -0.007366  -0.007452
     27       0.217557  -0.006507  -0.015841  -0.112978   0.224014   0.211826
     28      -0.151932   0.006574   0.008271   0.079114  -0.160082  -0.153123
     29       0.379205  -0.013415  -0.023745  -0.185939   0.373139   0.355169
     30      -0.217535  -0.006524   0.015801  -0.113203  -0.224425   0.212275
     31      -0.152258  -0.006595   0.008269  -0.079444  -0.160719   0.153772
     32       0.378428   0.013414  -0.023640   0.185944   0.373087  -0.355217
     33      -0.004573   0.000656   0.001722  -0.000005  -0.000006   0.000005
     34       0.261959   0.014090  -0.013447   0.000241   0.000468  -0.000442
     35       0.000282   0.000015  -0.000014  -0.003152  -0.007365   0.007453
     36      -0.217580  -0.006504   0.015845   0.112860   0.223795  -0.211695
     37      -0.151769  -0.006566   0.008262   0.078939   0.159745  -0.152858
     38      -0.379585  -0.013424   0.023773   0.185910   0.373109  -0.355271
     39       0.012172   0.184828   0.185820  -0.171087  -0.069484  -0.090742
     40       0.011116   0.213306   0.212490  -0.196431  -0.081380  -0.100714
     41      -0.025682  -0.410556  -0.409542   0.355657   0.145613   0.186470
     42       0.012163   0.184939   0.186041   0.170750   0.069380   0.090596
     43       0.011096   0.213334   0.212651   0.195963   0.081222   0.100509
     44       0.025677   0.411055   0.410270   0.355166   0.145478   0.186288
     45      -0.012167   0.184915  -0.186018  -0.170771   0.069355  -0.090625
     46       0.011105  -0.213363   0.212682   0.196039  -0.081216   0.100566
     47      -0.025684   0.410985  -0.410205  -0.355199   0.145422  -0.186338
     48      -0.012169   0.184843  -0.185834   0.171068  -0.069440   0.090753
     49       0.011110  -0.213284   0.212468  -0.196377   0.081315  -0.100710
     50       0.025678  -0.410623   0.409609  -0.355650   0.145533  -0.186512
                 48         49         50    
      0       0.000000   0.000660  -0.000659
      1      -0.000000  -0.000081   0.000369
      2       0.000378   0.000000   0.000000
      3      -0.000000  -0.000003  -0.000110
      4      -0.000000   0.000133  -0.000004
      5      -0.000353   0.000000   0.000001
      6       0.000001  -0.000699  -0.000617
      7       0.000000  -0.000104  -0.000364
      8       0.000378  -0.000000   0.000000
      9       0.000020   0.000134   0.000022
     10       0.000030   0.000415   0.000515
     11      -0.063358  -0.000001  -0.000001
     12       0.000016  -0.000133   0.000030
     13      -0.000019   0.000383  -0.000539
     14      -0.063357   0.000000  -0.000001
     15      -0.000008   0.011413  -0.012064
     16       0.000004  -0.062744   0.066681
     17       0.024359   0.000013  -0.000014
     18      -0.000020  -0.012131  -0.011344
     19      -0.000015  -0.066706  -0.062718
     20       0.024362  -0.000046  -0.000043
     21       0.085817  -0.079910   0.084704
     22      -0.063766   0.053417  -0.056703
     23      -0.145870   0.142613  -0.151247
     24       0.000001   0.011760  -0.012506
     25       0.000081   0.637259  -0.677752
     26       0.003441  -0.000225   0.000239
     27      -0.085729  -0.079781   0.084564
     28       0.063633   0.053254  -0.056529
     29      -0.145876  -0.142540   0.151167
     30       0.085896   0.085044   0.079752
     31       0.063887   0.056928   0.053462
     32      -0.145865  -0.151632  -0.142270
     33       0.000001  -0.012491  -0.011752
     34      -0.000184   0.677528   0.637500
     35       0.003441   0.000690   0.000649
     36      -0.085673   0.084707   0.079434
     37      -0.063522   0.056468   0.053030
     38      -0.145913   0.151490   0.142136
     39      -0.181248  -0.001477  -0.001674
     40      -0.204180  -0.000258  -0.001107
     41       0.375044   0.001942   0.002738
     42       0.181019  -0.001472  -0.001668
     43       0.203835  -0.000254  -0.001101
     44       0.374807  -0.001933  -0.002727
     45       0.181030   0.001368  -0.001757
     46      -0.203898  -0.000188   0.001116
     47       0.374811   0.001765  -0.002843
     48      -0.181221   0.001371  -0.001760
     49       0.204116  -0.000189   0.001119
     50       0.375024  -0.001768   0.002848


-----------
IR SPECTRUM
-----------

 Mode   freq       eps      Int      T**2         TX        TY        TZ
       cm**-1   L/(mol*cm) km/mol    a.u.
----------------------------------------------------------------------------
  7:    113.60   0.002134   10.78  0.005861  ( 0.000019 -0.000010 -0.076559)
  8:    142.80   0.000000    0.00  0.000000  (-0.000017 -0.000049 -0.000015)
  9:    182.27   0.003032   15.32  0.005192  (-0.000073 -0.000028  0.072055)
 10:    215.25   0.000000    0.00  0.000000  ( 0.000036  0.000035 -0.000007)
 11:    284.89   0.000321    1.62  0.000352  ( 0.000000  0.018750  0.000019)
 12:    419.83   0.002698   13.63  0.002005  ( 0.044779 -0.000001 -0.000009)
 13:    466.32   0.000116    0.59  0.000078  ( 0.000085 -0.000001  0.008817)
 14:    623.93   0.000186    0.94  0.000093  ( 0.000000  0.009650 -0.000008)
 15:    663.03   0.007598   38.40  0.003576  ( 0.059800 -0.000001  0.000012)
 16:    844.00   0.000001    0.01  0.000000  ( 0.000010  0.000001 -0.000608)
 17:    939.79   0.004122   20.83  0.001369  (-0.000001 -0.036996 -0.000003)
 18:    954.72   0.000003    0.02  0.000001  (-0.001031  0.000000  0.000017)
 19:   1024.57   0.000076    0.39  0.000023  ( 0.000000  0.004825  0.000002)
 20:   1093.39   0.000248    1.25  0.000071  ( 0.000000 -0.008407  0.000001)
 21:   1097.33   0.000002    0.01  0.000001  (-0.000761  0.000031  0.000000)
 22:   1098.13   0.008991   45.44  0.002555  ( 0.050549 -0.000000 -0.000012)
 23:   1140.32   0.000012    0.06  0.000003  ( 0.000036 -0.000005  0.001785)
 24:   1158.99   0.000000    0.00  0.000000  ( 0.000035 -0.000009  0.000001)
 25:   1202.80   0.003022   15.27  0.000784  ( 0.000075 -0.000001 -0.028001)
 26:   1243.34   0.000000    0.00  0.000000  ( 0.000017  0.000013 -0.000001)
 27:   1262.88   0.014758   74.58  0.003647  (-0.060389  0.000001 -0.000009)
 28:   1324.81   0.020871  105.47  0.004916  (-0.070116 -0.000020 -0.000008)
 29:   1325.04   0.000267    1.35  0.000063  ( 0.000184 -0.007925  0.000000)
 30:   1366.77   0.003331   16.83  0.000760  ( 0.000000  0.027576  0.000001)
 31:   1417.95   0.013836   69.92  0.003045  ( 0.055181 -0.000001  0.000070)
 32:   1427.38   0.000881    4.45  0.000193  ( 0.000001  0.013879  0.000052)
 33:   1443.05   0.000000    0.00  0.000000  (-0.000116 -0.000019 -0.000032)
 34:   1443.56   0.005819   29.41  0.001258  ( 0.000260  0.000009 -0.035466)
 35:   1461.86   0.022202  112.20  0.004739  (-0.068843  0.000000 -0.000073)
 36:   1476.56   0.000564    2.85  0.000119  ( 0.010917  0.000001  0.000022)
 37:   1477.93   0.005609   28.35  0.001184  (-0.000001  0.034415 -0.000015)
 38:   1494.03   0.000136    0.69  0.000028  ( 0.000000  0.005337  0.000001)
 39:   1547.78   0.001093    5.52  0.000220  ( 0.000004 -0.014843 -0.000005)
 40:   1570.08   0.079038  399.43  0.015709  ( 0.125337 -0.000001  0.000017)
 41:   3038.08   0.042038  212.44  0.004318  (-0.065712  0.000001 -0.000055)
 42:   3041.11   0.000110    0.56  0.000011  ( 0.000003 -0.003360  0.000022)
 43:   3059.99   0.009534   48.18  0.000972  (-0.031181  0.000000 -0.000032)
 44:   3070.89   0.012621   63.78  0.001282  (-0.000000 -0.035812 -0.000006)
 45:   3111.00   0.000000    0.00  0.000000  ( 0.000009  0.000033  0.000002)
 46:   3116.64   0.029440  148.78  0.002948  ( 0.000033  0.000010 -0.054294)
 47:   3119.95   0.000000    0.00  0.000000  (-0.000009 -0.000004  0.000006)
 48:   3127.40   0.003771   19.06  0.000376  ( 0.000003  0.000000 -0.019399)
 49:   3194.90   0.003948   19.95  0.000386  (-0.000170 -0.019637 -0.000007)
 50:   3194.93   0.000317    1.60  0.000031  (-0.005534  0.000601 -0.000012)

* The epsilon (eps) is given for a Dirac delta lineshape.
** The dipole moment derivative (T) already includes vibrational overlap.

The first frequency considered to be a vibration is 7
The total number of vibrations considered is 44


--------------------------
THERMOCHEMISTRY AT 298.15K
--------------------------

Temperature         ... 298.15 K
Pressure            ... 1.00 atm
Total Mass          ... 98.15 AMU

Throughout the following assumptions are being made:
  (1) The electronic state is orbitally nondegenerate
  (2) There are no thermally accessible electronically excited states
  (3) Hindered rotations indicated by low frequency modes are not
      treated as such but are treated as vibrations and this may
      cause some error
  (4) All equations used are the standard statistical mechanics
      equations for an ideal gas
  (5) All vibrations are strictly harmonic

freq.     113.60  E(vib)   ...       0.44 
freq.     142.80  E(vib)   ...       0.41 
freq.     182.27  E(vib)   ...       0.37 
freq.     215.25  E(vib)   ...       0.34 
freq.     284.89  E(vib)   ...       0.28 
freq.     419.83  E(vib)   ...       0.18 
freq.     466.32  E(vib)   ...       0.16 
freq.     623.93  E(vib)   ...       0.09 
freq.     663.03  E(vib)   ...       0.08 
freq.     844.00  E(vib)   ...       0.04 
freq.     939.79  E(vib)   ...       0.03 
freq.     954.72  E(vib)   ...       0.03 
freq.    1024.57  E(vib)   ...       0.02 
freq.    1093.39  E(vib)   ...       0.02 
freq.    1097.33  E(vib)   ...       0.02 
freq.    1098.13  E(vib)   ...       0.02 
freq.    1140.32  E(vib)   ...       0.01 
freq.    1158.99  E(vib)   ...       0.01 
freq.    1202.80  E(vib)   ...       0.01 
freq.    1243.34  E(vib)   ...       0.01 
freq.    1262.88  E(vib)   ...       0.01 
freq.    1324.81  E(vib)   ...       0.01 
freq.    1325.04  E(vib)   ...       0.01 
freq.    1366.77  E(vib)   ...       0.01 
freq.    1417.95  E(vib)   ...       0.00 
freq.    1427.38  E(vib)   ...       0.00 
freq.    1443.05  E(vib)   ...       0.00 
freq.    1443.56  E(vib)   ...       0.00 
freq.    1461.86  E(vib)   ...       0.00 
freq.    1476.56  E(vib)   ...       0.00 
freq.    1477.93  E(vib)   ...       0.00 
freq.    1494.03  E(vib)   ...       0.00 
freq.    1547.78  E(vib)   ...       0.00 
freq.    1570.08  E(vib)   ...       0.00 
freq.    3038.08  E(vib)   ...       0.00 
freq.    3041.11  E(vib)   ...       0.00 
freq.    3059.99  E(vib)   ...       0.00 
freq.    3070.89  E(vib)   ...       0.00 
freq.    3111.00  E(vib)   ...       0.00 
freq.    3116.64  E(vib)   ...       0.00 
freq.    3119.95  E(vib)   ...       0.00 
freq.    3127.40  E(vib)   ...       0.00 
freq.    3194.90  E(vib)   ...       0.00 
freq.    3194.93  E(vib)   ...       0.00 

------------
INNER ENERGY
------------

The inner energy is: U= E(el) + E(ZPE) + E(vib) + E(rot) + E(trans)
    E(el)   - is the total energy from the electronic structure calculation
              = E(kin-el) + E(nuc-el) + E(el-el) + E(nuc-nuc)
    E(ZPE)  - the the zero temperature vibrational energy from the frequency calculation
    E(vib)  - the the finite temperature correction to E(ZPE) due to population
              of excited vibrational states
    E(rot)  - is the rotational thermal energy
    E(trans)- is the translational thermal energy

Summary of contributions to the inner energy U:
Electronic energy                ...   -305.71597006 Eh
Zero point energy                ...      0.15041345 Eh      94.39 kcal/mol
Thermal vibrational correction   ...      0.00418223 Eh       2.62 kcal/mol
Thermal rotational correction    ...      0.00141627 Eh       0.89 kcal/mol
Thermal translational correction ...      0.00141627 Eh       0.89 kcal/mol
-----------------------------------------------------------------------
Total thermal energy                   -305.55854184 Eh


Summary of corrections to the electronic energy:
(perhaps to be used in another calculation)
Total thermal correction                  0.00701477 Eh       4.40 kcal/mol
Non-thermal (ZPE) correction              0.15041345 Eh      94.39 kcal/mol
-----------------------------------------------------------------------
Total correction                          0.15742822 Eh      98.79 kcal/mol


--------
ENTHALPY
--------

The enthalpy is H = U + kB*T
                kB is Boltzmann's constant
Total free energy                 ...   -305.55854184 Eh 
Thermal Enthalpy correction       ...      0.00094421 Eh       0.59 kcal/mol
-----------------------------------------------------------------------
Total Enthalpy                    ...   -305.55759763 Eh


Note: Only C1 symmetry has been detected, increase convergence thresholds 
      if your molecule has a higher symmetry. Symmetry factor of 1.0 is   
      used for the rotational entropy correction. 
 

Note: Rotational entropy computed according to Herzberg 
Infrared and Raman Spectra, Chapter V,1, Van Nostrand Reinhold, 1945 
Point Group:  C1, Symmetry Number:   1  
Rotational constants in cm-1:     0.199944     0.067390     0.052410 

Vibrational entropy computed according to the QRRHO of S. Grimme
Chem.Eur.J. 2012 18 9955


-------
ENTROPY
-------

The entropy contributions are T*S = T*(S(el)+S(vib)+S(rot)+S(trans))
     S(el)   - electronic entropy
     S(vib)  - vibrational entropy
     S(rot)  - rotational entropy
     S(trans)- translational entropy
The entropies will be listed as multiplied by the temperature to get
units of energy

Electronic entropy                ...      0.00000000 Eh      0.00 kcal/mol
Vibrational entropy               ...      0.00715323 Eh      4.49 kcal/mol
Rotational entropy                ...      0.01293613 Eh      8.12 kcal/mol
Translational entropy             ...      0.01884478 Eh     11.83 kcal/mol
-----------------------------------------------------------------------
Final entropy term                ...      0.03893414 Eh     24.43 kcal/mol

In case the symmetry of your molecule has not been determined correctly
or in case you have a reason to use a different symmetry number we print 
out the resulting rotational entropy values for sn=1,12 :
 --------------------------------------------------------
|  sn= 1 | S(rot)=       0.01293613 Eh      8.12 kcal/mol|
|  sn= 2 | S(rot)=       0.01228167 Eh      7.71 kcal/mol|
|  sn= 3 | S(rot)=       0.01189884 Eh      7.47 kcal/mol|
|  sn= 4 | S(rot)=       0.01162722 Eh      7.30 kcal/mol|
|  sn= 5 | S(rot)=       0.01141653 Eh      7.16 kcal/mol|
|  sn= 6 | S(rot)=       0.01124438 Eh      7.06 kcal/mol|
|  sn= 7 | S(rot)=       0.01109884 Eh      6.96 kcal/mol|
|  sn= 8 | S(rot)=       0.01097276 Eh      6.89 kcal/mol|
|  sn= 9 | S(rot)=       0.01086155 Eh      6.82 kcal/mol|
|  sn=10 | S(rot)=       0.01076207 Eh      6.75 kcal/mol|
|  sn=11 | S(rot)=       0.01067208 Eh      6.70 kcal/mol|
|  sn=12 | S(rot)=       0.01058993 Eh      6.65 kcal/mol|
 --------------------------------------------------------


-------------------
GIBBS FREE ENERGY
-------------------

The Gibbs free energy is G = H - T*S

Total enthalpy                    ...   -305.55759763 Eh 
Total entropy correction          ...     -0.03893414 Eh    -24.43 kcal/mol
-----------------------------------------------------------------------
Final Gibbs free energy         ...   -305.59653178 Eh

For completeness - the Gibbs free energy minus the electronic energy
G-E(el)                           ...      0.11943829 Eh     74.95 kcal/mol


Timings for individual modules:

Sum of individual times         ...     1213.506 sec (=  20.225 min)
GTO integral calculation        ...        1.240 sec (=   0.021 min)   0.1 %
SCF iterations                  ...      535.904 sec (=   8.932 min)  44.2 %
SCF Gradient evaluation         ...      133.378 sec (=   2.223 min)  11.0 %
Geometry relaxation             ...        0.213 sec (=   0.004 min)   0.0 %
Analytical frequency calculation...      542.772 sec (=   9.046 min)  44.7 %
                             ****ORCA TERMINATED NORMALLY****
TOTAL RUN TIME: 0 days 0 hours 20 minutes 14 seconds 243 msec
