
                                 *****************
                                 * O   R   C   A *
                                 *****************

                                            #,                                       
                                            ###                                      
                                            ####                                     
                                            #####                                    
                                            ######                                   
                                           ########,                                 
                                     ,,################,,,,,                         
                               ,,#################################,,                 
                          ,,##########################################,,             
                       ,#########################################, ''#####,          
                    ,#############################################,,   '####,        
                  ,##################################################,,,,####,       
                ,###########''''           ''''###############################       
              ,#####''   ,,,,##########,,,,          '''####'''          '####       
            ,##' ,,,,###########################,,,                        '##       
           ' ,,###''''                  '''############,,,                           
         ,,##''                                '''############,,,,        ,,,,,,###''
      ,#''                                            '''#######################'''  
     '                                                          ''''####''''         
             ,#######,   #######,   ,#######,      ##                                
            ,#'     '#,  ##    ##  ,#'     '#,    #''#        ######   ,####,        
            ##       ##  ##   ,#'  ##            #'  '#       #        #'  '#        
            ##       ##  #######   ##           ,######,      #####,   #    #        
            '#,     ,#'  ##    ##  '#,     ,#' ,#      #,         ##   #,  ,#        
             '#######'   ##     ##  '#######'  #'      '#     #####' # '####'        



                  #######################################################
                  #                        -***-                        #
                  #          Department of theory and spectroscopy      #
                  #    Directorship and core code : Frank Neese         #
                  #        Max Planck Institute fuer Kohlenforschung    #
                  #                Kaiser Wilhelm Platz 1               #
                  #                 D-45470 Muelheim/Ruhr               #
                  #                      Germany                        #
                  #                                                     #
                  #                  All rights reserved                #
                  #                        -***-                        #
                  #######################################################


                         Program Version 5.0.4 -  RELEASE  -


 With contributions from (in alphabetic order):
   Daniel Aravena         : Magnetic Suceptibility
   Michael Atanasov       : Ab Initio Ligand Field Theory (pilot matlab implementation)
   Alexander A. Auer      : GIAO ZORA, VPT2 properties, NMR spectrum
   Ute Becker             : Parallelization
   Giovanni Bistoni       : ED, misc. LED, open-shell LED, HFLD
   Martin Brehm           : Molecular dynamics
   Dmytro Bykov           : SCF Hessian
   Vijay G. Chilkuri      : MRCI spin determinant printing, contributions to CSF-ICE
   Dipayan Datta          : RHF DLPNO-CCSD density
   Achintya Kumar Dutta   : EOM-CC, STEOM-CC
   Dmitry Ganyushin       : Spin-Orbit,Spin-Spin,Magnetic field MRCI
   Miquel Garcia          : C-PCM and meta-GGA Hessian, CC/C-PCM, Gaussian charge scheme
   Yang Guo               : DLPNO-NEVPT2, F12-NEVPT2, CIM, IAO-localization
   Andreas Hansen         : Spin unrestricted coupled pair/coupled cluster methods
   Benjamin Helmich-Paris : MC-RPA, TRAH-SCF, COSX integrals
   Lee Huntington         : MR-EOM, pCC
   Robert Izsak           : Overlap fitted RIJCOSX, COSX-SCS-MP3, EOM
   Marcus Kettner         : VPT2
   Christian Kollmar      : KDIIS, OOCD, Brueckner-CCSD(T), CCSD density, CASPT2, CASPT2-K
   Simone Kossmann        : Meta GGA functionals, TD-DFT gradient, OOMP2, MP2 Hessian
   Martin Krupicka        : Initial AUTO-CI
   Lucas Lang             : DCDCAS
   Marvin Lechner         : AUTO-CI (C++ implementation), FIC-MRCC
   Dagmar Lenk            : GEPOL surface, SMD
   Dimitrios Liakos       : Extrapolation schemes; Compound Job, initial MDCI parallelization
   Dimitrios Manganas     : Further ROCIS development; embedding schemes
   Dimitrios Pantazis     : SARC Basis sets
   Anastasios Papadopoulos: AUTO-CI, single reference methods and gradients
   Taras Petrenko         : DFT Hessian,TD-DFT gradient, ASA, ECA, R-Raman, ABS, FL, XAS/XES, NRVS
   Peter Pinski           : DLPNO-MP2, DLPNO-MP2 Gradient
   Christoph Reimann      : Effective Core Potentials
   Marius Retegan         : Local ZFS, SOC
   Christoph Riplinger    : Optimizer, TS searches, QM/MM, DLPNO-CCSD(T), (RO)-DLPNO pert. Triples
   Tobias Risthaus        : Range-separated hybrids, TD-DFT gradient, RPA, STAB
   Michael Roemelt        : Original ROCIS implementation
   Masaaki Saitow         : Open-shell DLPNO-CCSD energy and density
   Barbara Sandhoefer     : DKH picture change effects
   Avijit Sen             : IP-ROCIS
   Kantharuban Sivalingam : CASSCF convergence, NEVPT2, FIC-MRCI
   Bernardo de Souza      : ESD, SOC TD-DFT
   Georgi Stoychev        : AutoAux, RI-MP2 NMR, DLPNO-MP2 response
   Willem Van den Heuvel  : Paramagnetic NMR
   Boris Wezisla          : Elementary symmetry handling
   Frank Wennmohs         : Technical directorship


 We gratefully acknowledge several colleagues who have allowed us to
 interface, adapt or use parts of their codes:
   Stefan Grimme, W. Hujo, H. Kruse, P. Pracht,  : VdW corrections, initial TS optimization,
                  C. Bannwarth, S. Ehlert          DFT functionals, gCP, sTDA/sTD-DF
   Ed Valeev, F. Pavosevic, A. Kumar             : LibInt (2-el integral package), F12 methods
   Garnet Chan, S. Sharma, J. Yang, R. Olivares  : DMRG
   Ulf Ekstrom                                   : XCFun DFT Library
   Mihaly Kallay                                 : mrcc  (arbitrary order and MRCC methods)
   Jiri Pittner, Ondrej Demel                    : Mk-CCSD
   Frank Weinhold                                : gennbo (NPA and NBO analysis)
   Christopher J. Cramer and Donald G. Truhlar   : smd solvation model
   Lars Goerigk                                  : TD-DFT with DH, B97 family of functionals
   V. Asgeirsson, H. Jonsson                     : NEB implementation
   FAccTs GmbH                                   : IRC, NEB, NEB-TS, DLPNO-Multilevel, CI-OPT
                                                   MM, QMMM, 2- and 3-layer-ONIOM, Crystal-QMMM,
                                                   LR-CPCM, SF, NACMEs, symmetry and pop. for TD-DFT,
                                                   nearIR, NL-DFT gradient (VV10), updates on ESD,
                                                   ML-optimized integration grids
   S Lehtola, MJT Oliveira, MAL Marques          : LibXC Library
   Liviu Ungur et al                             : ANISO software


 Your calculation uses the libint2 library for the computation of 2-el integrals
 For citations please refer to: http://libint.valeyev.net

 Your ORCA version has been built with support for libXC version: 5.1.0
 For citations please refer to: https://tddft.org/programs/libxc/

 This ORCA versions uses:
   CBLAS   interface :  Fast vector & matrix operations
   LAPACKE interface :  Fast linear algebra routines
   SCALAPACK package :  Parallel linear algebra routines
   Shared memory     :  Shared parallel matrices
   BLAS/LAPACK       :  OpenBLAS 0.3.15  USE64BITINT DYNAMIC_ARCH NO_AFFINITY SkylakeX SINGLE_THREADED
        Core in use  :  SkylakeX
   Copyright (c) 2011-2014, The OpenBLAS Project




***************************************
The coordinates will be read from file: 9_prot_aq_2.xyz
***************************************


Your calculation utilizes the atom-pairwise dispersion correction
based on tight binding partial charges (D4)
Cite in your paper:
E.Caldeweyher, C.Bannwarth, S.Grimme, J.Chem.Phys., (2017), 147, 034112.
E.Caldeweyher, S.Ehlert, A.Hansen, H.Neugebauer, S.Grimme, J.Chem.Phys., (2018), in progress.
   

XCFun DFT library Copyright 2009-2010 Ulf Ekstrom and contributors.
See http://admol.org/xcfun for more information.
This is free software; see the source code for copying conditions.
There is ABSOLUTELY NO WARRANTY; not even for MERCHANTABILITY or FITNESS FOR A PARTICULAR PURPOSE.
For details see the documentation.
Scientific users of this library should cite U. Ekstrom, L. Visscher, R. Bast, A. J. Thorvaldsen and K. Ruud;
J.Chem.Theor.Comp. 2010, DOI: 10.1021/ct100117s
XCFun Version 0.99 

================================================================================

----- Orbital basis set information -----
Your calculation utilizes the basis: def2-SVP
   F. Weigend and R. Ahlrichs, Phys. Chem. Chem. Phys. 7, 3297 (2005).

----- AuxJ basis set information -----
Your calculation utilizes the auxiliary basis: def2/J
   F. Weigend, Phys. Chem. Chem. Phys. 8, 1057 (2006).

================================================================================
                                        WARNINGS
                       Please study these warnings very carefully!
================================================================================


WARNING: Geometry Optimization
  ===> : Switching off AutoStart
         For restart on a previous wavefunction, please use MOREAD

INFO   : the flag for use of the SHARK integral package has been found!

================================================================================
                                       INPUT FILE
================================================================================
NAME = 9_prot_aq_2.inp
|  1> # ORCA 5.0.4 - /users/bwb16179/postgrad/2024_03/DFT_Crest_Conformers/Opt/prot/9_prot_aq_2.inp # write input file
|  2> # Basic Mode
|  3> #
|  4> ! Opt Freq wB97X Def2-SVP D4 SlowConv TightSCF Defgrid2 Def2/J RIJCOSX CPCM(Water)
|  5> 
|  6> 
|  7> 
|  8> %maxcore 4500
|  9> 
| 10> %geom
| 11> Maxiter 150
| 12> END
| 13> 
| 14> * xyzfile 1 1 9_prot_aq_2.xyz
| 15> 
| 16>                          ****END OF INPUT****
================================================================================

                       *****************************
                       * Geometry Optimization Run *
                       *****************************

Geometry optimization settings:
Update method            Update   .... BFGS
Choice of coordinates    CoordSys .... Z-matrix Internals
Initial Hessian          InHess   .... Almoef's Model

Convergence Tolerances:
Energy Change            TolE     ....  5.0000e-06 Eh
Max. Gradient            TolMAXG  ....  3.0000e-04 Eh/bohr
RMS Gradient             TolRMSG  ....  1.0000e-04 Eh/bohr
Max. Displacement        TolMAXD  ....  4.0000e-03 bohr
RMS Displacement         TolRMSD  ....  2.0000e-03 bohr
Strict Convergence                ....  False
------------------------------------------------------------------------------
                        ORCA OPTIMIZATION COORDINATE SETUP
------------------------------------------------------------------------------

The optimization will be done in new redundant internal coordinates
Making redundant internal coordinates   ...  (new redundants) done
Evaluating the initial hessian          ...  (Almloef) done
Evaluating the coordinates              ...  done
Calculating the B-matrix                .... done
Calculating the G-matrix                .... done
Diagonalizing the G-matrix              .... done
The first mode is                       ....   44
The number of degrees of freedom        ....   48

    -----------------------------------------------------------------
                    Redundant Internal Coordinates


    -----------------------------------------------------------------
         Definition                    Initial Value    Approx d2E/dq
    -----------------------------------------------------------------
      1. B(C   1,N   0)                  1.3083         0.755561   
      2. B(N   2,C   1)                  1.3095         0.752029   
      3. B(H   3,C   1)                  1.0782         0.375985   
      4. B(C   4,N   2)                  1.4593         0.433844   
      5. B(C   5,C   4)                  1.5398         0.360356   
      6. B(C   5,N   0)                  1.4591         0.434062   
      7. B(C   6,N   0)                  1.4336         0.476793   
      8. B(C   7,N   2)                  1.4394         0.466696   
      9. B(H   8,C   6)                  1.0916         0.358050   
     10. B(H   9,C   6)                  1.0916         0.358013   
     11. B(H  10,C   6)                  1.0872         0.363884   
     12. B(H  11,C   7)                  1.0869         0.364288   
     13. B(H  12,C   7)                  1.0909         0.358899   
     14. B(H  13,C   7)                  1.0907         0.359147   
     15. B(H  14,C   4)                  1.0931         0.356052   
     16. B(H  15,C   4)                  1.0931         0.356084   
     17. B(H  16,C   5)                  1.0931         0.356010   
     18. B(H  17,C   5)                  1.0931         0.355986   
     19. A(C   1,N   0,C   5)          110.1087         0.416429   
     20. A(C   1,N   0,C   6)          128.2143         0.423462   
     21. A(C   5,N   0,C   6)          121.6769         0.384028   
     22. A(N   2,C   1,H   3)          122.9063         0.365112   
     23. A(N   0,C   1,H   3)          123.1841         0.365405   
     24. A(N   0,C   1,N   2)          113.9097         0.459800   
     25. A(C   1,N   2,C   7)          127.0123         0.421493   
     26. A(C   1,N   2,C   4)          110.0602         0.416044   
     27. A(C   4,N   2,C   7)          122.9271         0.382569   
     28. A(C   5,C   4,H  14)          112.6666         0.321811   
     29. A(N   2,C   4,H  15)          110.0244         0.329806   
     30. A(N   2,C   4,H  14)          110.0300         0.329801   
     31. A(N   2,C   4,C   5)          102.9644         0.368177   
     32. A(H  14,C   4,H  15)          108.3906         0.289813   
     33. A(C   5,C   4,H  15)          112.6692         0.321816   
     34. A(N   0,C   5,C   4)          102.9569         0.368209   
     35. A(N   0,C   5,H  17)          109.9897         0.329819   
     36. A(H  16,C   5,H  17)          108.2228         0.289795   
     37. A(C   4,C   5,H  16)          112.7968         0.321805   
     38. A(C   4,C   5,H  17)          112.7882         0.321802   
     39. A(N   0,C   5,H  16)          109.9957         0.329822   
     40. A(N   0,C   6,H  10)          110.1259         0.336216   
     41. A(H   8,C   6,H   9)          108.3202         0.290314   
     42. A(N   0,C   6,H   9)          110.1162         0.335308   
     43. A(N   0,C   6,H   8)          110.0978         0.335313   
     44. A(H   9,C   6,H  10)          109.0717         0.291052   
     45. A(H   8,C   6,H  10)          109.0715         0.291056   
     46. A(H  12,C   7,H  13)          108.7040         0.290566   
     47. A(H  11,C   7,H  13)          108.6882         0.291247   
     48. A(N   2,C   7,H  13)          110.7958         0.334293   
     49. A(H  11,C   7,H  12)          108.6747         0.291215   
     50. A(N   2,C   7,H  12)          110.8323         0.334255   
     51. A(N   2,C   7,H  11)          109.0928         0.335083   
     52. D(H   3,C   1,N   0,C   5)    179.9809         0.048019   
     53. D(N   2,C   1,N   0,C   6)   -179.9218         0.048019   
     54. D(N   2,C   1,N   0,C   5)      0.0004         0.048019   
     55. D(H   3,C   1,N   0,C   6)      0.0587         0.048019   
     56. D(C   7,N   2,C   1,H   3)      0.2102         0.047521   
     57. D(C   4,N   2,C   1,N   0)     -0.0594         0.047521   
     58. D(C   4,N   2,C   1,H   3)    179.9600         0.047521   
     59. D(C   7,N   2,C   1,N   0)   -179.8093         0.047521   
     60. D(H  14,C   4,N   2,C   7)     59.5288         0.016048   
     61. D(H  14,C   4,N   2,C   1)   -120.2333         0.016048   
     62. D(H  15,C   4,N   2,C   1)    120.4080         0.016048   
     63. D(C   5,C   4,N   2,C   7)    179.8492         0.016048   
     64. D(C   5,C   4,N   2,C   1)      0.0872         0.016048   
     65. D(H  15,C   4,N   2,C   7)    -59.8300         0.016048   
     66. D(C   4,C   5,N   0,C   1)      0.0537         0.016064   
     67. D(H  17,C   5,C   4,H  15)     -0.0686         0.010417   
     68. D(H  17,C   5,C   4,H  14)   -123.0904         0.010417   
     69. D(H  16,C   5,C   4,H  15)    122.9222         0.010417   
     70. D(H  16,C   5,C   4,H  14)     -0.0996         0.010417   
     71. D(H  16,C   5,C   4,N   2)   -118.5914         0.010417   
     72. D(N   0,C   5,C   4,H  15)   -118.5675         0.010417   
     73. D(N   0,C   5,C   4,H  14)    118.4107         0.010417   
     74. D(N   0,C   5,C   4,N   2)     -0.0811         0.010417   
     75. D(H  17,C   5,N   0,C   6)     59.5429         0.016064   
     76. D(H  17,C   5,N   0,C   1)   -120.3852         0.016064   
     77. D(H  17,C   5,C   4,N   2)    118.4178         0.010417   
     78. D(H  16,C   5,N   0,C   6)    -59.5663         0.016064   
     79. D(H  16,C   5,N   0,C   1)    120.5056         0.016064   
     80. D(C   4,C   5,N   0,C   6)    179.9818         0.016064   
     81. D(H   8,C   6,N   0,C   5)     59.5507         0.019437   
     82. D(H   8,C   6,N   0,C   1)   -120.5352         0.019437   
     83. D(H  10,C   6,N   0,C   5)    179.8589         0.019437   
     84. D(H  10,C   6,N   0,C   1)     -0.2270         0.019437   
     85. D(H   9,C   6,N   0,C   5)    -59.8210         0.019437   
     86. D(H   9,C   6,N   0,C   1)    120.0931         0.019437   
     87. D(H  13,C   7,N   2,C   4)    120.9308         0.018603   
     88. D(H  13,C   7,N   2,C   1)    -59.3492         0.018603   
     89. D(H  12,C   7,N   2,C   4)   -118.3033         0.018603   
     90. D(H  12,C   7,N   2,C   1)     61.4167         0.018603   
     91. D(H  11,C   7,N   2,C   4)      1.3166         0.018603   
     92. D(H  11,C   7,N   2,C   1)   -178.9633         0.018603   
    -----------------------------------------------------------------

Number of atoms                         .... 18
Number of degrees of freedom            .... 92

         *************************************************************
         *                GEOMETRY OPTIMIZATION CYCLE   1            *
         *************************************************************
---------------------------------
CARTESIAN COORDINATES (ANGSTROEM)
---------------------------------
  N     -1.095628   -0.169942   -0.000438
  C      0.003569   -0.879404    0.000512
  N      1.098716   -0.161377    0.001556
  H      0.010050   -1.957634    0.000751
  C      0.765724    1.259409   -0.000071
  C     -0.774070    1.253335   -0.000057
  C     -2.451554   -0.635393   -0.000163
  C      2.453569   -0.647468   -0.001073
  H     -2.975265   -0.265529   -0.883575
  H     -2.973650   -0.270231    0.886191
  H     -2.473944   -1.722314   -0.003038
  H      3.134997    0.198988    0.019299
  H      2.653185   -1.235080   -0.898262
  H      2.643323   -1.270033    0.874187
  H      1.185057    1.741210   -0.887114
  H      1.185101    1.743139    0.885870
  H     -1.199514    1.732902   -0.885440
  H     -1.199352    1.732287    0.885758

----------------------------
CARTESIAN COORDINATES (A.U.)
----------------------------
  NO LB      ZA    FRAG     MASS         X           Y           Z
   0 N     7.0000    0    14.007   -2.070436   -0.321143   -0.000827
   1 C     6.0000    0    12.011    0.006745   -1.661833    0.000967
   2 N     7.0000    0    14.007    2.076272   -0.304958    0.002940
   3 H     1.0000    0     1.008    0.018991   -3.699392    0.001419
   4 C     6.0000    0    12.011    1.447009    2.379937   -0.000134
   5 C     6.0000    0    12.011   -1.462780    2.368461   -0.000108
   6 C     6.0000    0    12.011   -4.632765   -1.200720   -0.000309
   7 C     6.0000    0    12.011    4.636574   -1.223538   -0.002027
   8 H     1.0000    0     1.008   -5.622437   -0.501777   -1.669715
   9 H     1.0000    0     1.008   -5.619383   -0.510663    1.674659
  10 H     1.0000    0     1.008   -4.675076   -3.254701   -0.005742
  11 H     1.0000    0     1.008    5.924286    0.376034    0.036470
  12 H     1.0000    0     1.008    5.013793   -2.333963   -1.697469
  13 H     1.0000    0     1.008    4.995157   -2.400014    1.651974
  14 H     1.0000    0     1.008    2.239433    3.290409   -1.676403
  15 H     1.0000    0     1.008    2.239517    3.294055    1.674052
  16 H     1.0000    0     1.008   -2.266753    3.274709   -1.673238
  17 H     1.0000    0     1.008   -2.266446    3.273548    1.673840

--------------------------------
INTERNAL COORDINATES (ANGSTROEM)
--------------------------------
 N      0   0   0     0.000000000000     0.00000000     0.00000000
 C      1   0   0     1.308270593805     0.00000000     0.00000000
 N      2   1   0     1.309545888810   113.90965763     0.00000000
 H      2   1   3     1.078249211130   123.18406098   179.98047909
 C      3   2   1     1.459286218080   110.06017106   359.94056376
 C      1   2   3     1.459149344512   110.10872038     0.00000000
 C      1   2   3     1.433590352226   128.21434960   180.07823878
 C      3   2   1     1.439416676479   127.01227295   180.19071127
 H      7   1   2     1.091554053567   110.09784364   239.46483155
 H      7   1   2     1.091582134343   110.11615964   120.09314178
 H      7   1   2     1.087154559589   110.12592152   359.77302355
 H      8   3   2     1.086852395763   109.09283776   181.03667382
 H      8   3   2     1.090909055359   110.83227212    61.41671435
 H      8   3   2     1.090721124376   110.79582077   300.65083149
 H      5   3   2     1.093077308591   110.02996925   239.76674373
 H      5   3   2     1.093052690049   110.02439910   120.40795619
 H      6   1   2     1.093109329083   109.99572915   120.50559521
 H      6   1   2     1.093127578777   109.98971096   239.61479367

---------------------------
INTERNAL COORDINATES (A.U.)
---------------------------
 N      0   0   0     0.000000000000     0.00000000     0.00000000
 C      1   0   0     2.472273131354     0.00000000     0.00000000
 N      2   1   0     2.474683089653   113.90965763     0.00000000
 H      2   1   3     2.037595713152   123.18406098   179.98047909
 C      3   2   1     2.757651303177   110.06017106   359.94056376
 C      1   2   3     2.757392649618   110.10872038     0.00000000
 C      1   2   3     2.709093153940   128.21434960   180.07823878
 C      3   2   1     2.720103311144   127.01227295   180.19071127
 H      7   1   2     2.062738221612   110.09784364   239.46483155
 H      7   1   2     2.062791286590   110.11615964   120.09314178
 H      7   1   2     2.054424382866   110.12592152   359.77302355
 H      8   3   2     2.053853375988   109.09283776   181.03667382
 H      8   3   2     2.061519351644   110.83227212    61.41671435
 H      8   3   2     2.061164213554   110.79582077   300.65083149
 H      5   3   2     2.065616756441   110.02996925   239.76674373
 H      5   3   2     2.065570234139   110.02439910   120.40795619
 H      6   1   2     2.065677266402   109.99572915   120.50559521
 H      6   1   2     2.065711753325   109.98971096   239.61479367

---------------------
BASIS SET INFORMATION
---------------------
There are 3 groups of distinct atoms

 Group   1 Type N   : 7s4p1d contracted to 3s2p1d pattern {511/31/1}
 Group   2 Type C   : 7s4p1d contracted to 3s2p1d pattern {511/31/1}
 Group   3 Type H   : 4s1p contracted to 2s1p pattern {31/1}

Atom   0N    basis set group =>   1
Atom   1C    basis set group =>   2
Atom   2N    basis set group =>   1
Atom   3H    basis set group =>   3
Atom   4C    basis set group =>   2
Atom   5C    basis set group =>   2
Atom   6C    basis set group =>   2
Atom   7C    basis set group =>   2
Atom   8H    basis set group =>   3
Atom   9H    basis set group =>   3
Atom  10H    basis set group =>   3
Atom  11H    basis set group =>   3
Atom  12H    basis set group =>   3
Atom  13H    basis set group =>   3
Atom  14H    basis set group =>   3
Atom  15H    basis set group =>   3
Atom  16H    basis set group =>   3
Atom  17H    basis set group =>   3
---------------------------------
AUXILIARY/J BASIS SET INFORMATION
---------------------------------
There are 3 groups of distinct atoms

 Group   1 Type N   : 12s5p4d2f1g contracted to 6s4p3d1f1g pattern {711111/2111/211/2/1}
 Group   2 Type C   : 12s5p4d2f1g contracted to 6s4p3d1f1g pattern {711111/2111/211/2/1}
 Group   3 Type H   : 5s2p1d contracted to 3s1p1d pattern {311/2/1}

Atom   0N    basis set group =>   1
Atom   1C    basis set group =>   2
Atom   2N    basis set group =>   1
Atom   3H    basis set group =>   3
Atom   4C    basis set group =>   2
Atom   5C    basis set group =>   2
Atom   6C    basis set group =>   2
Atom   7C    basis set group =>   2
Atom   8H    basis set group =>   3
Atom   9H    basis set group =>   3
Atom  10H    basis set group =>   3
Atom  11H    basis set group =>   3
Atom  12H    basis set group =>   3
Atom  13H    basis set group =>   3
Atom  14H    basis set group =>   3
Atom  15H    basis set group =>   3
Atom  16H    basis set group =>   3
Atom  17H    basis set group =>   3
------------------------------------------------------------------------------
                           ORCA GTO INTEGRAL CALCULATION
                           -- RI-GTO INTEGRALS CHOSEN --
------------------------------------------------------------------------------
------------------------------------------------------------------------------
                   ___                                                        
                  /   \      - P O W E R E D   B Y -                         
                 /     \                                                     
                 |  |  |   _    _      __       _____    __    __             
                 |  |  |  | |  | |    /  \     |  _  \  |  |  /  |          
                  \  \/   | |  | |   /    \    | | | |  |  | /  /          
                 / \  \   | |__| |  /  /\  \   | |_| |  |  |/  /          
                |  |  |   |  __  | /  /__\  \  |    /   |      \           
                |  |  |   | |  | | |   __   |  |    \   |  |\   \          
                \     /   | |  | | |  |  |  |  | |\  \  |  | \   \       
                 \___/    |_|  |_| |__|  |__|  |_| \__\ |__|  \__/        
                                                                              
                      - O R C A' S   B I G   F R I E N D -                    
                                      &                                       
                       - I N T E G R A L  F E E D E R -                       
                                                                              
 v1 FN, 2020, v2 2021                                                         
------------------------------------------------------------------------------


Reading SHARK input file 9_prot_aq_2.SHARKINP.tmp ... ok
----------------------
SHARK INTEGRAL PACKAGE
----------------------

Number of atoms                             ...     18
Number of basis functions                   ...    153
Number of shells                            ...     75
Maximum angular momentum                    ...      2
Integral batch strategy                     ... SHARK/LIBINT Hybrid
RI-J (if used) integral strategy            ... SPLIT-RIJ (Revised 2003 algorithm where possible)
Printlevel                                  ...      1
Contraction scheme used                     ... SEGMENTED contraction
Coulomb Range Separation                    ... NOT USED
Exchange Range Separation                   ... Long Range
   Mu parameter                             ...  0.300000
   Scaling (regular/separated)              ...  0.157706  0.842294
Finite Nucleus Model                        ... NOT USED
Auxiliary Coulomb fitting basis             ... AVAILABLE
   # of basis functions in Aux-J            ...    464
   # of shells in Aux-J                     ...    160
   Maximum angular momentum in Aux-J        ...      4
Auxiliary J/K fitting basis                 ... NOT available
Auxiliary Correlation fitting basis         ... NOT available
Auxiliary 'external' fitting basis          ... NOT available
Integral threshold                          ...     2.500000e-11
Primitive cut-off                           ...     2.500000e-12
Primitive pair pre-selection threshold      ...     2.500000e-12

Calculating pre-screening integrals         ... done (  0.0 sec) Dimension = 75
Organizing shell pair data                  ... done (  0.0 sec)
Shell pair information
Total number of shell pairs                 ...      2850
Shell pairs after pre-screening             ...      2726
Total number of primitive shell pairs       ...      9854
Primitive shell pairs kept                  ...      7135
          la=0 lb=0:    909 shell pairs
          la=1 lb=0:   1032 shell pairs
          la=1 lb=1:    301 shell pairs
          la=2 lb=0:    288 shell pairs
          la=2 lb=1:    169 shell pairs
          la=2 lb=2:     27 shell pairs

Calculating one electron integrals          ... done (  0.0 sec)
Calculating RI/J V-Matrix + Cholesky decomp.... done (  0.0 sec)
Calculating Nuclear repulsion               ... done (  0.0 sec) ENN=    327.007915778617 Eh

SHARK setup successfully completed in   0.2 seconds

Maximum memory used throughout the entire GTOINT-calculation: 19.4 MB
-------------------------------------------------------------------------------
                                 ORCA SCF
-------------------------------------------------------------------------------

------------
SCF SETTINGS
------------
Hamiltonian:
 Density Functional     Method          .... DFT(GTOs)
 Exchange Functional    Exchange        .... WB97X
 Correlation Functional Correlation     .... WB97X
 Gradients option       PostSCFGGA      .... off
 Hybrid DFT is turned on
   Fraction HF Exchange ScalHFX         ....  0.157706
   Scaling of DF-GGA-X  ScalDFX         ....  0.000000
   Scaling of DF-GGA-C  ScalDFC         ....  1.000000
   Scaling of DF-LDA-C  ScalLDAC        ....  1.000000
   Perturbative correction              ....  0.000000
   Density functional embedding theory  .... OFF
 Long-range corrected/Screened/Range-Separated Hybrid DFT is turned on
   Amount of maximum screened exact exchange              ....  0.842294
   Range separation parameter mu (erf(mu*r12)/r12)        ....  0.300000
 RI-approximation to the Coulomb term is turned on
   Number of AuxJ basis functions       .... 464
   RIJ-COSX (HFX calculated with COS-X)).... on


General Settings:
 Integral files         IntName         .... 9_prot_aq_2
 Hartree-Fock type      HFTyp           .... RHF
 Total Charge           Charge          ....    1
 Multiplicity           Mult            ....    1
 Number of Electrons    NEL             ....   54
 Basis Dimension        Dim             ....  153
 Nuclear Repulsion      ENuc            ....    327.0079157786 Eh

Convergence Acceleration:
 DIIS                   CNVDIIS         .... on
   Start iteration      DIISMaxIt       ....     0
   Startup error        DIISStart       ....  0.200000
   # of expansion vecs  DIISMaxEq       ....     5
   Bias factor          DIISBfac        ....   1.050
   Max. coefficient     DIISMaxC        ....  10.000
 Trust-Rad. Augm. Hess. CNVTRAH         .... auto
   Auto Start mean grad. ratio tolernc. ....  1.125000
   Auto Start start iteration           ....    20
   Auto Start num. interpolation iter.  ....    10
   Max. Number of Micro iterations      ....    16
   Max. Number of Macro iterations      .... Maxiter - #DIIS iter
   Number of Davidson start vectors     ....     2
   Converg. threshold I  (grad. norm)   ....   1.000e-05
   Converg. threshold II (energy diff.) ....   1.000e-08
   Grad. Scal. Fac. for Micro threshold ....   0.100
   Minimum threshold for Micro iter.    ....   0.010
   NR start threshold (gradient norm)   ....   0.001
   Initial trust radius                 ....   0.400
   Minimum AH scaling param. (alpha)    ....   1.000
   Maximum AH scaling param. (alpha)    .... 1000.000
   Orbital update algorithm             .... Taylor
   White noise on init. David. guess    .... on
   Maximum white noise                  ....   0.010
   Quad. conv. algorithm                .... NR
 SOSCF                  CNVSOSCF        .... on
   Start iteration      SOSCFMaxIt      ....   150
   Startup grad/error   SOSCFStart      ....  0.001000
 Level Shifting         CNVShift        .... on
   Level shift para.    LevelShift      ....    0.2500
   Turn off err/grad.   ShiftErr        ....    0.0000
 Zerner damping         CNVZerner       .... off
 Static damping         CNVDamp         .... on
   Fraction old density DampFac         ....    0.8500
   Max. Damping (<1)    DampMax         ....    0.9800
   Min. Damping (>=0)   DampMin         ....    0.0000
   Turn off err/grad.   DampErr         ....    0.0300
 Fernandez-Rico         CNVRico         .... off

SCF Procedure:
 Maximum # iterations   MaxIter         ....   125
 SCF integral mode      SCFMode         .... Direct
   Integral package                     .... SHARK and LIBINT hybrid scheme
 Reset frequency        DirectResetFreq ....    20
 Integral Threshold     Thresh          ....  2.500e-11 Eh
 Primitive CutOff       TCut            ....  2.500e-12 Eh

Convergence Tolerance:
 Convergence Check Mode ConvCheckMode   .... Total+1el-Energy
 Convergence forced     ConvForced      .... 0
 Energy Change          TolE            ....  1.000e-08 Eh
 1-El. energy change                    ....  1.000e-05 Eh
 Orbital Gradient       TolG            ....  1.000e-05
 Orbital Rotation angle TolX            ....  1.000e-05
 DIIS Error             TolErr          ....  5.000e-07


Diagonalization of the overlap matrix:
Smallest eigenvalue                        ... 1.623e-03
Time for diagonalization                   ...    0.004 sec
Threshold for overlap eigenvalues          ... 1.000e-08
Number of eigenvalues below threshold      ... 0
Time for construction of square roots      ...    0.002 sec
Total time needed                          ...    0.006 sec

Time for model grid setup =    0.204 sec

------------------------------
INITIAL GUESS: MODEL POTENTIAL
------------------------------
Loading Hartree-Fock densities                     ... done
Calculating cut-offs                               ... done
Initializing the effective Hamiltonian             ... done
Setting up the integral package (SHARK)            ... done
Starting the Coulomb interaction                   ... done (   0.2 sec)
Reading the grid                                   ... done
Mapping shells                                     ... done
Starting the XC term evaluation                    ... done (   0.3 sec)
  promolecular density results
     # of electrons  =     54.995071406
     EX              =    -41.990789577
     EC              =     -1.824819897
     EX+EC           =    -43.815609474
Transforming the Hamiltonian                       ... done (   0.0 sec)
Diagonalizing the Hamiltonian                      ... done (   0.0 sec)
Back transforming the eigenvectors                 ... done (   0.0 sec)
Now organizing SCF variables                       ... done
                      ------------------
                      INITIAL GUESS DONE (   0.6 sec)
                      ------------------
-------------------
DFT GRID GENERATION
-------------------

General Integration Accuracy     IntAcc      ... 4.388
Radial Grid Type                 RadialGrid  ... OptM3 with GC (2021)
Angular Grid (max. ang.)         AngularGrid ... 4 (Lebedev-302)
Angular grid pruning method      GridPruning ... 4 (adaptive)
Weight generation scheme         WeightScheme... Becke
Basis function cutoff            BFCut       ... 1.0000e-11
Integration weight cutoff        WCut        ... 1.0000e-14
Angular grids for H and He will be reduced by one unit
Partially contracted basis set               ... off
Rotationally invariant grid construction     ... off

Total number of grid points                  ...    77364
Total number of batches                      ...     1217
Average number of points per batch           ...       63
Average number of grid points per atom       ...     4298
Time for grid setup =    0.826 sec

--------------------
COSX GRID GENERATION
--------------------

GRIDX 1
-------
General Integration Accuracy     IntAcc      ... 3.816
Radial Grid Type                 RadialGrid  ... OptM3 with GC (2021)
Angular Grid (max. ang.)         AngularGrid ... 1 (Lebedev-50)
Angular grid pruning method      GridPruning ... 4 (adaptive)
Weight generation scheme         WeightScheme... Becke
Basis function cutoff            BFCut       ... 1.0000e-11
Integration weight cutoff        WCut        ... 1.0000e-14
Angular grids for H and He will be reduced by one unit
Partially contracted basis set               ... on
Rotationally invariant grid construction     ... off

Total number of grid points                  ...     9936
Total number of batches                      ...      167
Average number of points per batch           ...       59
Average number of grid points per atom       ...      552
UseSFitting                                  ... on

GRIDX 2
-------
General Integration Accuracy     IntAcc      ... 4.020
Radial Grid Type                 RadialGrid  ... OptM3 with GC (2021)
Angular Grid (max. ang.)         AngularGrid ... 2 (Lebedev-110)
Angular grid pruning method      GridPruning ... 4 (adaptive)
Weight generation scheme         WeightScheme... Becke
Basis function cutoff            BFCut       ... 1.0000e-11
Integration weight cutoff        WCut        ... 1.0000e-14
Angular grids for H and He will be reduced by one unit
Partially contracted basis set               ... on
Rotationally invariant grid construction     ... off

Total number of grid points                  ...    20887
Total number of batches                      ...      335
Average number of points per batch           ...       62
Average number of grid points per atom       ...     1160
UseSFitting                                  ... on

GRIDX 3
-------
General Integration Accuracy     IntAcc      ... 4.338
Radial Grid Type                 RadialGrid  ... OptM3 with GC (2021)
Angular Grid (max. ang.)         AngularGrid ... 3 (Lebedev-194)
Angular grid pruning method      GridPruning ... 4 (adaptive)
Weight generation scheme         WeightScheme... Becke
Basis function cutoff            BFCut       ... 1.0000e-11
Integration weight cutoff        WCut        ... 1.0000e-14
Angular grids for H and He will be reduced by one unit
Partially contracted basis set               ... on
Rotationally invariant grid construction     ... off

Total number of grid points                  ...    45656
Total number of batches                      ...      723
Average number of points per batch           ...       63
Average number of grid points per atom       ...     2536
UseSFitting                                  ... on

Time for X-Grid setup             =    1.020 sec


--------------------
CPCM SOLVATION MODEL
--------------------
CPCM parameters:
  Epsilon                                         ...      80.4000
  Refrac                                          ...       1.3300
  Rsolv                                           ...       1.3000
  Surface type                                    ... GAUSSIAN VDW
  Epsilon function type                           ...         CPCM
Radii:
 Radius for N  used is    3.5149 Bohr (=   1.8600 Ang.)
 Radius for C  used is    3.8550 Bohr (=   2.0400 Ang.)
 Radius for H  used is    2.4944 Bohr (=   1.3200 Ang.)
Calculating surface                               ...        done! (  0.0s)
GEPOL surface points                              ...         1032
GEPOL Volume                                      ...     927.6734
GEPOL Surface-area                                ...     546.6896
Calculating surface distance matrix               ...        done! (  0.0s)
Performing Cholesky decomposition & store         ...        done! (  0.0s)
Overall time for CPCM initialization              ...                 0.0s
--------------
SCF ITERATIONS
--------------
ITER       Energy         Delta-E        Max-DP      RMS-DP      [F,P]     Damp
               ***  Starting incremental Fock matrix formation  ***
  0   -306.1300811137   0.000000000000 0.02372523  0.00066179  0.1117072 0.8500
  1   -306.1471189550  -0.017037841328 0.02161955  0.00060674  0.0908146 0.8500
                               ***Turning on DIIS***
  2   -306.1601566162  -0.013037661179 0.01714028  0.00049134  0.0705929 0.8500
  3   -306.1699678171  -0.009811200983 0.01119555  0.00035316  0.0542812 0.8500
  4   -306.1776185686  -0.007650751435 0.00771057  0.00027372  0.0435508 0.8500
  5   -306.1836910781  -0.006072509511 0.00593425  0.00022675  0.0361885 0.8500
  6   -306.1886551951  -0.004964117041 0.00485721  0.00019220  0.0305580 0.8500
  7   -306.1927804896  -0.004125294446 0.02787174  0.00110509  0.0259614 0.0000
                      *** Initiating the SOSCF procedure ***
                           *** Shutting down DIIS ***
                      *** Re-Reading the Fockian *** 
                      *** Removing any level shift *** 
ITER      Energy       Delta-E        Grad      Rot      Max-DP    RMS-DP
  8   -306.21496178  -0.0221812857  0.000680  0.000680  0.000965  0.000033
               *** Restarting incremental Fock matrix formation ***
  9   -306.21499662  -0.0000348464  0.000211  0.000375  0.000502  0.000020
 10   -306.21499801  -0.0000013900  0.000192  0.000458  0.000426  0.000011
 11   -306.21499831  -0.0000002996  0.000033  0.000067  0.000064  0.000003
 12   -306.21499835  -0.0000000360  0.000004  0.000007  0.000019  0.000000
 13   -306.21499835  -0.0000000050  0.000004  0.000009  0.000011  0.000000
                  ***Gradient check signals convergence***
              ***Rediagonalizing the Fockian in SOSCF/NRSCF***

               *****************************************************
               *                     SUCCESS                       *
               *           SCF CONVERGED AFTER  14 CYCLES          *
               *****************************************************

Old exchange energy                            =    -13.880845488 Eh
New exchange energy                            =    -13.880840267 Eh
Exchange energy change after final integration =      0.000005221 Eh
Total energy after final integration           =   -306.214993134 Eh
Final COS-X integration done in                =    20.751 sec

----------------
TOTAL SCF ENERGY
----------------

Total Energy       :         -306.21499313 Eh           -8332.53358 eV

Components:
Nuclear Repulsion  :          327.00791578 Eh            8898.33777 eV
Electronic Energy  :         -633.22290891 Eh          -17230.87135 eV
One Electron Energy:        -1048.71608631 Eh          -28537.01550 eV
Two Electron Energy:          415.49317739 Eh           11306.14415 eV
Max COSX asymmetry :            0.00000230 Eh               0.00006 eV
CPCM Dielectric    :           -0.08379658 Eh              -2.28022 eV

Virial components:
Potential Energy   :         -608.96567661 Eh          -16570.79850 eV
Kinetic Energy     :          302.75068348 Eh            8238.26492 eV
Virial Ratio       :            2.01144278


DFT components:
N(Alpha)           :       27.000003073701 electrons
N(Beta)            :       27.000003073701 electrons
N(Total)           :       54.000006147402 electrons
E(XC)              :      -30.880775914677 Eh       
DFET-embed. en.    :        0.000000000000 Eh       
CPCM Solvation Model Properties:
Surface-charge          :           -1.01337527
Charge-correction       :            0.00110601 Eh               0.03010 eV
Free-energy (cav+disp)  :  This term is not implemented in the current solvation scheme

---------------
SCF CONVERGENCE
---------------

  Last Energy change         ...   -3.2512e-09  Tolerance :   1.0000e-08
  Last MAX-Density change    ...    5.3291e-15  Tolerance :   1.0000e-07
  Last RMS-Density change    ...    5.6494e-17  Tolerance :   5.0000e-09
  Last Orbital Gradient      ...    8.5159e-07  Tolerance :   1.0000e-05
  Last Orbital Rotation      ...    6.0500e-07  Tolerance :   1.0000e-05

             **** THE GBW FILE WAS UPDATED (9_prot_aq_2.gbw) ****
             **** DENSITY 9_prot_aq_2.scfp WAS UPDATED ****
             **** ENERGY FILE WAS UPDATED (9_prot_aq_2.en.tmp) ****
             **** THE GBW FILE WAS UPDATED (9_prot_aq_2.gbw) ****
             **** DENSITY 9_prot_aq_2.scfp WAS UPDATED ****
----------------
ORBITAL ENERGIES
----------------

  NO   OCC          E(Eh)            E(eV) 
   0   2.0000     -14.481917      -394.0730 
   1   2.0000     -14.479678      -394.0121 
   2   2.0000     -10.396935      -282.9150 
   3   2.0000     -10.327944      -281.0376 
   4   2.0000     -10.327629      -281.0291 
   5   2.0000     -10.316601      -280.7290 
   6   2.0000     -10.315508      -280.6992 
   7   2.0000      -1.188249       -32.3339 
   8   2.0000      -1.078575       -29.3495 
   9   2.0000      -0.925193       -25.1758 
  10   2.0000      -0.899588       -24.4790 
  11   2.0000      -0.828259       -22.5381 
  12   2.0000      -0.785215       -21.3668 
  13   2.0000      -0.731172       -19.8962 
  14   2.0000      -0.669632       -18.2216 
  15   2.0000      -0.652593       -17.7580 
  16   2.0000      -0.612411       -16.6645 
  17   2.0000      -0.580307       -15.7909 
  18   2.0000      -0.574452       -15.6316 
  19   2.0000      -0.568057       -15.4576 
  20   2.0000      -0.552449       -15.0329 
  21   2.0000      -0.534568       -14.5463 
  22   2.0000      -0.509956       -13.8766 
  23   2.0000      -0.496393       -13.5075 
  24   2.0000      -0.494120       -13.4457 
  25   2.0000      -0.478302       -13.0153 
  26   2.0000      -0.348016        -9.4700 
  27   0.0000       0.057738         1.5711 
  28   0.0000       0.140924         3.8347 
  29   0.0000       0.158193         4.3046 
  30   0.0000       0.168954         4.5975 
  31   0.0000       0.190207         5.1758 
  32   0.0000       0.191678         5.2158 
  33   0.0000       0.205672         5.5966 
  34   0.0000       0.220045         5.9877 
  35   0.0000       0.226932         6.1751 
  36   0.0000       0.232608         6.3296 
  37   0.0000       0.245937         6.6923 
  38   0.0000       0.247276         6.7287 
  39   0.0000       0.259275         7.0552 
  40   0.0000       0.281710         7.6657 
  41   0.0000       0.282321         7.6824 
  42   0.0000       0.292406         7.9568 
  43   0.0000       0.345977         9.4145 
  44   0.0000       0.362541         9.8652 
  45   0.0000       0.408471        11.1151 
  46   0.0000       0.464384        12.6365 
  47   0.0000       0.476857        12.9759 
  48   0.0000       0.502193        13.6654 
  49   0.0000       0.526039        14.3143 
  50   0.0000       0.540839        14.7170 
  51   0.0000       0.565274        15.3819 
  52   0.0000       0.566828        15.4242 
  53   0.0000       0.585630        15.9358 
  54   0.0000       0.652506        17.7556 
  55   0.0000       0.657115        17.8810 
  56   0.0000       0.661723        18.0064 
  57   0.0000       0.673836        18.3360 
  58   0.0000       0.718440        19.5498 
  59   0.0000       0.730206        19.8699 
  60   0.0000       0.736527        20.0419 
  61   0.0000       0.744256        20.2522 
  62   0.0000       0.747467        20.3396 
  63   0.0000       0.756053        20.5732 
  64   0.0000       0.759319        20.6621 
  65   0.0000       0.768759        20.9190 
  66   0.0000       0.769943        20.9512 
  67   0.0000       0.777701        21.1623 
  68   0.0000       0.784374        21.3439 
  69   0.0000       0.786423        21.3997 
  70   0.0000       0.796075        21.6623 
  71   0.0000       0.803937        21.8762 
  72   0.0000       0.827248        22.5106 
  73   0.0000       0.835696        22.7404 
  74   0.0000       0.935512        25.4566 
  75   0.0000       0.937317        25.5057 
  76   0.0000       0.987884        26.8817 
  77   0.0000       1.020363        27.7655 
  78   0.0000       1.087725        29.5985 
  79   0.0000       1.103761        30.0349 
  80   0.0000       1.157588        31.4996 
  81   0.0000       1.222913        33.2771 
  82   0.0000       1.240586        33.7581 
  83   0.0000       1.302946        35.4550 
  84   0.0000       1.314706        35.7750 
  85   0.0000       1.337710        36.4009 
  86   0.0000       1.346713        36.6459 
  87   0.0000       1.433344        39.0033 
  88   0.0000       1.481925        40.3252 
  89   0.0000       1.525798        41.5191 
  90   0.0000       1.569589        42.7107 
  91   0.0000       1.590187        43.2712 
  92   0.0000       1.631147        44.3858 
  93   0.0000       1.635013        44.4910 
  94   0.0000       1.659084        45.1460 
  95   0.0000       1.690152        45.9914 
  96   0.0000       1.727512        47.0080 
  97   0.0000       1.775127        48.3037 
  98   0.0000       1.801095        49.0103 
  99   0.0000       1.841116        50.0993 
 100   0.0000       1.848316        50.2952 
 101   0.0000       1.849647        50.3314 
 102   0.0000       1.867802        50.8255 
 103   0.0000       1.881663        51.2027 
 104   0.0000       1.883385        51.2495 
 105   0.0000       1.884534        51.2808 
 106   0.0000       1.906825        51.8873 
 107   0.0000       1.928252        52.4704 
 108   0.0000       1.931599        52.5615 
 109   0.0000       1.951649        53.1071 
 110   0.0000       2.000462        54.4353 
 111   0.0000       2.011900        54.7466 
 112   0.0000       2.025513        55.1170 
 113   0.0000       2.052152        55.8419 
 114   0.0000       2.095450        57.0201 
 115   0.0000       2.108684        57.3802 
 116   0.0000       2.118295        57.6417 
 117   0.0000       2.154677        58.6317 
 118   0.0000       2.155814        58.6627 
 119   0.0000       2.185505        59.4706 
 120   0.0000       2.217536        60.3422 
 121   0.0000       2.329196        63.3807 
 122   0.0000       2.340341        63.6839 
 123   0.0000       2.361690        64.2649 
 124   0.0000       2.387942        64.9792 
 125   0.0000       2.430580        66.1394 
 126   0.0000       2.441471        66.4358 
 127   0.0000       2.478284        67.4375 
 128   0.0000       2.510154        68.3048 
 129   0.0000       2.546178        69.2850 
 130   0.0000       2.589372        70.4604 
 131   0.0000       2.603417        70.8426 
 132   0.0000       2.667019        72.5733 
 133   0.0000       2.696789        73.3834 
 134   0.0000       2.769561        75.3636 
 135   0.0000       2.784987        75.7834 
 136   0.0000       2.795566        76.0712 
 137   0.0000       2.820460        76.7486 
 138   0.0000       2.870060        78.0983 
 139   0.0000       2.906069        79.0782 
 140   0.0000       2.908175        79.1355 
 141   0.0000       2.942244        80.0625 
 142   0.0000       2.990624        81.3790 
 143   0.0000       3.002820        81.7109 
 144   0.0000       3.023614        82.2767 
 145   0.0000       3.060174        83.2716 
 146   0.0000       3.071538        83.5808 
 147   0.0000       3.087754        84.0221 
 148   0.0000       3.156156        85.8834 
 149   0.0000       3.177611        86.4672 
 150   0.0000       3.234374        88.0118 
 151   0.0000       3.446359        93.7802 
 152   0.0000       3.584345        97.5350 

                    ********************************
                    * MULLIKEN POPULATION ANALYSIS *
                    ********************************

-----------------------
MULLIKEN ATOMIC CHARGES
-----------------------
   0 N :   -0.330440
   1 C :    0.313373
   2 N :   -0.346948
   3 H :    0.126852
   4 C :    0.123397
   5 C :    0.117110
   6 C :    0.097179
   7 C :    0.092775
   8 H :    0.073617
   9 H :    0.073642
  10 H :    0.080206
  11 H :    0.079045
  12 H :    0.078969
  13 H :    0.079115
  14 H :    0.086449
  15 H :    0.086534
  16 H :    0.084576
  17 H :    0.084549
Sum of atomic charges:    1.0000000

--------------------------------
MULLIKEN REDUCED ORBITAL CHARGES
--------------------------------
  0 N s       :     3.419822  s :     3.419822
      pz      :     1.570019  p :     3.880212
      px      :     1.133674
      py      :     1.176518
      dz2     :     0.002392  d :     0.030407
      dxz     :     0.005949
      dyz     :     0.003812
      dx2y2   :     0.008464
      dxy     :     0.009790
  1 C s       :     3.085661  s :     3.085661
      pz      :     0.780842  p :     2.523349
      px      :     0.819574
      py      :     0.922933
      dz2     :     0.004938  d :     0.077618
      dxz     :     0.025703
      dyz     :     0.006402
      dx2y2   :     0.018999
      dxy     :     0.021575
  2 N s       :     3.425677  s :     3.425677
      pz      :     1.582258  p :     3.891308
      px      :     1.135288
      py      :     1.173761
      dz2     :     0.002408  d :     0.029964
      dxz     :     0.005452
      dyz     :     0.003932
      dx2y2   :     0.008107
      dxy     :     0.010065
  3 H s       :     0.849818  s :     0.849818
      pz      :     0.002854  p :     0.023330
      px      :     0.001411
      py      :     0.019066
  4 C s       :     2.979658  s :     2.979658
      pz      :     1.079340  p :     2.851647
      px      :     0.992212
      py      :     0.780095
      dz2     :     0.007428  d :     0.045298
      dxz     :     0.006447
      dyz     :     0.010671
      dx2y2   :     0.014052
      dxy     :     0.006700
  5 C s       :     2.984259  s :     2.984259
      pz      :     1.079011  p :     2.853612
      px      :     0.995959
      py      :     0.778642
      dz2     :     0.007395  d :     0.045019
      dxz     :     0.006549
      dyz     :     0.010391
      dx2y2   :     0.014074
      dxy     :     0.006609
  6 C s       :     2.995035  s :     2.995035
      pz      :     1.060057  p :     2.868544
      px      :     0.774912
      py      :     1.033574
      dz2     :     0.007178  d :     0.039242
      dxz     :     0.011467
      dyz     :     0.002987
      dx2y2   :     0.011282
      dxy     :     0.006328
  7 C s       :     2.995746  s :     2.995746
      pz      :     1.063580  p :     2.872737
      px      :     0.775435
      py      :     1.033722
      dz2     :     0.007250  d :     0.038743
      dxz     :     0.006773
      dyz     :     0.007365
      dx2y2   :     0.008229
      dxy     :     0.009126
  8 H s       :     0.902731  s :     0.902731
      pz      :     0.012459  p :     0.023651
      px      :     0.005459
      py      :     0.005733
  9 H s       :     0.902710  s :     0.902710
      pz      :     0.012505  p :     0.023649
      px      :     0.005440
      py      :     0.005703
 10 H s       :     0.895691  s :     0.895691
      pz      :     0.005061  p :     0.024103
      px      :     0.002656
      py      :     0.016386
 11 H s       :     0.896766  s :     0.896766
      pz      :     0.005206  p :     0.024188
      px      :     0.007845
      py      :     0.011137
 12 H s       :     0.897256  s :     0.897256
      pz      :     0.012632  p :     0.023775
      px      :     0.003145
      py      :     0.007998
 13 H s       :     0.897088  s :     0.897088
      pz      :     0.012279  p :     0.023797
      px      :     0.003111
      py      :     0.008406
 14 H s       :     0.891047  s :     0.891047
      pz      :     0.012468  p :     0.022504
      px      :     0.004954
      py      :     0.005082
 15 H s       :     0.890962  s :     0.890962
      pz      :     0.012448  p :     0.022504
      px      :     0.004954
      py      :     0.005101
 16 H s       :     0.892866  s :     0.892866
      pz      :     0.012503  p :     0.022558
      px      :     0.005004
      py      :     0.005051
 17 H s       :     0.892894  s :     0.892894
      pz      :     0.012510  p :     0.022557
      px      :     0.005003
      py      :     0.005045


                     *******************************
                     * LOEWDIN POPULATION ANALYSIS *
                     *******************************

----------------------
LOEWDIN ATOMIC CHARGES
----------------------
   0 N :    0.024464
   1 C :    0.199147
   2 N :    0.016002
   3 H :    0.069910
   4 C :    0.066651
   5 C :    0.067258
   6 C :    0.047821
   7 C :    0.046136
   8 H :    0.042978
   9 H :    0.042939
  10 H :    0.049485
  11 H :    0.049992
  12 H :    0.045057
  13 H :    0.045433
  14 H :    0.046659
  15 H :    0.046712
  16 H :    0.046686
  17 H :    0.046670

-------------------------------
LOEWDIN REDUCED ORBITAL CHARGES
-------------------------------
  0 N s       :     3.047473  s :     3.047473
      pz      :     1.495494  p :     3.858775
      px      :     1.177956
      py      :     1.185325
      dz2     :     0.004273  d :     0.069288
      dxz     :     0.009980
      dyz     :     0.006535
      dx2y2   :     0.023032
      dxy     :     0.025467
  1 C s       :     2.833607  s :     2.833607
      pz      :     0.804599  p :     2.786185
      px      :     0.939801
      py      :     1.041784
      dz2     :     0.010967  d :     0.181062
      dxz     :     0.053221
      dyz     :     0.010171
      dx2y2   :     0.048510
      dxy     :     0.058194
  2 N s       :     3.049065  s :     3.049065
      pz      :     1.505871  p :     3.866546
      px      :     1.176820
      py      :     1.183855
      dz2     :     0.004309  d :     0.068387
      dxz     :     0.009330
      dyz     :     0.006599
      dx2y2   :     0.022343
      dxy     :     0.025805
  3 H s       :     0.859078  s :     0.859078
      pz      :     0.009220  p :     0.071013
      px      :     0.007716
      py      :     0.054077
  4 C s       :     2.833212  s :     2.833212
      pz      :     1.101846  p :     2.990910
      px      :     1.015959
      py      :     0.873106
      dz2     :     0.017633  d :     0.109227
      dxz     :     0.014295
      dyz     :     0.027324
      dx2y2   :     0.035304
      dxy     :     0.014671
  5 C s       :     2.832890  s :     2.832890
      pz      :     1.102107  p :     2.991502
      px      :     1.016525
      py      :     0.872869
      dz2     :     0.017571  d :     0.108350
      dxz     :     0.014569
      dyz     :     0.026437
      dx2y2   :     0.035372
      dxy     :     0.014400
  6 C s       :     2.819027  s :     2.819027
      pz      :     1.092744  p :     3.033557
      px      :     0.873188
      py      :     1.067625
      dz2     :     0.017916  d :     0.099595
      dxz     :     0.030395
      dyz     :     0.006707
      dx2y2   :     0.028973
      dxy     :     0.015605
  7 C s       :     2.819584  s :     2.819584
      pz      :     1.096181  p :     3.036391
      px      :     0.871180
      py      :     1.069030
      dz2     :     0.017874  d :     0.097888
      dxz     :     0.015798
      dyz     :     0.020317
      dx2y2   :     0.019482
      dxy     :     0.024417
  8 H s       :     0.890664  s :     0.890664
      pz      :     0.033766  p :     0.066358
      px      :     0.016873
      py      :     0.015719
  9 H s       :     0.890703  s :     0.890703
      pz      :     0.033895  p :     0.066358
      px      :     0.016829
      py      :     0.015634
 10 H s       :     0.883245  s :     0.883245
      pz      :     0.013468  p :     0.067269
      px      :     0.008939
      py      :     0.044862
 11 H s       :     0.882742  s :     0.882742
      pz      :     0.013945  p :     0.067266
      px      :     0.022635
      py      :     0.030686
 12 H s       :     0.888120  s :     0.888120
      pz      :     0.034335  p :     0.066823
      px      :     0.010453
      py      :     0.022035
 13 H s       :     0.887712  s :     0.887712
      pz      :     0.033362  p :     0.066855
      px      :     0.010337
      py      :     0.023156
 14 H s       :     0.885910  s :     0.885910
      pz      :     0.034713  p :     0.067430
      px      :     0.016471
      py      :     0.016246
 15 H s       :     0.885862  s :     0.885862
      pz      :     0.034661  p :     0.067426
      px      :     0.016471
      py      :     0.016294
 16 H s       :     0.885756  s :     0.885756
      pz      :     0.034629  p :     0.067559
      px      :     0.016716
      py      :     0.016214
 17 H s       :     0.885772  s :     0.885772
      pz      :     0.034647  p :     0.067559
      px      :     0.016712
      py      :     0.016199


                      *****************************
                      * MAYER POPULATION ANALYSIS *
                      *****************************

  NA   - Mulliken gross atomic population
  ZA   - Total nuclear charge
  QA   - Mulliken gross atomic charge
  VA   - Mayer's total valence
  BVA  - Mayer's bonded valence
  FA   - Mayer's free valence

  ATOM       NA         ZA         QA         VA         BVA        FA
  0 N      7.3304     7.0000    -0.3304     3.4180     3.4180     0.0000
  1 C      5.6866     6.0000     0.3134     3.8362     3.8362     0.0000
  2 N      7.3469     7.0000    -0.3469     3.3957     3.3957    -0.0000
  3 H      0.8731     1.0000     0.1269     0.9948     0.9948     0.0000
  4 C      5.8766     6.0000     0.1234     3.9654     3.9654    -0.0000
  5 C      5.8829     6.0000     0.1171     3.9604     3.9604     0.0000
  6 C      5.9028     6.0000     0.0972     3.8808     3.8808     0.0000
  7 C      5.9072     6.0000     0.0928     3.8753     3.8753    -0.0000
  8 H      0.9264     1.0000     0.0736     0.9932     0.9932    -0.0000
  9 H      0.9264     1.0000     0.0736     0.9932     0.9932     0.0000
 10 H      0.9198     1.0000     0.0802     0.9978     0.9978     0.0000
 11 H      0.9210     1.0000     0.0790     1.0001     1.0001     0.0000
 12 H      0.9210     1.0000     0.0790     0.9927     0.9927    -0.0000
 13 H      0.9209     1.0000     0.0791     0.9930     0.9930    -0.0000
 14 H      0.9136     1.0000     0.0864     0.9829     0.9829    -0.0000
 15 H      0.9135     1.0000     0.0865     0.9830     0.9830     0.0000
 16 H      0.9154     1.0000     0.0846     0.9853     0.9853     0.0000
 17 H      0.9155     1.0000     0.0845     0.9853     0.9853     0.0000

  Mayer bond orders larger than 0.100000
B(  0-N ,  1-C ) :   1.4138 B(  0-N ,  5-C ) :   0.9305 B(  0-N ,  6-C ) :   0.9324 
B(  1-C ,  2-N ) :   1.4065 B(  1-C ,  3-H ) :   0.9683 B(  2-N ,  4-C ) :   0.9294 
B(  2-N ,  7-C ) :   0.9147 B(  4-C ,  5-C ) :   1.0924 B(  4-C , 14-H ) :   0.9538 
B(  4-C , 15-H ) :   0.9537 B(  5-C , 16-H ) :   0.9533 B(  5-C , 17-H ) :   0.9533 
B(  6-C ,  8-H ) :   0.9725 B(  6-C ,  9-H ) :   0.9726 B(  6-C , 10-H ) :   0.9731 
B(  7-C , 11-H ) :   0.9739 B(  7-C , 12-H ) :   0.9773 B(  7-C , 13-H ) :   0.9772 


-------
TIMINGS
-------

Total SCF time: 0 days 0 hours 2 min 25 sec 

Total time                  ....     145.257 sec
Sum of individual times     ....     144.909 sec  ( 99.8%)

Fock matrix formation       ....     142.343 sec  ( 98.0%)
  Split-RI-J                ....       4.925 sec  (  3.5% of F)
  Chain of spheres X        ....     112.592 sec  ( 79.1% of F)
  XC integration            ....      16.096 sec  ( 11.3% of F)
    Basis function eval.    ....       5.871 sec  ( 36.5% of XC)
    Density eval.           ....       3.446 sec  ( 21.4% of XC)
    XC-Functional eval.     ....       2.576 sec  ( 16.0% of XC)
    XC-Potential eval.      ....       3.691 sec  ( 22.9% of XC)
Diagonalization             ....       0.040 sec  (  0.0%)
Density matrix formation    ....       0.006 sec  (  0.0%)
Population analysis         ....       0.006 sec  (  0.0%)
Initial guess               ....       0.432 sec  (  0.3%)
Orbital Transformation      ....       0.000 sec  (  0.0%)
Orbital Orthonormalization  ....       0.000 sec  (  0.0%)
DIIS solution               ....       0.013 sec  (  0.0%)
SOSCF solution              ....       0.018 sec  (  0.0%)
Grid generation             ....       2.051 sec  (  1.4%)

Maximum memory used throughout the entire SCF-calculation: 67.1 MB


-------------------------------------------------------------------------------
                          DFT DISPERSION CORRECTION                            
                                                                               
                                 DFTD4 V2.5                                    
-------------------------------------------------------------------------------
The WB97X functional is recognized
Active option DFTDOPT                   ...         5   

Starting D4
-------------------------   ----------------
Dispersion correction           -0.001843531
-------------------------   ----------------


-------------------------   --------------------
FINAL SINGLE POINT ENERGY      -306.216836665061
-------------------------   --------------------

------------------------------------------------------------------------------
                         ORCA SCF GRADIENT CALCULATION
------------------------------------------------------------------------------

 ... reading COSX grid (gridx3)
Gradient of the Kohn-Sham DFT energy:
Kohn-Sham wavefunction type      ... RKS
Hartree-Fock exchange scaling    ...    0.158
Number of operators              ...    1
Number of atoms                  ...   18
Basis set dimensions             ...  153
Integral neglect threshold       ... 2.5e-11
Integral primitive cutoff        ... 2.5e-12
SHARK Integral package           ... ON

Nuc. rep. gradient       (SHARK) ... done (  0.0 sec)
HCore & Overlap gradient (SHARK) ... done (  0.2 sec)
RI-J gradient            (SHARK) ... done (  1.2 sec)
COSX-gradient                    ... done ( 22.5 sec)
Exchange-correlation gradient    ... done
Dispersion correction            ... Starting D4


------------------- 
Dispersion Gradient 
------------------- 
   1  :   -0.000012527   -0.000000792    0.000000001
   2  :    0.000000156   -0.000008776    0.000000000
   3  :    0.000012634   -0.000000668    0.000000026
   4  :    0.000000254   -0.000003590    0.000000001
   5  :    0.000010005    0.000018904   -0.000000009
   6  :   -0.000010252    0.000018733    0.000000003
   7  :   -0.000035097   -0.000009305    0.000000003
   8  :    0.000034986   -0.000009990   -0.000000038
   9  :   -0.000007376   -0.000002613    0.000000194
  10  :   -0.000007376   -0.000002612   -0.000000197
  11  :   -0.000008551   -0.000002524   -0.000000002
  12  :    0.000007281   -0.000002639   -0.000000003
  13  :    0.000007958   -0.000002443    0.000000035
  14  :    0.000007986   -0.000002442   -0.000000024
  15  :    0.000002690    0.000002700   -0.000001251
  16  :    0.000002682    0.000002713    0.000001260
  17  :   -0.000002728    0.000002675   -0.000001185
  18  :   -0.000002725    0.000002669    0.000001184

  |G| =    0.000066493

done

------------------
CARTESIAN GRADIENT
------------------

   1   N   :   -0.002968414   -0.003467422    0.000036600
   2   C   :   -0.001198122   -0.004014133   -0.000062558
   3   N   :    0.003655526   -0.003388700   -0.000102691
   4   H   :    0.000398248    0.012089654   -0.000003062
   5   C   :    0.004796641   -0.003359609    0.000050079
   6   C   :   -0.004935284   -0.002628633   -0.000000347
   7   C   :    0.003863924    0.001634002   -0.000027799
   8   C   :   -0.002030975    0.007005880    0.000206163
   9   H   :    0.002155637   -0.002010122    0.005398890
  10   H   :    0.002153058   -0.001989035   -0.005405668
  11   H   :   -0.000503318    0.007194208    0.000021423
  12   H   :   -0.003065843   -0.005935933   -0.000195023
  13   H   :   -0.001375514    0.002543971    0.005323519
  14   H   :   -0.001288063    0.002816123   -0.005237145
  15   H   :   -0.001934979   -0.001730663    0.004048769
  16   H   :   -0.001956615   -0.001735572   -0.004034895
  17   H   :    0.002123613   -0.001536196    0.004361157
  18   H   :    0.002124202   -0.001529852   -0.004364868

Difference to translation invariance:
           :    0.0000137217   -0.0000420326    0.0000125440

Difference to rotation invariance:
           :    0.0000116971   -0.0001122399    0.0003007540

Norm of the cartesian gradient     ...    0.0262693261
RMS gradient                       ...    0.0035748025
MAX gradient                       ...    0.0120896537

-------
TIMINGS
-------

Total SCF gradient time            ...       30.592 sec

One electron gradient       ....       0.212 sec  (  0.7%)
RI-J Coulomb gradient       ....       1.150 sec  (  3.8%)
COSX gradient               ....      22.503 sec  ( 73.6%)
XC gradient                 ....       5.299 sec  ( 17.3%)
CPCM gradient               ....       0.515 sec  (  1.7%)
   A-Matrix (El+Nuc)        ....       0.052 sec  (  0.2%)
   Potential                ....       0.462 sec  (  1.5%)

Maximum memory used throughout the entire SCFGRAD-calculation: 53.9 MB
------------------------------------------------------------------------------
                         ORCA GEOMETRY RELAXATION STEP
------------------------------------------------------------------------------

Reading the OPT-File                    .... done
Getting information on internals        .... done
Copying old internal coords+grads       .... done
Making the new internal coordinates     .... (new redundants).... done
Validating the new internal coordinates .... (new redundants).... done
Calculating the B-matrix                .... done
Calculating the G,G- and P matrices     .... done
Transforming gradient to internals      .... done
Projecting the internal gradient        .... done
Number of atoms                         ....  18
Number of internal coordinates          ....  92
Current Energy                          ....  -306.216836665 Eh
Current gradient norm                   ....     0.026269326 Eh/bohr
Maximum allowed component of the step   ....  0.300
Current trust radius                    ....  0.300
Evaluating the initial hessian          ....  (Almloef) done
Projecting the Hessian                  .... done
Forming the augmented Hessian           .... done
Diagonalizing the augmented Hessian     .... done
Last element of RFO vector              ....  0.997264241
Lowest eigenvalues of augmented Hessian:
 -0.002080311  0.013943644  0.018603839  0.019437266  0.024237297
Length of the computed step             ....  0.074121886
The final length of the internal step   ....  0.074121886
Converting the step to cartesian space:
 Initial RMS(Int)=    0.0077277409
Transforming coordinates:
 Iter   0:  RMS(Cart)=    0.0153912731 RMS(Int)=    0.0077296799
 Iter   1:  RMS(Cart)=    0.0000686255 RMS(Int)=    0.0000248788
 Iter   2:  RMS(Cart)=    0.0000006202 RMS(Int)=    0.0000002923
 Iter   3:  RMS(Cart)=    0.0000000040 RMS(Int)=    0.0000000023
done
Storing new coordinates                 .... done

                                .--------------------.
          ----------------------|Geometry convergence|-------------------------
          Item                value                   Tolerance       Converged
          ---------------------------------------------------------------------
          RMS gradient        0.0029941024            0.0001000000      NO
          MAX gradient        0.0120893843            0.0003000000      NO
          RMS step            0.0077277409            0.0020000000      NO
          MAX step            0.0319769560            0.0040000000      NO
          ........................................................
          Max(Bonds)      0.0169      Max(Angles)    0.50
          Max(Dihed)        0.39      Max(Improp)    0.00
          ---------------------------------------------------------------------

The optimization has not yet converged - more geometry cycles are needed


    ---------------------------------------------------------------------------
                         Redundant Internal Coordinates
                            (Angstroem and degrees)

        Definition                    Value    dE/dq     Step     New-Value
    ----------------------------------------------------------------------------
     1. B(C   1,N   0)                1.3083 -0.004342  0.0031    1.3114   
     2. B(N   2,C   1)                1.3095 -0.003474  0.0025    1.3121   
     3. B(H   3,C   1)                1.0782 -0.012089  0.0169    1.0952   
     4. B(C   4,N   2)                1.4593 -0.007267  0.0087    1.4680   
     5. B(C   5,C   4)                1.5398 -0.001573  0.0020    1.5418   
     6. B(C   5,N   0)                1.4591 -0.005983  0.0073    1.4664   
     7. B(C   6,N   0)                1.4336 -0.008823  0.0097    1.4433   
     8. B(C   7,N   2)                1.4394 -0.009481  0.0107    1.4501   
     9. B(H   8,C   6)                1.0916 -0.006083  0.0089    1.1005   
    10. B(H   9,C   6)                1.0916 -0.006080  0.0089    1.1005   
    11. B(H  10,C   6)                1.0872 -0.007189  0.0104    1.0975   
    12. B(H  11,C   7)                1.0869 -0.006551  0.0095    1.0963   
    13. B(H  12,C   7)                1.0909 -0.005998  0.0088    1.0997   
    14. B(H  13,C   7)                1.0907 -0.006035  0.0088    1.0996   
    15. B(H  14,C   4)                1.0931 -0.004789  0.0071    1.1002   
    16. B(H  15,C   4)                1.0931 -0.004789  0.0071    1.1001   
    17. B(H  16,C   5)                1.0931 -0.005032  0.0074    1.1005   
    18. B(H  17,C   5)                1.0931 -0.005033  0.0074    1.1006   
    19. A(C   1,N   0,C   5)          110.11 -0.000707    0.13    110.23   
    20. A(C   1,N   0,C   6)          128.21  0.003406   -0.49    127.72   
    21. A(C   5,N   0,C   6)          121.68 -0.002699    0.36    122.04   
    22. A(N   2,C   1,H   3)          122.91 -0.001104    0.13    123.04   
    23. A(N   0,C   1,H   3)          123.18 -0.000153   -0.02    123.17   
    24. A(N   0,C   1,N   2)          113.91  0.001257   -0.11    113.80   
    25. A(C   1,N   2,C   7)          127.01  0.002957   -0.43    126.59   
    26. A(C   1,N   2,C   4)          110.06 -0.000435    0.08    110.14   
    27. A(C   4,N   2,C   7)          122.93 -0.002522    0.35    123.27   
    28. A(C   5,C   4,H  14)          112.67 -0.000118    0.05    112.72   
    29. A(N   2,C   4,H  15)          110.02  0.000209   -0.08    109.94   
    30. A(N   2,C   4,H  14)          110.03  0.000197   -0.08    109.95   
    31. A(N   2,C   4,C   5)          102.96  0.000015   -0.05    102.91   
    32. A(H  14,C   4,H  15)          108.39 -0.000127    0.09    108.48   
    33. A(C   5,C   4,H  15)          112.67 -0.000146    0.06    112.73   
    34. A(N   0,C   5,C   4)          102.96 -0.000131   -0.04    102.92   
    35. A(N   0,C   5,H  17)          109.99  0.000405   -0.15    109.84   
    36. A(H  16,C   5,H  17)          108.22 -0.000255    0.15    108.37   
    37. A(C   4,C   5,H  16)          112.80 -0.000180    0.08    112.88   
    38. A(C   4,C   5,H  17)          112.79 -0.000188    0.08    112.87   
    39. A(N   0,C   5,H  16)          110.00  0.000403   -0.15    109.85   
    40. A(N   0,C   6,H  10)          110.13  0.000778   -0.17    109.95   
    41. A(H   8,C   6,H   9)          108.32 -0.001112    0.28    108.60   
    42. A(N   0,C   6,H   9)          110.12  0.000684   -0.11    110.01   
    43. A(N   0,C   6,H   8)          110.10  0.000701   -0.11    109.98   
    44. A(H   9,C   6,H  10)          109.07 -0.000554    0.06    109.14   
    45. A(H   8,C   6,H  10)          109.07 -0.000550    0.06    109.13   
    46. A(H  12,C   7,H  13)          108.70 -0.000560    0.30    109.00   
    47. A(H  11,C   7,H  13)          108.69 -0.000365   -0.04    108.65   
    48. A(N   2,C   7,H  13)          110.80 -0.000506    0.13    110.92   
    49. A(H  11,C   7,H  12)          108.67 -0.000381   -0.03    108.64   
    50. A(N   2,C   7,H  12)          110.83 -0.000560    0.14    110.97   
    51. A(N   2,C   7,H  11)          109.09  0.002361   -0.50    108.60   
    52. D(H   3,C   1,N   0,C   5)    179.98  0.000001   -0.00    179.98   
    53. D(N   2,C   1,N   0,C   6)   -179.92  0.000010   -0.01   -179.93   
    54. D(N   2,C   1,N   0,C   5)      0.00  0.000010   -0.01     -0.01   
    55. D(H   3,C   1,N   0,C   6)      0.06  0.000001    0.00      0.06   
    56. D(C   7,N   2,C   1,H   3)      0.21 -0.000000    0.01      0.22   
    57. D(C   4,N   2,C   1,N   0)     -0.06 -0.000009    0.01     -0.05   
    58. D(C   4,N   2,C   1,H   3)    179.96 -0.000000   -0.00    179.96   
    59. D(C   7,N   2,C   1,N   0)   -179.81 -0.000009    0.02   -179.79   
    60. D(H  14,C   4,N   2,C   7)     59.53  0.000053   -0.01     59.52   
    61. D(H  14,C   4,N   2,C   1)   -120.23  0.000037    0.01   -120.22   
    62. D(H  15,C   4,N   2,C   1)    120.41 -0.000059    0.00    120.41   
    63. D(C   5,C   4,N   2,C   7)    179.85  0.000018   -0.01    179.83   
    64. D(C   5,C   4,N   2,C   1)      0.09  0.000003    0.00      0.09   
    65. D(H  15,C   4,N   2,C   7)    -59.83 -0.000043   -0.01    -59.84   
    66. D(C   4,C   5,N   0,C   1)      0.05 -0.000008    0.01      0.06   
    67. D(H  17,C   5,C   4,H  15)     -0.07  0.000127   -0.07     -0.14   
    68. D(H  17,C   5,C   4,H  14)   -123.09  0.000499   -0.27   -123.36   
    69. D(H  16,C   5,C   4,H  15)    122.92 -0.000498    0.25    123.18   
    70. D(H  16,C   5,C   4,H  14)     -0.10 -0.000126    0.06     -0.04   
    71. D(H  16,C   5,C   4,N   2)   -118.59 -0.000311    0.16   -118.44   
    72. D(N   0,C   5,C   4,H  15)   -118.57 -0.000185    0.09   -118.48   
    73. D(N   0,C   5,C   4,H  14)    118.41  0.000187   -0.11    118.30   
    74. D(N   0,C   5,C   4,N   2)     -0.08  0.000001   -0.01     -0.09   
    75. D(H  17,C   5,N   0,C   6)     59.54  0.000095    0.00     59.55   
    76. D(H  17,C   5,N   0,C   1)   -120.39  0.000089    0.01   -120.38   
    77. D(H  17,C   5,C   4,N   2)    118.42  0.000313   -0.17    118.25   
    78. D(H  16,C   5,N   0,C   6)    -59.57 -0.000091    0.01    -59.56   
    79. D(H  16,C   5,N   0,C   1)    120.51 -0.000097    0.01    120.52   
    80. D(C   4,C   5,N   0,C   6)    179.98 -0.000002    0.01    179.99   
    81. D(H   8,C   6,N   0,C   5)     59.55 -0.000260    0.11     59.66   
    82. D(H   8,C   6,N   0,C   1)   -120.54 -0.000258    0.11   -120.42   
    83. D(H  10,C   6,N   0,C   5)    179.86  0.000001    0.01    179.87   
    84. D(H  10,C   6,N   0,C   1)     -0.23  0.000003    0.01     -0.22   
    85. D(H   9,C   6,N   0,C   5)    -59.82  0.000246   -0.09    -59.91   
[...]
      6       0.240925   0.000910  -0.000298  -0.000063  -0.000257   0.000005
      7       0.075973   0.000394  -0.001076   0.000667   0.000250  -0.000001
      8      -0.000924   0.000007  -0.000039   0.000003   0.000002  -0.000621
      9       0.481899   0.001254  -0.000975  -0.000115   0.000039   0.000001
     10       0.025722   0.002816   0.003072   0.005426  -0.015305  -0.000072
     11      -0.000290  -0.000001  -0.000031  -0.000015   0.000016  -0.000282
     12      -0.049074   0.000590   0.001769   0.018550   0.043935   0.000143
     13       0.012939   0.000692   0.001120   0.022538   0.046176   0.000256
     14       0.000137  -0.000007   0.000006  -0.000170  -0.000451   0.051794
     15      -0.055680   0.000275  -0.001191   0.042743  -0.021946  -0.000147
     16      -0.013300  -0.000856   0.001022  -0.046582   0.020778   0.000090
     17       0.000059  -0.000001  -0.000004  -0.000183   0.000154  -0.082359
     18      -0.030925   0.048235   0.002639  -0.000474  -0.000657  -0.000012
     19       0.010750   0.007832   0.000541  -0.000685   0.000058  -0.000003
     20       0.000066  -0.000107  -0.000008  -0.000002   0.000002  -0.013996
     21      -0.013357   0.002008  -0.041900  -0.000390   0.001859   0.000053
     22       0.006194  -0.001308   0.026313   0.000242  -0.000825   0.000057
     23       0.000861  -0.000071   0.001290  -0.000007  -0.000066   0.001708
     24      -0.195239  -0.287234  -0.015305   0.002159   0.004030   0.050755
     25      -0.079081   0.199967   0.010074  -0.003550  -0.001365  -0.034035
     26       0.075708  -0.501983  -0.025858   0.005970   0.005153   0.083867
     27      -0.195288  -0.287261  -0.015317   0.002132   0.004057  -0.050612
     28      -0.078906   0.199536   0.010053  -0.003535  -0.001368   0.033864
     29      -0.075569   0.503725   0.025943  -0.005955  -0.005199   0.083925
     30       0.027930   0.005766   0.000151  -0.001447   0.000741   0.000002
     31       0.017008  -0.494010  -0.025641   0.010418   0.003557   0.000205
     32      -0.000097  -0.000498  -0.000027   0.000012   0.000002  -0.000709
     33      -0.132643  -0.015024   0.294966   0.002845  -0.011972  -0.000929
     34       0.109896  -0.019229   0.370165   0.004606  -0.012151  -0.001078
     35       0.003811  -0.000728   0.014081   0.000167  -0.000475   0.000379
     36      -0.124416  -0.004952   0.104111   0.000364  -0.005834   0.002856
     37      -0.005131   0.017031  -0.326152  -0.002409   0.012792  -0.007706
     38      -0.027493   0.027600  -0.524987  -0.003885   0.019789  -0.011437
     39      -0.112842  -0.004395   0.092811   0.000275  -0.005356  -0.002548
     40      -0.007444   0.018250  -0.348990  -0.002686   0.013462   0.008053
     41       0.023094  -0.026081   0.495920   0.003780  -0.018516  -0.010604
     42       0.102906  -0.003311  -0.008452  -0.111349  -0.238631   0.140482
     43      -0.192980  -0.003640  -0.007903  -0.126926  -0.270314   0.158365
     44      -0.043098   0.007662   0.018540   0.247307   0.529795  -0.298256
     45       0.101792  -0.003294  -0.008487  -0.111025  -0.237494  -0.142051
     46      -0.191140  -0.003668  -0.007920  -0.127579  -0.271114  -0.161320
     47       0.044067  -0.007606  -0.018423  -0.245318  -0.524528  -0.299983
     48       0.105045  -0.001406   0.005979  -0.239827   0.111884   0.230238
     49       0.213419   0.004352  -0.006333   0.269411  -0.124692  -0.256400
     50       0.051840  -0.004854   0.013297  -0.525658   0.245011   0.482132
     51       0.105191  -0.001408   0.005953  -0.240557   0.112586  -0.228647
     52       0.213563   0.004358  -0.006316   0.271058  -0.125881   0.255394
     53      -0.052044   0.004859  -0.013258   0.527843  -0.246774   0.479331
                 48         49         50         51         52         53    
      0      -0.000004  -0.000003  -0.000001   0.000977  -0.000109  -0.004208
      1      -0.000003  -0.000001  -0.000000   0.000211  -0.000025   0.003729
      2      -0.000600  -0.000244  -0.000026  -0.000001   0.000003  -0.000010
      3      -0.000008   0.000003   0.000000  -0.000341  -0.000325   0.000114
      4       0.000001   0.000001   0.000018   0.000248  -0.001159  -0.093927
      5       0.000499   0.000036   0.000290   0.000002   0.000027   0.000123
      6       0.000002  -0.000000   0.000078  -0.000049  -0.000658   0.004066
      7       0.000004  -0.000002  -0.000027   0.000047  -0.000043   0.003887
      8      -0.000730   0.000401   0.000595   0.000001   0.000014  -0.000000
      9      -0.000002   0.000003  -0.000044  -0.001002  -0.000437   0.000701
     10      -0.000026  -0.000030  -0.000374   0.001588   0.014855   0.995322
     11       0.001352  -0.001322  -0.000992  -0.000007  -0.000095  -0.001313
     12       0.000156  -0.000064   0.000016   0.000073   0.000016   0.000932
     13       0.000328  -0.000142  -0.000012  -0.000002   0.000022   0.001464
     14       0.075400  -0.033711   0.004538  -0.000007  -0.000258   0.000005
     15       0.000043  -0.000048   0.000001   0.000063   0.000039  -0.000892
     16      -0.000028   0.000026   0.000002   0.000610  -0.000068   0.001455
     17       0.038239  -0.035675   0.000810  -0.000016  -0.000050  -0.000004
     18       0.000032   0.000051  -0.000004   0.026699  -0.000078  -0.000014
     19       0.000032   0.000084   0.000011  -0.091999   0.000357  -0.000154
     20       0.046528   0.082554  -0.000553   0.000068  -0.000001   0.000004
     21       0.000108  -0.000057  -0.000759   0.000118   0.037911  -0.000651
     22       0.000155  -0.000075   0.000523   0.000273   0.087180  -0.001655
     23       0.003735  -0.002336  -0.095980  -0.000012   0.000016  -0.000037
     24      -0.163432  -0.288539   0.001599  -0.160373   0.000509   0.002165
     25       0.115085   0.205654  -0.001303   0.108076  -0.000384   0.000090
     26      -0.277312  -0.492595   0.003074  -0.286668   0.000941   0.001630
     27       0.163073   0.287982  -0.001563  -0.158854   0.000509   0.002174
     28      -0.114567  -0.204785   0.001283   0.106734  -0.000385   0.000077
     29      -0.277654  -0.493350   0.003018   0.285021  -0.000939  -0.001658
     30       0.000012   0.000030  -0.000001  -0.012441   0.000055   0.001897
     31      -0.000878  -0.001823  -0.000082   0.867860  -0.003387   0.000258
     32       0.004039   0.007651  -0.000026   0.000844  -0.000002   0.000008
     33      -0.001982   0.001087   0.019718  -0.002033  -0.546936   0.005476
     34      -0.002342   0.001292   0.024974  -0.002632  -0.687957   0.009652
     35       0.000608  -0.000373  -0.009735  -0.000096  -0.025907   0.000319
     36       0.005100  -0.003230  -0.116314   0.000252   0.053736  -0.002193
     37      -0.015062   0.009515   0.375528  -0.000600  -0.154059   0.003259
     38      -0.023299   0.014740   0.586757  -0.000938  -0.260914   0.005462
     39      -0.004393   0.002807   0.104388   0.000278   0.055307  -0.002144
     40       0.015488  -0.009879  -0.406011  -0.000839  -0.194323   0.003607
     41      -0.021130   0.013496   0.559085   0.001163   0.286534  -0.005354
     42       0.210372  -0.094313   0.013575   0.000106  -0.000306  -0.002990
     43       0.234899  -0.105167   0.014917   0.000241  -0.001956  -0.003012
     44      -0.444086   0.198952  -0.028339  -0.000175   0.002169   0.005727
     45      -0.212141   0.095046  -0.013576   0.000144   0.001091  -0.003035
     46      -0.238669   0.106791  -0.014970   0.000283  -0.000707  -0.003054
     47      -0.445462   0.199447  -0.028106   0.000249   0.000570  -0.005774
     48      -0.109698   0.102248  -0.002410   0.002015  -0.000102   0.003002
     49       0.122216  -0.110082   0.002384  -0.000803   0.000118  -0.003028
     50      -0.229213   0.211294  -0.004748   0.002907  -0.000263   0.005689
     51       0.109160  -0.101699   0.002445   0.001920  -0.000369   0.002989
     52      -0.121965   0.109809  -0.002434  -0.000719   0.000436  -0.003033
     53      -0.228312   0.210385  -0.004817  -0.002725   0.000842  -0.005677


-----------
IR SPECTRUM
-----------

 Mode   freq       eps      Int      T**2         TX        TY        TZ
       cm**-1   L/(mol*cm) km/mol    a.u.
----------------------------------------------------------------------------
  8:    121.87   0.000556    2.81  0.001424  ( 0.000206  0.000153  0.037729)
  9:    153.88   0.001036    5.24  0.002101  (-0.000327 -0.000138 -0.045833)
 10:    206.68   0.000012    0.06  0.000018  ( 0.000343 -0.000015 -0.004217)
 11:    269.97   0.000003    0.02  0.000004  ( 0.000425 -0.001845  0.000539)
 12:    401.24   0.000241    1.22  0.000187  (-0.013669  0.000402  0.000448)
 13:    466.12   0.010098   51.03  0.006760  (-0.000739  0.000024 -0.082218)
 14:    618.11   0.000009    0.04  0.000004  (-0.000048  0.002085  0.000290)
 15:    633.31   0.001353    6.84  0.000667  ( 0.025816  0.000552 -0.000155)
 16:    842.61   0.000000    0.00  0.000000  (-0.000143 -0.000006  0.000296)
 17:    947.23   0.003376   17.06  0.001112  (-0.011184  0.031419 -0.000008)
 18:    957.80   0.004263   21.54  0.001389  (-0.037248 -0.001215 -0.000095)
 19:   1012.82   0.000864    4.37  0.000266  ( 0.000099 -0.000300 -0.016311)
 20:   1018.64   0.000192    0.97  0.000059  (-0.006464  0.004096 -0.000357)
 21:   1095.65   0.000008    0.04  0.000002  (-0.001256 -0.000403 -0.000636)
 22:   1108.34   0.010654   53.84  0.003000  (-0.046499  0.028939  0.000030)
 23:   1112.59   0.001569    7.93  0.000440  (-0.010618 -0.018092  0.000319)
 24:   1135.31   0.000323    1.63  0.000089  (-0.002710  0.001159  0.008949)
 25:   1153.47   0.000023    0.12  0.000006  (-0.001584  0.000321 -0.001933)
 26:   1200.49   0.023904  120.80  0.006214  ( 0.078827  0.000337  0.000233)
 27:   1227.84   0.002245   11.34  0.000570  (-0.000014 -0.000072  0.023884)
 28:   1257.88   0.000005    0.03  0.000001  (-0.000040 -0.000026  0.001128)
 29:   1333.99   0.009661   48.82  0.002260  ( 0.046358  0.010532 -0.000015)
 30:   1339.82   0.007487   37.84  0.001744  (-0.037039  0.019286  0.000021)
 31:   1346.91   0.012766   64.51  0.002958  (-0.053916 -0.007110  0.000311)
 32:   1395.53   0.006862   34.68  0.001534  (-0.001417 -0.039144  0.000430)
 33:   1433.70   0.010517   53.15  0.002289  (-0.046556  0.010694  0.002707)
 34:   1437.09   0.004640   23.45  0.001008  ( 0.000734 -0.000141 -0.031733)
 35:   1446.42   0.000535    2.70  0.000115  (-0.007256 -0.000056 -0.007925)
 36:   1451.51   0.004367   22.07  0.000939  ( 0.007256  0.005362  0.029283)
 37:   1463.77   0.010788   54.52  0.002300  ( 0.018927  0.043883 -0.004000)
 38:   1472.75   0.000554    2.80  0.000117  (-0.007451  0.007787  0.001131)
 39:   1473.82   0.000448    2.26  0.000095  ( 0.008857 -0.003947 -0.000918)
 40:   1487.32   0.000354    1.79  0.000074  (-0.000576  0.008601 -0.000080)
 41:   1618.87   0.007245   36.61  0.001397  (-0.017172 -0.033190  0.000305)
 42:   1762.23   0.159233  804.70  0.028198  (-0.167743  0.007732  0.000282)
 43:   3076.56   0.007166   36.22  0.000727  ( 0.026836  0.002596 -0.000080)
 44:   3087.42   0.005577   28.19  0.000564  (-0.021371  0.010332  0.000504)
 45:   3104.81   0.003111   15.72  0.000313  ( 0.016670 -0.005897 -0.000095)
 46:   3111.06   0.002840   14.35  0.000285  ( 0.005554  0.015938 -0.000099)
 47:   3168.79   0.000281    1.42  0.000028  ( 0.000020  0.000043 -0.005258)
 48:   3179.66   0.002981   15.07  0.000293  ( 0.000056  0.000029  0.017105)
 49:   3182.72   0.000104    0.53  0.000010  (-0.000037 -0.000000  0.003199)
 50:   3194.41   0.000833    4.21  0.000081  ( 0.000181  0.000024 -0.009017)
 51:   3209.77   0.000349    1.76  0.000034  ( 0.004822 -0.003266  0.000000)
 52:   3219.54   0.000175    0.88  0.000017  (-0.000846  0.004031 -0.000021)
 53:   3261.62   0.002914   14.73  0.000279  (-0.000329  0.016694 -0.000014)

* The epsilon (eps) is given for a Dirac delta lineshape.
** The dipole moment derivative (T) already includes vibrational overlap.

The first frequency considered to be a vibration is 8
The total number of vibrations considered is 46


--------------------------
THERMOCHEMISTRY AT 298.15K
--------------------------

Temperature         ... 298.15 K
Pressure            ... 1.00 atm
Total Mass          ... 99.16 AMU

Throughout the following assumptions are being made:
  (1) The electronic state is orbitally nondegenerate
  (2) There are no thermally accessible electronically excited states
  (3) Hindered rotations indicated by low frequency modes are not
      treated as such but are treated as vibrations and this may
      cause some error
  (4) All equations used are the standard statistical mechanics
      equations for an ideal gas
  (5) All vibrations are strictly harmonic

freq.     121.87  E(vib)   ...       0.44 
freq.     153.88  E(vib)   ...       0.40 
freq.     206.68  E(vib)   ...       0.35 
freq.     269.97  E(vib)   ...       0.29 
freq.     401.24  E(vib)   ...       0.19 
freq.     466.12  E(vib)   ...       0.16 
freq.     618.11  E(vib)   ...       0.09 
freq.     633.31  E(vib)   ...       0.09 
freq.     842.61  E(vib)   ...       0.04 
freq.     947.23  E(vib)   ...       0.03 
freq.     957.80  E(vib)   ...       0.03 
freq.    1012.82  E(vib)   ...       0.02 
freq.    1018.64  E(vib)   ...       0.02 
freq.    1095.65  E(vib)   ...       0.02 
freq.    1108.34  E(vib)   ...       0.02 
freq.    1112.59  E(vib)   ...       0.01 
freq.    1135.31  E(vib)   ...       0.01 
freq.    1153.47  E(vib)   ...       0.01 
freq.    1200.49  E(vib)   ...       0.01 
freq.    1227.84  E(vib)   ...       0.01 
freq.    1257.88  E(vib)   ...       0.01 
freq.    1333.99  E(vib)   ...       0.01 
freq.    1339.82  E(vib)   ...       0.01 
freq.    1346.91  E(vib)   ...       0.01 
freq.    1395.53  E(vib)   ...       0.00 
freq.    1433.70  E(vib)   ...       0.00 
freq.    1437.09  E(vib)   ...       0.00 
freq.    1446.42  E(vib)   ...       0.00 
freq.    1451.51  E(vib)   ...       0.00 
freq.    1463.77  E(vib)   ...       0.00 
freq.    1472.75  E(vib)   ...       0.00 
freq.    1473.82  E(vib)   ...       0.00 
freq.    1487.32  E(vib)   ...       0.00 
freq.    1618.87  E(vib)   ...       0.00 
freq.    1762.23  E(vib)   ...       0.00 
freq.    3076.56  E(vib)   ...       0.00 
freq.    3087.42  E(vib)   ...       0.00 
freq.    3104.81  E(vib)   ...       0.00 
freq.    3111.06  E(vib)   ...       0.00 
freq.    3168.79  E(vib)   ...       0.00 
freq.    3179.66  E(vib)   ...       0.00 
freq.    3182.72  E(vib)   ...       0.00 
freq.    3194.41  E(vib)   ...       0.00 
freq.    3209.77  E(vib)   ...       0.00 
freq.    3219.54  E(vib)   ...       0.00 
freq.    3261.62  E(vib)   ...       0.00 

------------
INNER ENERGY
------------

The inner energy is: U= E(el) + E(ZPE) + E(vib) + E(rot) + E(trans)
    E(el)   - is the total energy from the electronic structure calculation
              = E(kin-el) + E(nuc-el) + E(el-el) + E(nuc-nuc)
    E(ZPE)  - the the zero temperature vibrational energy from the frequency calculation
    E(vib)  - the the finite temperature correction to E(ZPE) due to population
              of excited vibrational states
    E(rot)  - is the rotational thermal energy
    E(trans)- is the translational thermal energy

Summary of contributions to the inner energy U:
Electronic energy                ...   -306.21802295 Eh
Zero point energy                ...      0.16448812 Eh     103.22 kcal/mol
Thermal vibrational correction   ...      0.00366360 Eh       2.30 kcal/mol
Thermal rotational correction    ...      0.00141627 Eh       0.89 kcal/mol
Thermal translational correction ...      0.00141627 Eh       0.89 kcal/mol
-----------------------------------------------------------------------
Total thermal energy                   -306.04703868 Eh


Summary of corrections to the electronic energy:
(perhaps to be used in another calculation)
Total thermal correction                  0.00649614 Eh       4.08 kcal/mol
Non-thermal (ZPE) correction              0.16448812 Eh     103.22 kcal/mol
-----------------------------------------------------------------------
Total correction                          0.17098427 Eh     107.29 kcal/mol


--------
ENTHALPY
--------

The enthalpy is H = U + kB*T
                kB is Boltzmann's constant
Total free energy                 ...   -306.04703868 Eh 
Thermal Enthalpy correction       ...      0.00094421 Eh       0.59 kcal/mol
-----------------------------------------------------------------------
Total Enthalpy                    ...   -306.04609447 Eh


Note: Only C1 symmetry has been detected, increase convergence thresholds 
      if your molecule has a higher symmetry. Symmetry factor of 1.0 is   
      used for the rotational entropy correction. 
 

Note: Rotational entropy computed according to Herzberg 
Infrared and Raman Spectra, Chapter V,1, Van Nostrand Reinhold, 1945 
Point Group:  C1, Symmetry Number:   1  
Rotational constants in cm-1:     0.190015     0.066435     0.051157 

Vibrational entropy computed according to the QRRHO of S. Grimme
Chem.Eur.J. 2012 18 9955


-------
ENTROPY
-------

The entropy contributions are T*S = T*(S(el)+S(vib)+S(rot)+S(trans))
     S(el)   - electronic entropy
     S(vib)  - vibrational entropy
     S(rot)  - rotational entropy
     S(trans)- translational entropy
The entropies will be listed as multiplied by the temperature to get
units of energy

Electronic entropy                ...      0.00000000 Eh      0.00 kcal/mol
Vibrational entropy               ...      0.00614179 Eh      3.85 kcal/mol
Rotational entropy                ...      0.01297833 Eh      8.14 kcal/mol
Translational entropy             ...      0.01885925 Eh     11.83 kcal/mol
-----------------------------------------------------------------------
Final entropy term                ...      0.03797938 Eh     23.83 kcal/mol

In case the symmetry of your molecule has not been determined correctly
or in case you have a reason to use a different symmetry number we print 
out the resulting rotational entropy values for sn=1,12 :
 --------------------------------------------------------
|  sn= 1 | S(rot)=       0.01297833 Eh      8.14 kcal/mol|
|  sn= 2 | S(rot)=       0.01232388 Eh      7.73 kcal/mol|
|  sn= 3 | S(rot)=       0.01194105 Eh      7.49 kcal/mol|
|  sn= 4 | S(rot)=       0.01166942 Eh      7.32 kcal/mol|
|  sn= 5 | S(rot)=       0.01145873 Eh      7.19 kcal/mol|
|  sn= 6 | S(rot)=       0.01128659 Eh      7.08 kcal/mol|
|  sn= 7 | S(rot)=       0.01114104 Eh      6.99 kcal/mol|
|  sn= 8 | S(rot)=       0.01101497 Eh      6.91 kcal/mol|
|  sn= 9 | S(rot)=       0.01090376 Eh      6.84 kcal/mol|
|  sn=10 | S(rot)=       0.01080428 Eh      6.78 kcal/mol|
|  sn=11 | S(rot)=       0.01071429 Eh      6.72 kcal/mol|
|  sn=12 | S(rot)=       0.01063213 Eh      6.67 kcal/mol|
 --------------------------------------------------------


-------------------
GIBBS FREE ENERGY
-------------------

The Gibbs free energy is G = H - T*S

Total enthalpy                    ...   -306.04609447 Eh 
Total entropy correction          ...     -0.03797938 Eh    -23.83 kcal/mol
-----------------------------------------------------------------------
Final Gibbs free energy         ...   -306.08407385 Eh

For completeness - the Gibbs free energy minus the electronic energy
G-E(el)                           ...      0.13394910 Eh     84.05 kcal/mol


Timings for individual modules:

Sum of individual times         ...     1115.702 sec (=  18.595 min)
GTO integral calculation        ...        1.098 sec (=   0.018 min)   0.1 %
SCF iterations                  ...      493.926 sec (=   8.232 min)  44.3 %
SCF Gradient evaluation         ...      121.936 sec (=   2.032 min)  10.9 %
Geometry relaxation             ...        0.197 sec (=   0.003 min)   0.0 %
Analytical frequency calculation...      498.546 sec (=   8.309 min)  44.7 %
                             ****ORCA TERMINATED NORMALLY****
TOTAL RUN TIME: 0 days 0 hours 18 minutes 36 seconds 320 msec
