
                                 *****************
                                 * O   R   C   A *
                                 *****************

                                            #,                                       
                                            ###                                      
                                            ####                                     
                                            #####                                    
                                            ######                                   
                                           ########,                                 
                                     ,,################,,,,,                         
                               ,,#################################,,                 
                          ,,##########################################,,             
                       ,#########################################, ''#####,          
                    ,#############################################,,   '####,        
                  ,##################################################,,,,####,       
                ,###########''''           ''''###############################       
              ,#####''   ,,,,##########,,,,          '''####'''          '####       
            ,##' ,,,,###########################,,,                        '##       
           ' ,,###''''                  '''############,,,                           
         ,,##''                                '''############,,,,        ,,,,,,###''
      ,#''                                            '''#######################'''  
     '                                                          ''''####''''         
             ,#######,   #######,   ,#######,      ##                                
            ,#'     '#,  ##    ##  ,#'     '#,    #''#        ######   ,####,        
            ##       ##  ##   ,#'  ##            #'  '#       #        #'  '#        
            ##       ##  #######   ##           ,######,      #####,   #    #        
            '#,     ,#'  ##    ##  '#,     ,#' ,#      #,         ##   #,  ,#        
             '#######'   ##     ##  '#######'  #'      '#     #####' # '####'        



                  #######################################################
                  #                        -***-                        #
                  #          Department of theory and spectroscopy      #
                  #    Directorship and core code : Frank Neese         #
                  #        Max Planck Institute fuer Kohlenforschung    #
                  #                Kaiser Wilhelm Platz 1               #
                  #                 D-45470 Muelheim/Ruhr               #
                  #                      Germany                        #
                  #                                                     #
                  #                  All rights reserved                #
                  #                        -***-                        #
                  #######################################################


                         Program Version 5.0.4 -  RELEASE  -


 With contributions from (in alphabetic order):
   Daniel Aravena         : Magnetic Suceptibility
   Michael Atanasov       : Ab Initio Ligand Field Theory (pilot matlab implementation)
   Alexander A. Auer      : GIAO ZORA, VPT2 properties, NMR spectrum
   Ute Becker             : Parallelization
   Giovanni Bistoni       : ED, misc. LED, open-shell LED, HFLD
   Martin Brehm           : Molecular dynamics
   Dmytro Bykov           : SCF Hessian
   Vijay G. Chilkuri      : MRCI spin determinant printing, contributions to CSF-ICE
   Dipayan Datta          : RHF DLPNO-CCSD density
   Achintya Kumar Dutta   : EOM-CC, STEOM-CC
   Dmitry Ganyushin       : Spin-Orbit,Spin-Spin,Magnetic field MRCI
   Miquel Garcia          : C-PCM and meta-GGA Hessian, CC/C-PCM, Gaussian charge scheme
   Yang Guo               : DLPNO-NEVPT2, F12-NEVPT2, CIM, IAO-localization
   Andreas Hansen         : Spin unrestricted coupled pair/coupled cluster methods
   Benjamin Helmich-Paris : MC-RPA, TRAH-SCF, COSX integrals
   Lee Huntington         : MR-EOM, pCC
   Robert Izsak           : Overlap fitted RIJCOSX, COSX-SCS-MP3, EOM
   Marcus Kettner         : VPT2
   Christian Kollmar      : KDIIS, OOCD, Brueckner-CCSD(T), CCSD density, CASPT2, CASPT2-K
   Simone Kossmann        : Meta GGA functionals, TD-DFT gradient, OOMP2, MP2 Hessian
   Martin Krupicka        : Initial AUTO-CI
   Lucas Lang             : DCDCAS
   Marvin Lechner         : AUTO-CI (C++ implementation), FIC-MRCC
   Dagmar Lenk            : GEPOL surface, SMD
   Dimitrios Liakos       : Extrapolation schemes; Compound Job, initial MDCI parallelization
   Dimitrios Manganas     : Further ROCIS development; embedding schemes
   Dimitrios Pantazis     : SARC Basis sets
   Anastasios Papadopoulos: AUTO-CI, single reference methods and gradients
   Taras Petrenko         : DFT Hessian,TD-DFT gradient, ASA, ECA, R-Raman, ABS, FL, XAS/XES, NRVS
   Peter Pinski           : DLPNO-MP2, DLPNO-MP2 Gradient
   Christoph Reimann      : Effective Core Potentials
   Marius Retegan         : Local ZFS, SOC
   Christoph Riplinger    : Optimizer, TS searches, QM/MM, DLPNO-CCSD(T), (RO)-DLPNO pert. Triples
   Tobias Risthaus        : Range-separated hybrids, TD-DFT gradient, RPA, STAB
   Michael Roemelt        : Original ROCIS implementation
   Masaaki Saitow         : Open-shell DLPNO-CCSD energy and density
   Barbara Sandhoefer     : DKH picture change effects
   Avijit Sen             : IP-ROCIS
   Kantharuban Sivalingam : CASSCF convergence, NEVPT2, FIC-MRCI
   Bernardo de Souza      : ESD, SOC TD-DFT
   Georgi Stoychev        : AutoAux, RI-MP2 NMR, DLPNO-MP2 response
   Willem Van den Heuvel  : Paramagnetic NMR
   Boris Wezisla          : Elementary symmetry handling
   Frank Wennmohs         : Technical directorship


 We gratefully acknowledge several colleagues who have allowed us to
 interface, adapt or use parts of their codes:
   Stefan Grimme, W. Hujo, H. Kruse, P. Pracht,  : VdW corrections, initial TS optimization,
                  C. Bannwarth, S. Ehlert          DFT functionals, gCP, sTDA/sTD-DF
   Ed Valeev, F. Pavosevic, A. Kumar             : LibInt (2-el integral package), F12 methods
   Garnet Chan, S. Sharma, J. Yang, R. Olivares  : DMRG
   Ulf Ekstrom                                   : XCFun DFT Library
   Mihaly Kallay                                 : mrcc  (arbitrary order and MRCC methods)
   Jiri Pittner, Ondrej Demel                    : Mk-CCSD
   Frank Weinhold                                : gennbo (NPA and NBO analysis)
   Christopher J. Cramer and Donald G. Truhlar   : smd solvation model
   Lars Goerigk                                  : TD-DFT with DH, B97 family of functionals
   V. Asgeirsson, H. Jonsson                     : NEB implementation
   FAccTs GmbH                                   : IRC, NEB, NEB-TS, DLPNO-Multilevel, CI-OPT
                                                   MM, QMMM, 2- and 3-layer-ONIOM, Crystal-QMMM,
                                                   LR-CPCM, SF, NACMEs, symmetry and pop. for TD-DFT,
                                                   nearIR, NL-DFT gradient (VV10), updates on ESD,
                                                   ML-optimized integration grids
   S Lehtola, MJT Oliveira, MAL Marques          : LibXC Library
   Liviu Ungur et al                             : ANISO software


 Your calculation uses the libint2 library for the computation of 2-el integrals
 For citations please refer to: http://libint.valeyev.net

 Your ORCA version has been built with support for libXC version: 5.1.0
 For citations please refer to: https://tddft.org/programs/libxc/

 This ORCA versions uses:
   CBLAS   interface :  Fast vector & matrix operations
   LAPACKE interface :  Fast linear algebra routines
   SCALAPACK package :  Parallel linear algebra routines
   Shared memory     :  Shared parallel matrices
   BLAS/LAPACK       :  OpenBLAS 0.3.15  USE64BITINT DYNAMIC_ARCH NO_AFFINITY SkylakeX SINGLE_THREADED
        Core in use  :  SkylakeX
   Copyright (c) 2011-2014, The OpenBLAS Project




***************************************
The coordinates will be read from file: 9_prot_aq_1.xyz
***************************************


Your calculation utilizes the atom-pairwise dispersion correction
based on tight binding partial charges (D4)
Cite in your paper:
E.Caldeweyher, C.Bannwarth, S.Grimme, J.Chem.Phys., (2017), 147, 034112.
E.Caldeweyher, S.Ehlert, A.Hansen, H.Neugebauer, S.Grimme, J.Chem.Phys., (2018), in progress.
   

XCFun DFT library Copyright 2009-2010 Ulf Ekstrom and contributors.
See http://admol.org/xcfun for more information.
This is free software; see the source code for copying conditions.
There is ABSOLUTELY NO WARRANTY; not even for MERCHANTABILITY or FITNESS FOR A PARTICULAR PURPOSE.
For details see the documentation.
Scientific users of this library should cite U. Ekstrom, L. Visscher, R. Bast, A. J. Thorvaldsen and K. Ruud;
J.Chem.Theor.Comp. 2010, DOI: 10.1021/ct100117s
XCFun Version 0.99 

================================================================================

----- Orbital basis set information -----
Your calculation utilizes the basis: def2-SVP
   F. Weigend and R. Ahlrichs, Phys. Chem. Chem. Phys. 7, 3297 (2005).

----- AuxJ basis set information -----
Your calculation utilizes the auxiliary basis: def2/J
   F. Weigend, Phys. Chem. Chem. Phys. 8, 1057 (2006).

================================================================================
                                        WARNINGS
                       Please study these warnings very carefully!
================================================================================


WARNING: Geometry Optimization
  ===> : Switching off AutoStart
         For restart on a previous wavefunction, please use MOREAD

INFO   : the flag for use of the SHARK integral package has been found!

================================================================================
                                       INPUT FILE
================================================================================
NAME = 9_prot_aq_1.inp
|  1> # ORCA 5.0.4 - /users/bwb16179/postgrad/2024_03/DFT_Crest_Conformers/Opt/prot/9_prot_aq_1.inp # write input file
|  2> # Basic Mode
|  3> #
|  4> ! Opt Freq wB97X Def2-SVP D4 SlowConv TightSCF Defgrid2 Def2/J RIJCOSX CPCM(Water)
|  5> 
|  6> 
|  7> 
|  8> %maxcore 4500
|  9> 
| 10> %geom
| 11> Maxiter 150
| 12> END
| 13> 
| 14> * xyzfile 1 1 9_prot_aq_1.xyz
| 15> 
| 16>                          ****END OF INPUT****
================================================================================

                       *****************************
                       * Geometry Optimization Run *
                       *****************************

Geometry optimization settings:
Update method            Update   .... BFGS
Choice of coordinates    CoordSys .... Z-matrix Internals
Initial Hessian          InHess   .... Almoef's Model

Convergence Tolerances:
Energy Change            TolE     ....  5.0000e-06 Eh
Max. Gradient            TolMAXG  ....  3.0000e-04 Eh/bohr
RMS Gradient             TolRMSG  ....  1.0000e-04 Eh/bohr
Max. Displacement        TolMAXD  ....  4.0000e-03 bohr
RMS Displacement         TolRMSD  ....  2.0000e-03 bohr
Strict Convergence                ....  False
------------------------------------------------------------------------------
                        ORCA OPTIMIZATION COORDINATE SETUP
------------------------------------------------------------------------------

The optimization will be done in new redundant internal coordinates
Making redundant internal coordinates   ...  (new redundants) done
Evaluating the initial hessian          ...  (Almloef) done
Evaluating the coordinates              ...  done
Calculating the B-matrix                .... done
Calculating the G-matrix                .... done
Diagonalizing the G-matrix              .... done
The first mode is                       ....   44
The number of degrees of freedom        ....   48

    -----------------------------------------------------------------
                    Redundant Internal Coordinates


    -----------------------------------------------------------------
         Definition                    Initial Value    Approx d2E/dq
    -----------------------------------------------------------------
      1. B(C   1,N   0)                  1.3086         0.754625   
      2. B(N   2,C   1)                  1.3086         0.754609   
      3. B(H   3,C   1)                  1.0782         0.376034   
      4. B(C   4,N   2)                  1.4592         0.434044   
      5. B(C   5,C   4)                  1.5395         0.360763   
      6. B(C   5,N   0)                  1.4591         0.434081   
      7. B(C   6,N   0)                  1.4337         0.476666   
      8. B(C   7,N   2)                  1.4337         0.476639   
      9. B(H   8,C   6)                  1.0916         0.358045   
     10. B(H   9,C   6)                  1.0916         0.358040   
     11. B(H  10,C   6)                  1.0872         0.363883   
     12. B(H  11,C   7)                  1.0915         0.358056   
     13. B(H  12,C   7)                  1.0915         0.358065   
     14. B(H  13,C   7)                  1.0871         0.363915   
     15. B(H  14,C   4)                  1.0931         0.356030   
     16. B(H  15,C   4)                  1.0931         0.356035   
     17. B(H  16,C   5)                  1.0931         0.356027   
     18. B(H  17,C   5)                  1.0931         0.356039   
     19. A(C   1,N   0,C   5)          110.1157         0.416340   
     20. A(C   1,N   0,C   6)          128.2043         0.423348   
     21. A(C   5,N   0,C   6)          121.6800         0.384013   
     22. A(N   2,C   1,H   3)          123.0602         0.365335   
     23. A(N   0,C   1,H   3)          123.0664         0.365336   
     24. A(N   0,C   1,N   2)          113.8734         0.459983   
     25. A(C   1,N   2,C   7)          128.2126         0.423342   
     26. A(C   1,N   2,C   4)          110.1142         0.416332   
     27. A(C   4,N   2,C   7)          121.6733         0.384004   
     28. A(C   5,C   4,H  14)          112.7875         0.321868   
     29. A(N   2,C   4,H  15)          110.0036         0.329824   
     30. A(N   2,C   4,H  14)          109.9992         0.329823   
     31. A(N   2,C   4,C   5)          102.9485         0.368278   
     32. A(H  14,C   4,H  15)          108.2155         0.289804   
     33. A(C   5,C   4,H  15)          112.7970         0.321868   
     34. A(N   0,C   5,C   4)          102.9482         0.368283   
     35. A(N   0,C   5,H  17)          109.9994         0.329829   
     36. A(H  16,C   5,H  17)          108.2150         0.289804   
     37. A(C   4,C   5,H  16)          112.7960         0.321867   
     38. A(C   4,C   5,H  17)          112.7877         0.321869   
     39. A(N   0,C   5,H  16)          110.0050         0.329827   
     40. A(N   0,C   6,H  10)          110.1270         0.336201   
     41. A(H   8,C   6,H   9)          108.3335         0.290317   
     42. A(N   0,C   6,H   9)          110.1125         0.335297   
     43. A(N   0,C   6,H   8)          110.1075         0.335298   
     44. A(H   9,C   6,H  10)          109.0617         0.291055   
     45. A(H   8,C   6,H  10)          109.0611         0.291055   
     46. A(H  12,C   7,H  13)          109.0632         0.291062   
     47. A(H  11,C   7,H  13)          109.0606         0.291061   
     48. A(N   2,C   7,H  13)          110.1276         0.336203   
     49. A(H  11,C   7,H  12)          108.3323         0.290321   
     50. A(N   2,C   7,H  12)          110.1085         0.335298   
     51. A(N   2,C   7,H  11)          110.1110         0.335296   
     52. D(H   3,C   1,N   0,C   5)   -179.9985         0.047886   
     53. D(N   2,C   1,N   0,C   6)    179.9589         0.047886   
     54. D(N   2,C   1,N   0,C   5)      0.0043         0.047886   
     55. D(H   3,C   1,N   0,C   6)     -0.0438         0.047886   
     56. D(C   7,N   2,C   1,H   3)      0.0144         0.047884   
     57. D(C   4,N   2,C   1,N   0)     -0.0136         0.047884   
     58. D(C   4,N   2,C   1,H   3)    179.9892         0.047884   
     59. D(C   7,N   2,C   1,N   0)   -179.9883         0.047884   
     60. D(H  14,C   4,N   2,C   7)     59.5548         0.016062   
     61. D(H  14,C   4,N   2,C   1)   -120.4218         0.016062   
     62. D(H  15,C   4,N   2,C   1)    120.4672         0.016062   
     63. D(C   5,C   4,N   2,C   7)    179.9928         0.016062   
     64. D(C   5,C   4,N   2,C   1)      0.0161         0.016062   
     65. D(H  15,C   4,N   2,C   7)    -59.5561         0.016062   
     66. D(C   4,C   5,N   0,C   1)      0.0061         0.016065   
     67. D(H  17,C   5,C   4,H  15)     -0.0225         0.010439   
     68. D(H  17,C   5,C   4,H  14)   -123.0031         0.010439   
     69. D(H  16,C   5,C   4,H  15)    122.9569         0.010439   
     70. D(H  16,C   5,C   4,H  14)     -0.0237         0.010439   
     71. D(H  16,C   5,C   4,N   2)   -118.5285         0.010439   
     72. D(N   0,C   5,C   4,H  15)   -118.5275         0.010439   
     73. D(N   0,C   5,C   4,H  14)    118.4920         0.010439   
     74. D(N   0,C   5,C   4,N   2)     -0.0128         0.010439   
     75. D(H  17,C   5,N   0,C   6)     59.6099         0.016065   
     76. D(H  17,C   5,N   0,C   1)   -120.4320         0.016065   
     77. D(H  17,C   5,C   4,N   2)    118.4921         0.010439   
     78. D(H  16,C   5,N   0,C   6)    -59.5015         0.016065   
     79. D(H  16,C   5,N   0,C   1)    120.4567         0.016065   
     80. D(C   4,C   5,N   0,C   6)   -179.9520         0.016065   
     81. D(H   8,C   6,N   0,C   5)     59.6260         0.019427   
     82. D(H   8,C   6,N   0,C   1)   -120.3239         0.019427   
     83. D(H  10,C   6,N   0,C   5)    179.9282         0.019427   
     84. D(H  10,C   6,N   0,C   1)     -0.0218         0.019427   
     85. D(H   9,C   6,N   0,C   5)    -59.7658         0.019427   
     86. D(H   9,C   6,N   0,C   1)    120.2843         0.019427   
     87. D(H  13,C   7,N   2,C   4)   -179.9124         0.019424   
     88. D(H  13,C   7,N   2,C   1)      0.0597         0.019424   
     89. D(H  12,C   7,N   2,C   4)    -59.6067         0.019424   
     90. D(H  12,C   7,N   2,C   1)    120.3654         0.019424   
     91. D(H  11,C   7,N   2,C   4)     59.7833         0.019424   
     92. D(H  11,C   7,N   2,C   1)   -120.2446         0.019424   
    -----------------------------------------------------------------

Number of atoms                         .... 18
Number of degrees of freedom            .... 92

         *************************************************************
         *                GEOMETRY OPTIMIZATION CYCLE   1            *
         *************************************************************
---------------------------------
CARTESIAN COORDINATES (ANGSTROEM)
---------------------------------
  N     -1.096719   -0.170480    0.000326
  C     -0.000042   -0.884452    0.000258
  N      1.096692   -0.170559    0.000143
  H     -0.000024   -1.962666    0.000336
  C      0.769768    1.251506   -0.000201
  C     -0.769731    1.251547    0.000150
  C     -2.454456   -0.630848   -0.000354
  C      2.454476   -0.630838   -0.000185
  H     -2.975752   -0.260729   -0.885092
  H     -2.976181   -0.262358    0.884816
  H     -2.480955   -1.717680   -0.001368
  H      2.975850   -0.262504    0.885241
  H      2.976060   -0.260471   -0.884630
  H      2.481062   -1.717643   -0.001404
  H      1.192950    1.732177   -0.886049
  H      1.193519    1.732816    0.885024
  H     -1.193443    1.732578   -0.885252
  H     -1.192888    1.732563    0.885815

----------------------------
CARTESIAN COORDINATES (A.U.)
----------------------------
  NO LB      ZA    FRAG     MASS         X           Y           Z
   0 N     7.0000    0    14.007   -2.072498   -0.322161    0.000616
   1 C     6.0000    0    12.011   -0.000080   -1.671373    0.000487
   2 N     7.0000    0    14.007    2.072448   -0.322310    0.000270
   3 H     1.0000    0     1.008   -0.000046   -3.708902    0.000635
   4 C     6.0000    0    12.011    1.454651    2.365005   -0.000379
   5 C     6.0000    0    12.011   -1.454581    2.365082    0.000284
   6 C     6.0000    0    12.011   -4.638250   -1.192130   -0.000669
   7 C     6.0000    0    12.011    4.638287   -1.192111   -0.000350
   8 H     1.0000    0     1.008   -5.623357   -0.492706   -1.672581
   9 H     1.0000    0     1.008   -5.624168   -0.495785    1.672059
  10 H     1.0000    0     1.008   -4.688326   -3.245944   -0.002585
  11 H     1.0000    0     1.008    5.623542   -0.496061    1.672862
  12 H     1.0000    0     1.008    5.623939   -0.492218   -1.671709
  13 H     1.0000    0     1.008    4.688528   -3.245875   -0.002654
  14 H     1.0000    0     1.008    2.254349    3.273340   -1.674391
  15 H     1.0000    0     1.008    2.255424    3.274548    1.672453
  16 H     1.0000    0     1.008   -2.255280    3.274098   -1.672885
  17 H     1.0000    0     1.008   -2.254232    3.274069    1.673948

--------------------------------
INTERNAL COORDINATES (ANGSTROEM)
--------------------------------
 N      0   0   0     0.000000000000     0.00000000     0.00000000
 C      1   0   0     1.308608015067     0.00000000     0.00000000
 N      2   1   0     1.308613833169   113.87340661     0.00000000
 H      2   1   3     1.078214032989   123.06639922   179.99726885
 C      3   2   1     1.459160611074   110.11417701     0.00000000
 C      1   2   3     1.459137876279   110.11568199     0.00000000
 C      1   2   3     1.433662998987   128.20430720   179.95890972
 C      3   2   1     1.433678148147   128.21255319   180.01170545
 H      7   1   2     1.091558148541   110.10746800   239.67606350
 H      7   1   2     1.091561720710   110.11245318   120.28428641
 H      7   1   2     1.087155166019   110.12697411     0.00000000
 H      8   3   2     1.091549516030   110.11104073   239.75543118
 H      8   3   2     1.091542346950   110.10845377   120.36542078
 H      8   3   2     1.087131100828   110.12762403     0.05966836
 H      5   3   2     1.093094227121   109.99919959   239.57819042
 H      5   3   2     1.093090489934   110.00364645   120.46721116
 H      6   1   2     1.093096659479   110.00500274   120.45666188
 H      6   1   2     1.093087506269   109.99941158   239.56801867

---------------------------
INTERNAL COORDINATES (A.U.)
---------------------------
 N      0   0   0     0.000000000000     0.00000000     0.00000000
 C      1   0   0     2.472910765131     0.00000000     0.00000000
 N      2   1   0     2.472921759751   113.87340661     0.00000000
 H      2   1   3     2.037529236100   123.06639922   179.99726885
 C      3   2   1     2.757413940335   110.11417701     0.00000000
 C      1   2   3     2.757370977799   110.11568199     0.00000000
 C      1   2   3     2.709230436421   128.20430720   179.95890972
 C      3   2   1     2.709259064185   128.21255319   180.01170545
 H      7   1   2     2.062745959994   110.10746800   239.67606350
 H      7   1   2     2.062752710414   110.11245318   120.28428641
 H      7   1   2     2.054425528854   110.12697411     0.00000000
 H      8   3   2     2.062729646911   110.11104073   239.75543118
 H      8   3   2     2.062716099313   110.10845377   120.36542078
 H      8   3   2     2.054380052234   110.12762403     0.05966836
 H      5   3   2     2.065648727830   109.99919959   239.57819042
 H      5   3   2     2.065641665569   110.00364645   120.46721116
 H      6   1   2     2.065653324320   110.00500274   120.45666188
 H      6   1   2     2.065636027260   109.99941158   239.56801867

---------------------
BASIS SET INFORMATION
---------------------
There are 3 groups of distinct atoms

 Group   1 Type N   : 7s4p1d contracted to 3s2p1d pattern {511/31/1}
 Group   2 Type C   : 7s4p1d contracted to 3s2p1d pattern {511/31/1}
 Group   3 Type H   : 4s1p contracted to 2s1p pattern {31/1}

Atom   0N    basis set group =>   1
Atom   1C    basis set group =>   2
Atom   2N    basis set group =>   1
Atom   3H    basis set group =>   3
Atom   4C    basis set group =>   2
Atom   5C    basis set group =>   2
Atom   6C    basis set group =>   2
Atom   7C    basis set group =>   2
Atom   8H    basis set group =>   3
Atom   9H    basis set group =>   3
Atom  10H    basis set group =>   3
Atom  11H    basis set group =>   3
Atom  12H    basis set group =>   3
Atom  13H    basis set group =>   3
Atom  14H    basis set group =>   3
Atom  15H    basis set group =>   3
Atom  16H    basis set group =>   3
Atom  17H    basis set group =>   3
---------------------------------
AUXILIARY/J BASIS SET INFORMATION
---------------------------------
There are 3 groups of distinct atoms

 Group   1 Type N   : 12s5p4d2f1g contracted to 6s4p3d1f1g pattern {711111/2111/211/2/1}
 Group   2 Type C   : 12s5p4d2f1g contracted to 6s4p3d1f1g pattern {711111/2111/211/2/1}
 Group   3 Type H   : 5s2p1d contracted to 3s1p1d pattern {311/2/1}

Atom   0N    basis set group =>   1
Atom   1C    basis set group =>   2
Atom   2N    basis set group =>   1
Atom   3H    basis set group =>   3
Atom   4C    basis set group =>   2
Atom   5C    basis set group =>   2
Atom   6C    basis set group =>   2
Atom   7C    basis set group =>   2
Atom   8H    basis set group =>   3
Atom   9H    basis set group =>   3
Atom  10H    basis set group =>   3
Atom  11H    basis set group =>   3
Atom  12H    basis set group =>   3
Atom  13H    basis set group =>   3
Atom  14H    basis set group =>   3
Atom  15H    basis set group =>   3
Atom  16H    basis set group =>   3
Atom  17H    basis set group =>   3
------------------------------------------------------------------------------
                           ORCA GTO INTEGRAL CALCULATION
                           -- RI-GTO INTEGRALS CHOSEN --
------------------------------------------------------------------------------
------------------------------------------------------------------------------
                   ___                                                        
                  /   \      - P O W E R E D   B Y -                         
                 /     \                                                     
                 |  |  |   _    _      __       _____    __    __             
                 |  |  |  | |  | |    /  \     |  _  \  |  |  /  |          
                  \  \/   | |  | |   /    \    | | | |  |  | /  /          
                 / \  \   | |__| |  /  /\  \   | |_| |  |  |/  /          
                |  |  |   |  __  | /  /__\  \  |    /   |      \           
                |  |  |   | |  | | |   __   |  |    \   |  |\   \          
                \     /   | |  | | |  |  |  |  | |\  \  |  | \   \       
                 \___/    |_|  |_| |__|  |__|  |_| \__\ |__|  \__/        
                                                                              
                      - O R C A' S   B I G   F R I E N D -                    
                                      &                                       
                       - I N T E G R A L  F E E D E R -                       
                                                                              
 v1 FN, 2020, v2 2021                                                         
------------------------------------------------------------------------------


Reading SHARK input file 9_prot_aq_1.SHARKINP.tmp ... ok
----------------------
SHARK INTEGRAL PACKAGE
----------------------

Number of atoms                             ...     18
Number of basis functions                   ...    153
Number of shells                            ...     75
Maximum angular momentum                    ...      2
Integral batch strategy                     ... SHARK/LIBINT Hybrid
RI-J (if used) integral strategy            ... SPLIT-RIJ (Revised 2003 algorithm where possible)
Printlevel                                  ...      1
Contraction scheme used                     ... SEGMENTED contraction
Coulomb Range Separation                    ... NOT USED
Exchange Range Separation                   ... Long Range
   Mu parameter                             ...  0.300000
   Scaling (regular/separated)              ...  0.157706  0.842294
Finite Nucleus Model                        ... NOT USED
Auxiliary Coulomb fitting basis             ... AVAILABLE
   # of basis functions in Aux-J            ...    464
   # of shells in Aux-J                     ...    160
   Maximum angular momentum in Aux-J        ...      4
Auxiliary J/K fitting basis                 ... NOT available
Auxiliary Correlation fitting basis         ... NOT available
Auxiliary 'external' fitting basis          ... NOT available
Integral threshold                          ...     2.500000e-11
Primitive cut-off                           ...     2.500000e-12
Primitive pair pre-selection threshold      ...     2.500000e-12

Calculating pre-screening integrals         ... done (  0.0 sec) Dimension = 75
Organizing shell pair data                  ... done (  0.0 sec)
Shell pair information
Total number of shell pairs                 ...      2850
Shell pairs after pre-screening             ...      2726
Total number of primitive shell pairs       ...      9854
Primitive shell pairs kept                  ...      7137
          la=0 lb=0:    910 shell pairs
          la=1 lb=0:   1029 shell pairs
          la=1 lb=1:    304 shell pairs
          la=2 lb=0:    287 shell pairs
          la=2 lb=1:    169 shell pairs
          la=2 lb=2:     27 shell pairs

Calculating one electron integrals          ... done (  0.0 sec)
Calculating RI/J V-Matrix + Cholesky decomp.... done (  0.0 sec)
Calculating Nuclear repulsion               ... done (  0.0 sec) ENN=    327.199473321609 Eh

SHARK setup successfully completed in   0.2 seconds

Maximum memory used throughout the entire GTOINT-calculation: 19.4 MB
-------------------------------------------------------------------------------
                                 ORCA SCF
-------------------------------------------------------------------------------

------------
SCF SETTINGS
------------
Hamiltonian:
 Density Functional     Method          .... DFT(GTOs)
 Exchange Functional    Exchange        .... WB97X
 Correlation Functional Correlation     .... WB97X
 Gradients option       PostSCFGGA      .... off
 Hybrid DFT is turned on
   Fraction HF Exchange ScalHFX         ....  0.157706
   Scaling of DF-GGA-X  ScalDFX         ....  0.000000
   Scaling of DF-GGA-C  ScalDFC         ....  1.000000
   Scaling of DF-LDA-C  ScalLDAC        ....  1.000000
   Perturbative correction              ....  0.000000
   Density functional embedding theory  .... OFF
 Long-range corrected/Screened/Range-Separated Hybrid DFT is turned on
   Amount of maximum screened exact exchange              ....  0.842294
   Range separation parameter mu (erf(mu*r12)/r12)        ....  0.300000
 RI-approximation to the Coulomb term is turned on
   Number of AuxJ basis functions       .... 464
   RIJ-COSX (HFX calculated with COS-X)).... on


General Settings:
 Integral files         IntName         .... 9_prot_aq_1
 Hartree-Fock type      HFTyp           .... RHF
 Total Charge           Charge          ....    1
 Multiplicity           Mult            ....    1
 Number of Electrons    NEL             ....   54
 Basis Dimension        Dim             ....  153
 Nuclear Repulsion      ENuc            ....    327.1994733216 Eh

Convergence Acceleration:
 DIIS                   CNVDIIS         .... on
   Start iteration      DIISMaxIt       ....     0
   Startup error        DIISStart       ....  0.200000
   # of expansion vecs  DIISMaxEq       ....     5
   Bias factor          DIISBfac        ....   1.050
   Max. coefficient     DIISMaxC        ....  10.000
 Trust-Rad. Augm. Hess. CNVTRAH         .... auto
   Auto Start mean grad. ratio tolernc. ....  1.125000
   Auto Start start iteration           ....    20
   Auto Start num. interpolation iter.  ....    10
   Max. Number of Micro iterations      ....    16
   Max. Number of Macro iterations      .... Maxiter - #DIIS iter
   Number of Davidson start vectors     ....     2
   Converg. threshold I  (grad. norm)   ....   1.000e-05
   Converg. threshold II (energy diff.) ....   1.000e-08
   Grad. Scal. Fac. for Micro threshold ....   0.100
   Minimum threshold for Micro iter.    ....   0.010
   NR start threshold (gradient norm)   ....   0.001
   Initial trust radius                 ....   0.400
   Minimum AH scaling param. (alpha)    ....   1.000
   Maximum AH scaling param. (alpha)    .... 1000.000
   Orbital update algorithm             .... Taylor
   White noise on init. David. guess    .... on
   Maximum white noise                  ....   0.010
   Quad. conv. algorithm                .... NR
 SOSCF                  CNVSOSCF        .... on
   Start iteration      SOSCFMaxIt      ....   150
   Startup grad/error   SOSCFStart      ....  0.001000
 Level Shifting         CNVShift        .... on
   Level shift para.    LevelShift      ....    0.2500
   Turn off err/grad.   ShiftErr        ....    0.0000
 Zerner damping         CNVZerner       .... off
 Static damping         CNVDamp         .... on
   Fraction old density DampFac         ....    0.8500
   Max. Damping (<1)    DampMax         ....    0.9800
   Min. Damping (>=0)   DampMin         ....    0.0000
   Turn off err/grad.   DampErr         ....    0.0300
 Fernandez-Rico         CNVRico         .... off

SCF Procedure:
 Maximum # iterations   MaxIter         ....   125
 SCF integral mode      SCFMode         .... Direct
   Integral package                     .... SHARK and LIBINT hybrid scheme
 Reset frequency        DirectResetFreq ....    20
 Integral Threshold     Thresh          ....  2.500e-11 Eh
 Primitive CutOff       TCut            ....  2.500e-12 Eh

Convergence Tolerance:
 Convergence Check Mode ConvCheckMode   .... Total+1el-Energy
 Convergence forced     ConvForced      .... 0
 Energy Change          TolE            ....  1.000e-08 Eh
 1-El. energy change                    ....  1.000e-05 Eh
 Orbital Gradient       TolG            ....  1.000e-05
 Orbital Rotation angle TolX            ....  1.000e-05
 DIIS Error             TolErr          ....  5.000e-07


Diagonalization of the overlap matrix:
Smallest eigenvalue                        ... 1.623e-03
Time for diagonalization                   ...    0.004 sec
Threshold for overlap eigenvalues          ... 1.000e-08
Number of eigenvalues below threshold      ... 0
Time for construction of square roots      ...    0.002 sec
Total time needed                          ...    0.007 sec

Time for model grid setup =    0.202 sec

------------------------------
INITIAL GUESS: MODEL POTENTIAL
------------------------------
Loading Hartree-Fock densities                     ... done
Calculating cut-offs                               ... done
Initializing the effective Hamiltonian             ... done
Setting up the integral package (SHARK)            ... done
Starting the Coulomb interaction                   ... done (   0.2 sec)
Reading the grid                                   ... done
Mapping shells                                     ... done
Starting the XC term evaluation                    ... done (   0.3 sec)
  promolecular density results
     # of electrons  =     54.997183763
     EX              =    -41.993333174
     EC              =     -1.825373558
     EX+EC           =    -43.818706733
Transforming the Hamiltonian                       ... done (   0.0 sec)
Diagonalizing the Hamiltonian                      ... done (   0.0 sec)
Back transforming the eigenvectors                 ... done (   0.0 sec)
Now organizing SCF variables                       ... done
                      ------------------
                      INITIAL GUESS DONE (   0.6 sec)
                      ------------------
-------------------
DFT GRID GENERATION
-------------------

General Integration Accuracy     IntAcc      ... 4.388
Radial Grid Type                 RadialGrid  ... OptM3 with GC (2021)
Angular Grid (max. ang.)         AngularGrid ... 4 (Lebedev-302)
Angular grid pruning method      GridPruning ... 4 (adaptive)
Weight generation scheme         WeightScheme... Becke
Basis function cutoff            BFCut       ... 1.0000e-11
Integration weight cutoff        WCut        ... 1.0000e-14
Angular grids for H and He will be reduced by one unit
Partially contracted basis set               ... off
Rotationally invariant grid construction     ... off

Total number of grid points                  ...    77373
Total number of batches                      ...     1217
Average number of points per batch           ...       63
Average number of grid points per atom       ...     4298
Time for grid setup =    0.824 sec

--------------------
COSX GRID GENERATION
--------------------

GRIDX 1
-------
General Integration Accuracy     IntAcc      ... 3.816
Radial Grid Type                 RadialGrid  ... OptM3 with GC (2021)
Angular Grid (max. ang.)         AngularGrid ... 1 (Lebedev-50)
Angular grid pruning method      GridPruning ... 4 (adaptive)
Weight generation scheme         WeightScheme... Becke
Basis function cutoff            BFCut       ... 1.0000e-11
Integration weight cutoff        WCut        ... 1.0000e-14
Angular grids for H and He will be reduced by one unit
Partially contracted basis set               ... on
Rotationally invariant grid construction     ... off

Total number of grid points                  ...     9924
Total number of batches                      ...      167
Average number of points per batch           ...       59
Average number of grid points per atom       ...      551
UseSFitting                                  ... on

GRIDX 2
-------
General Integration Accuracy     IntAcc      ... 4.020
Radial Grid Type                 RadialGrid  ... OptM3 with GC (2021)
Angular Grid (max. ang.)         AngularGrid ... 2 (Lebedev-110)
Angular grid pruning method      GridPruning ... 4 (adaptive)
Weight generation scheme         WeightScheme... Becke
Basis function cutoff            BFCut       ... 1.0000e-11
Integration weight cutoff        WCut        ... 1.0000e-14
Angular grids for H and He will be reduced by one unit
Partially contracted basis set               ... on
Rotationally invariant grid construction     ... off

Total number of grid points                  ...    20880
Total number of batches                      ...      335
Average number of points per batch           ...       62
Average number of grid points per atom       ...     1160
UseSFitting                                  ... on

GRIDX 3
-------
General Integration Accuracy     IntAcc      ... 4.338
Radial Grid Type                 RadialGrid  ... OptM3 with GC (2021)
Angular Grid (max. ang.)         AngularGrid ... 3 (Lebedev-194)
Angular grid pruning method      GridPruning ... 4 (adaptive)
Weight generation scheme         WeightScheme... Becke
Basis function cutoff            BFCut       ... 1.0000e-11
Integration weight cutoff        WCut        ... 1.0000e-14
Angular grids for H and He will be reduced by one unit
Partially contracted basis set               ... on
Rotationally invariant grid construction     ... off

Total number of grid points                  ...    45640
Total number of batches                      ...      722
Average number of points per batch           ...       63
Average number of grid points per atom       ...     2536
UseSFitting                                  ... on

Time for X-Grid setup             =    1.011 sec


--------------------
CPCM SOLVATION MODEL
--------------------
CPCM parameters:
  Epsilon                                         ...      80.4000
  Refrac                                          ...       1.3300
  Rsolv                                           ...       1.3000
  Surface type                                    ... GAUSSIAN VDW
  Epsilon function type                           ...         CPCM
Radii:
 Radius for N  used is    3.5149 Bohr (=   1.8600 Ang.)
 Radius for C  used is    3.8550 Bohr (=   2.0400 Ang.)
 Radius for H  used is    2.4944 Bohr (=   1.3200 Ang.)
Calculating surface                               ...        done! (  0.0s)
GEPOL surface points                              ...         1031
GEPOL Volume                                      ...     925.5492
GEPOL Surface-area                                ...     545.4489
Calculating surface distance matrix               ...        done! (  0.0s)
Performing Cholesky decomposition & store         ...        done! (  0.0s)
Overall time for CPCM initialization              ...                 0.0s
--------------
SCF ITERATIONS
--------------
ITER       Energy         Delta-E        Max-DP      RMS-DP      [F,P]     Damp
               ***  Starting incremental Fock matrix formation  ***
  0   -306.1326098550   0.000000000000 0.02364679  0.00066107  0.1105116 0.8500
  1   -306.1496434033  -0.017033548297 0.02153099  0.00060600  0.0898073 0.8500
                               ***Turning on DIIS***
  2   -306.1626703073  -0.013026903980 0.01705667  0.00049058  0.0697704 0.8500
  3   -306.1724676921  -0.009797384840 0.01111437  0.00035222  0.0536133 0.8500
  4   -306.1801049438  -0.007637251626 0.00763955  0.00027277  0.0429974 0.8500
  5   -306.1861653968  -0.006060453010 0.00587163  0.00022584  0.0357207 0.8500
  6   -306.1911192111  -0.004953814362 0.00480159  0.00019134  0.0301601 0.8500
  7   -306.1952358078  -0.004116596655 0.02753953  0.00109978  0.0256226 0.0000
                      *** Initiating the SOSCF procedure ***
                           *** Shutting down DIIS ***
                      *** Re-Reading the Fockian *** 
                      *** Removing any level shift *** 
ITER      Energy       Delta-E        Grad      Rot      Max-DP    RMS-DP
  8   -306.21736943  -0.0221336185  0.000690  0.000690  0.000963  0.000033
               *** Restarting incremental Fock matrix formation ***
  9   -306.21740492  -0.0000354985  0.000218  0.000368  0.000491  0.000020
 10   -306.21740628  -0.0000013546  0.000193  0.000451  0.000419  0.000011
 11   -306.21740656  -0.0000002845  0.000033  0.000066  0.000063  0.000003
 12   -306.21740660  -0.0000000386  0.000004  0.000008  0.000019  0.000000
 13   -306.21740661  -0.0000000036  0.000003  0.000008  0.000008  0.000000
                 **** Energy Check signals convergence ****
              ***Rediagonalizing the Fockian in SOSCF/NRSCF***

               *****************************************************
               *                     SUCCESS                       *
               *           SCF CONVERGED AFTER  14 CYCLES          *
               *****************************************************

Old exchange energy                            =    -13.880447321 Eh
New exchange energy                            =    -13.880444216 Eh
Exchange energy change after final integration =      0.000003105 Eh
Total energy after final integration           =   -306.217403499 Eh
Final COS-X integration done in                =    20.851 sec

----------------
TOTAL SCF ENERGY
----------------

Total Energy       :         -306.21740350 Eh           -8332.59917 eV

Components:
Nuclear Repulsion  :          327.19947332 Eh            8903.55032 eV
Electronic Energy  :         -633.41687682 Eh          -17236.14949 eV
One Electron Energy:        -1049.06420322 Eh          -28546.48825 eV
Two Electron Energy:          415.64732640 Eh           11310.33876 eV
Max COSX asymmetry :            0.00000226 Eh               0.00006 eV
CPCM Dielectric    :           -0.08396365 Eh              -2.28477 eV

Virial components:
Potential Energy   :         -608.96786081 Eh          -16570.85794 eV
Kinetic Energy     :          302.75045732 Eh            8238.25877 eV
Virial Ratio       :            2.01145150


DFT components:
N(Alpha)           :       27.000041354306 electrons
N(Beta)            :       27.000041354306 electrons
N(Total)           :       54.000082708612 electrons
E(XC)              :      -30.880892151882 Eh       
DFET-embed. en.    :        0.000000000000 Eh       
CPCM Solvation Model Properties:
Surface-charge          :           -1.01349900
Charge-correction       :            0.00111833 Eh               0.03043 eV
Free-energy (cav+disp)  :  This term is not implemented in the current solvation scheme

---------------
SCF CONVERGENCE
---------------

  Last Energy change         ...    2.0614e-09  Tolerance :   1.0000e-08
  Last MAX-Density change    ...    3.1086e-15  Tolerance :   1.0000e-07
  Last RMS-Density change    ...    3.8096e-17  Tolerance :   5.0000e-09
  Last Orbital Gradient      ...    3.1791e-07  Tolerance :   1.0000e-05
  Last Orbital Rotation      ...    3.9757e-07  Tolerance :   1.0000e-05

             **** THE GBW FILE WAS UPDATED (9_prot_aq_1.gbw) ****
             **** DENSITY 9_prot_aq_1.scfp WAS UPDATED ****
             **** ENERGY FILE WAS UPDATED (9_prot_aq_1.en.tmp) ****
             **** THE GBW FILE WAS UPDATED (9_prot_aq_1.gbw) ****
             **** DENSITY 9_prot_aq_1.scfp WAS UPDATED ****
----------------
ORBITAL ENERGIES
----------------

  NO   OCC          E(Eh)            E(eV) 
   0   2.0000     -14.481651      -394.0658 
   1   2.0000     -14.481620      -394.0649 
   2   2.0000     -10.398317      -282.9526 
   3   2.0000     -10.327921      -281.0370 
   4   2.0000     -10.327893      -281.0363 
   5   2.0000     -10.316620      -280.7295 
   6   2.0000     -10.316592      -280.7287 
   7   2.0000      -1.189326       -32.3632 
   8   2.0000      -1.079869       -29.3847 
   9   2.0000      -0.925587       -25.1865 
  10   2.0000      -0.901150       -24.5215 
  11   2.0000      -0.828495       -22.5445 
  12   2.0000      -0.785935       -21.3864 
  13   2.0000      -0.732099       -19.9214 
  14   2.0000      -0.669947       -18.2302 
  15   2.0000      -0.653644       -17.7866 
  16   2.0000      -0.614042       -16.7089 
  17   2.0000      -0.582114       -15.8401 
  18   2.0000      -0.574048       -15.6206 
  19   2.0000      -0.569166       -15.4878 
  20   2.0000      -0.550851       -14.9894 
  21   2.0000      -0.535171       -14.5627 
  22   2.0000      -0.509694       -13.8695 
  23   2.0000      -0.495652       -13.4874 
  24   2.0000      -0.494351       -13.4520 
  25   2.0000      -0.480604       -13.0779 
  26   2.0000      -0.349485        -9.5100 
  27   0.0000       0.060913         1.6575 
  28   0.0000       0.139233         3.7887 
  29   0.0000       0.157176         4.2770 
  30   0.0000       0.165545         4.5047 
  31   0.0000       0.193841         5.2747 
  32   0.0000       0.194760         5.2997 
  33   0.0000       0.205276         5.5859 
  34   0.0000       0.215470         5.8632 
  35   0.0000       0.230098         6.2613 
  36   0.0000       0.236515         6.4359 
  37   0.0000       0.241185         6.5630 
  38   0.0000       0.256957         6.9921 
  39   0.0000       0.261627         7.1192 
  40   0.0000       0.281941         7.6720 
  41   0.0000       0.283409         7.7119 
  42   0.0000       0.289029         7.8649 
  43   0.0000       0.333512         9.0753 
  44   0.0000       0.367318         9.9952 
  45   0.0000       0.421896        11.4804 
  46   0.0000       0.462294        12.5797 
  47   0.0000       0.464271        12.6335 
  48   0.0000       0.489892        13.3307 
  49   0.0000       0.519366        14.1327 
  50   0.0000       0.543410        14.7869 
  51   0.0000       0.556729        15.1494 
  52   0.0000       0.569615        15.5000 
  53   0.0000       0.574159        15.6236 
  54   0.0000       0.640124        17.4187 
  55   0.0000       0.663835        18.0639 
  56   0.0000       0.682727        18.5779 
  57   0.0000       0.685225        18.6459 
  58   0.0000       0.720623        19.6091 
  59   0.0000       0.720727        19.6120 
  60   0.0000       0.732745        19.9390 
  61   0.0000       0.742619        20.2077 
  62   0.0000       0.747096        20.3295 
  63   0.0000       0.761437        20.7198 
  64   0.0000       0.767943        20.8968 
  65   0.0000       0.769202        20.9311 
  66   0.0000       0.776786        21.1374 
  67   0.0000       0.785320        21.3696 
  68   0.0000       0.786635        21.4054 
  69   0.0000       0.788474        21.4555 
  70   0.0000       0.800379        21.7794 
  71   0.0000       0.810440        22.0532 
  72   0.0000       0.814281        22.1577 
  73   0.0000       0.833401        22.6780 
  74   0.0000       0.915347        24.9078 
  75   0.0000       0.924185        25.1484 
  76   0.0000       1.003659        27.3110 
  77   0.0000       1.058104        28.7925 
  78   0.0000       1.067941        29.0602 
  79   0.0000       1.112262        30.2662 
  80   0.0000       1.186256        32.2797 
  81   0.0000       1.221259        33.2321 
  82   0.0000       1.230380        33.4803 
  83   0.0000       1.302681        35.4478 
  84   0.0000       1.315698        35.8020 
  85   0.0000       1.318377        35.8749 
  86   0.0000       1.323326        36.0095 
  87   0.0000       1.433577        39.0096 
  88   0.0000       1.468035        39.9473 
  89   0.0000       1.532825        41.7103 
  90   0.0000       1.580530        43.0084 
  91   0.0000       1.606625        43.7185 
  92   0.0000       1.630686        44.3732 
  93   0.0000       1.636789        44.5393 
  94   0.0000       1.663146        45.2565 
  95   0.0000       1.686342        45.8877 
  96   0.0000       1.723849        46.9083 
  97   0.0000       1.763715        47.9931 
  98   0.0000       1.805500        49.1301 
  99   0.0000       1.821231        49.5582 
 100   0.0000       1.846003        50.2323 
 101   0.0000       1.853633        50.4399 
 102   0.0000       1.865417        50.7606 
 103   0.0000       1.880040        51.1585 
 104   0.0000       1.881557        51.1998 
 105   0.0000       1.895177        51.5704 
 106   0.0000       1.904751        51.8309 
 107   0.0000       1.924753        52.3752 
 108   0.0000       1.931510        52.5591 
 109   0.0000       1.943469        52.8845 
 110   0.0000       2.002718        54.4967 
 111   0.0000       2.020803        54.9888 
 112   0.0000       2.031133        55.2699 
 113   0.0000       2.041400        55.5493 
 114   0.0000       2.057728        55.9936 
 115   0.0000       2.116328        57.5882 
 116   0.0000       2.127535        57.8932 
 117   0.0000       2.143995        58.3411 
 118   0.0000       2.146114        58.3987 
 119   0.0000       2.213135        60.2225 
 120   0.0000       2.218388        60.3654 
 121   0.0000       2.343736        63.7763 
 122   0.0000       2.349246        63.9262 
 123   0.0000       2.376413        64.6655 
 124   0.0000       2.381415        64.8016 
 125   0.0000       2.424523        65.9746 
 126   0.0000       2.432402        66.1890 
 127   0.0000       2.457348        66.8678 
 128   0.0000       2.501284        68.0634 
 129   0.0000       2.549286        69.3696 
 130   0.0000       2.592286        70.5397 
 131   0.0000       2.598407        70.7063 
 132   0.0000       2.684578        73.0511 
 133   0.0000       2.701414        73.5092 
 134   0.0000       2.764721        75.2319 
 135   0.0000       2.794383        76.0390 
 136   0.0000       2.799195        76.1700 
 137   0.0000       2.863127        77.9096 
 138   0.0000       2.866666        78.0059 
 139   0.0000       2.877535        78.3017 
 140   0.0000       2.893613        78.7392 
 141   0.0000       2.957499        80.4776 
 142   0.0000       2.970493        80.8312 
 143   0.0000       2.996698        81.5443 
 144   0.0000       3.035332        82.5956 
 145   0.0000       3.053773        83.0974 
 146   0.0000       3.063769        83.3694 
 147   0.0000       3.079192        83.7891 
 148   0.0000       3.158601        85.9499 
 149   0.0000       3.191364        86.8414 
 150   0.0000       3.238354        88.1201 
 151   0.0000       3.449905        93.8767 
 152   0.0000       3.585876        97.5767 

                    ********************************
                    * MULLIKEN POPULATION ANALYSIS *
                    ********************************

-----------------------
MULLIKEN ATOMIC CHARGES
-----------------------
   0 N :   -0.334827
   1 C :    0.309098
   2 N :   -0.334848
   3 H :    0.129133
   4 C :    0.121354
   5 C :    0.121377
   6 C :    0.097250
   7 C :    0.097280
   8 H :    0.073543
   9 H :    0.073547
  10 H :    0.080153
  11 H :    0.073545
  12 H :    0.073535
  13 H :    0.080145
  14 H :    0.084927
  15 H :    0.084932
  16 H :    0.084937
  17 H :    0.084919
Sum of atomic charges:    1.0000000

--------------------------------
MULLIKEN REDUCED ORBITAL CHARGES
--------------------------------
  0 N s       :     3.421400  s :     3.421400
      pz      :     1.572641  p :     3.883083
      px      :     1.134290
      py      :     1.176152
      dz2     :     0.002398  d :     0.030345
      dxz     :     0.005922
      dyz     :     0.003815
      dx2y2   :     0.008399
      dxy     :     0.009811
  1 C s       :     3.080849  s :     3.080849
      pz      :     0.784441  p :     2.532099
      px      :     0.822093
      py      :     0.925566
      dz2     :     0.004936  d :     0.077953
      dxz     :     0.025901
      dyz     :     0.006391
      dx2y2   :     0.019034
      dxy     :     0.021691
  2 N s       :     3.421413  s :     3.421413
      pz      :     1.572640  p :     3.883092
      px      :     1.134281
      py      :     1.176170
      dz2     :     0.002398  d :     0.030343
      dxz     :     0.005922
      dyz     :     0.003815
      dx2y2   :     0.008400
      dxy     :     0.009809
  3 H s       :     0.847555  s :     0.847555
      pz      :     0.002834  p :     0.023312
      px      :     0.001372
      py      :     0.019105
  4 C s       :     2.982155  s :     2.982155
      pz      :     1.079295  p :     2.851432
      px      :     0.992527
      py      :     0.779610
      dz2     :     0.007393  d :     0.045060
      dxz     :     0.006526
      dyz     :     0.010437
      dx2y2   :     0.014036
      dxy     :     0.006668
  5 C s       :     2.982140  s :     2.982140
      pz      :     1.079292  p :     2.851422
      px      :     0.992510
      py      :     0.779620
      dz2     :     0.007393  d :     0.045061
      dxz     :     0.006525
      dyz     :     0.010438
      dx2y2   :     0.014035
      dxy     :     0.006669
  6 C s       :     2.994947  s :     2.994947
      pz      :     1.060012  p :     2.868560
      px      :     0.774079
      py      :     1.034468
      dz2     :     0.007181  d :     0.039244
      dxz     :     0.011464
      dyz     :     0.002997
      dx2y2   :     0.011334
      dxy     :     0.006268
  7 C s       :     2.994919  s :     2.994919
      pz      :     1.060015  p :     2.868557
      px      :     0.774053
      py      :     1.034489
      dz2     :     0.007181  d :     0.039243
      dxz     :     0.011463
      dyz     :     0.002997
      dx2y2   :     0.011336
      dxy     :     0.006266
  8 H s       :     0.902811  s :     0.902811
      pz      :     0.012478  p :     0.023646
      px      :     0.005426
      py      :     0.005742
  9 H s       :     0.902808  s :     0.902808
      pz      :     0.012484  p :     0.023645
      px      :     0.005429
      py      :     0.005732
 10 H s       :     0.895742  s :     0.895742
      pz      :     0.005065  p :     0.024105
      px      :     0.002659
      py      :     0.016381
 11 H s       :     0.902810  s :     0.902810
      pz      :     0.012489  p :     0.023646
      px      :     0.005426
      py      :     0.005731
 12 H s       :     0.902818  s :     0.902818
      pz      :     0.012474  p :     0.023647
      px      :     0.005429
      py      :     0.005744
 13 H s       :     0.895749  s :     0.895749
      pz      :     0.005066  p :     0.024106
      px      :     0.002659
      py      :     0.016381
 14 H s       :     0.892497  s :     0.892497
      pz      :     0.012516  p :     0.022576
      px      :     0.004988
      py      :     0.005071
 15 H s       :     0.892492  s :     0.892492
      pz      :     0.012505  p :     0.022576
      px      :     0.004993
      py      :     0.005078
 16 H s       :     0.892487  s :     0.892487
      pz      :     0.012509  p :     0.022576
      px      :     0.004992
      py      :     0.005075
 17 H s       :     0.892505  s :     0.892505
      pz      :     0.012513  p :     0.022576
      px      :     0.004988
      py      :     0.005075


                     *******************************
                     * LOEWDIN POPULATION ANALYSIS *
                     *******************************

----------------------
LOEWDIN ATOMIC CHARGES
----------------------
   0 N :    0.022303
   1 C :    0.196520
   2 N :    0.022295
   3 H :    0.069907
   4 C :    0.067535
   5 C :    0.067531
   6 C :    0.047916
   7 C :    0.047928
   8 H :    0.042890
   9 H :    0.042878
  10 H :    0.049493
  11 H :    0.042876
  12 H :    0.042893
  13 H :    0.049487
  14 H :    0.046884
  15 H :    0.046890
  16 H :    0.046892
  17 H :    0.046883

-------------------------------
LOEWDIN REDUCED ORBITAL CHARGES
-------------------------------
  0 N s       :     3.047343  s :     3.047343
      pz      :     1.498587  p :     3.861211
      px      :     1.177586
      py      :     1.185038
      dz2     :     0.004278  d :     0.069142
      dxz     :     0.009945
      dyz     :     0.006538
      dx2y2   :     0.022873
      dxy     :     0.025509
  1 C s       :     2.833757  s :     2.833757
      pz      :     0.807183  p :     2.788228
      px      :     0.939454
      py      :     1.041591
      dz2     :     0.010993  d :     0.181495
      dxz     :     0.053544
      dyz     :     0.010108
      dx2y2   :     0.048482
      dxy     :     0.058367
  2 N s       :     3.047354  s :     3.047354
      pz      :     1.498590  p :     3.861213
      px      :     1.177582
      py      :     1.185041
      dz2     :     0.004278  d :     0.069138
      dxz     :     0.009945
      dyz     :     0.006536
      dx2y2   :     0.022874
      dxy     :     0.025505
  3 H s       :     0.859019  s :     0.859019
      pz      :     0.009285  p :     0.071074
      px      :     0.007577
      py      :     0.054212
  4 C s       :     2.832831  s :     2.832831
      pz      :     1.102228  p :     2.991161
      px      :     1.015381
      py      :     0.873552
      dz2     :     0.017576  d :     0.108473
      dxz     :     0.014485
      dyz     :     0.026548
      dx2y2   :     0.035291
      dxy     :     0.014571
  5 C s       :     2.832825  s :     2.832825
      pz      :     1.102228  p :     2.991167
      px      :     1.015378
      py      :     0.873561
      dz2     :     0.017576  d :     0.108477
      dxz     :     0.014484
      dyz     :     0.026552
      dx2y2   :     0.035291
      dxy     :     0.014574
  6 C s       :     2.818968  s :     2.818968
      pz      :     1.092750  p :     3.033481
      px      :     0.872535
      py      :     1.068196
      dz2     :     0.017920  d :     0.099635
      dxz     :     0.030410
      dyz     :     0.006748
      dx2y2   :     0.029089
      dxy     :     0.015469
  7 C s       :     2.818958  s :     2.818958
      pz      :     1.092754  p :     3.033480
      px      :     0.872513
      py      :     1.068213
      dz2     :     0.017919  d :     0.099635
      dxz     :     0.030408
      dyz     :     0.006750
      dx2y2   :     0.029092
      dxy     :     0.015466
  8 H s       :     0.890759  s :     0.890759
      pz      :     0.033825  p :     0.066350
      px      :     0.016786
      py      :     0.015739
  9 H s       :     0.890773  s :     0.890773
      pz      :     0.033840  p :     0.066349
      px      :     0.016798
      py      :     0.015711
 10 H s       :     0.883234  s :     0.883234
      pz      :     0.013475  p :     0.067273
      px      :     0.008948
      py      :     0.044849
 11 H s       :     0.890774  s :     0.890774
      pz      :     0.033853  p :     0.066351
      px      :     0.016789
      py      :     0.015709
 12 H s       :     0.890755  s :     0.890755
      pz      :     0.033813  p :     0.066352
      px      :     0.016795
      py      :     0.015745
 13 H s       :     0.883237  s :     0.883237
      pz      :     0.013476  p :     0.067276
      px      :     0.008950
      py      :     0.044850
 14 H s       :     0.885559  s :     0.885559
      pz      :     0.034664  p :     0.067557
      px      :     0.016632
      py      :     0.016261
 15 H s       :     0.885553  s :     0.885553
      pz      :     0.034634  p :     0.067557
      px      :     0.016644
      py      :     0.016279
 16 H s       :     0.885552  s :     0.885552
      pz      :     0.034643  p :     0.067556
      px      :     0.016642
      py      :     0.016271
 17 H s       :     0.885559  s :     0.885559
      pz      :     0.034655  p :     0.067558
      px      :     0.016632
      py      :     0.016271


                      *****************************
                      * MAYER POPULATION ANALYSIS *
                      *****************************

  NA   - Mulliken gross atomic population
  ZA   - Total nuclear charge
  QA   - Mulliken gross atomic charge
  VA   - Mayer's total valence
  BVA  - Mayer's bonded valence
  FA   - Mayer's free valence

  ATOM       NA         ZA         QA         VA         BVA        FA
  0 N      7.3348     7.0000    -0.3348     3.4159     3.4159    -0.0000
  1 C      5.6909     6.0000     0.3091     3.8416     3.8416    -0.0000
  2 N      7.3348     7.0000    -0.3348     3.4159     3.4159     0.0000
  3 H      0.8709     1.0000     0.1291     0.9943     0.9943     0.0000
  4 C      5.8786     6.0000     0.1214     3.9606     3.9606     0.0000
  5 C      5.8786     6.0000     0.1214     3.9606     3.9606     0.0000
  6 C      5.9028     6.0000     0.0972     3.8812     3.8812     0.0000
  7 C      5.9027     6.0000     0.0973     3.8812     3.8812    -0.0000
  8 H      0.9265     1.0000     0.0735     0.9932     0.9932     0.0000
  9 H      0.9265     1.0000     0.0735     0.9932     0.9932    -0.0000
 10 H      0.9198     1.0000     0.0802     0.9980     0.9980     0.0000
 11 H      0.9265     1.0000     0.0735     0.9932     0.9932     0.0000
 12 H      0.9265     1.0000     0.0735     0.9932     0.9932     0.0000
 13 H      0.9199     1.0000     0.0801     0.9980     0.9980    -0.0000
 14 H      0.9151     1.0000     0.0849     0.9854     0.9854     0.0000
 15 H      0.9151     1.0000     0.0849     0.9854     0.9854    -0.0000
 16 H      0.9151     1.0000     0.0849     0.9854     0.9854     0.0000
 17 H      0.9151     1.0000     0.0849     0.9854     0.9854     0.0000

  Mayer bond orders larger than 0.100000
B(  0-N ,  1-C ) :   1.4100 B(  0-N ,  5-C ) :   0.9301 B(  0-N ,  6-C ) :   0.9320 
B(  1-C ,  2-N ) :   1.4100 B(  1-C ,  3-H ) :   0.9662 B(  2-N ,  4-C ) :   0.9301 
B(  2-N ,  7-C ) :   0.9320 B(  4-C ,  5-C ) :   1.0928 B(  4-C , 14-H ) :   0.9534 
B(  4-C , 15-H ) :   0.9534 B(  5-C , 16-H ) :   0.9534 B(  5-C , 17-H ) :   0.9534 
B(  6-C ,  8-H ) :   0.9727 B(  6-C ,  9-H ) :   0.9728 B(  6-C , 10-H ) :   0.9731 
B(  7-C , 11-H ) :   0.9728 B(  7-C , 12-H ) :   0.9727 B(  7-C , 13-H ) :   0.9731 


-------
TIMINGS
-------

Total SCF time: 0 days 0 hours 2 min 20 sec 

Total time                  ....     140.134 sec
Sum of individual times     ....     139.824 sec  ( 99.8%)

Fock matrix formation       ....     137.265 sec  ( 98.0%)
  Split-RI-J                ....       4.833 sec  (  3.5% of F)
  Chain of spheres X        ....     108.154 sec  ( 78.8% of F)
  XC integration            ....      15.644 sec  ( 11.4% of F)
    Basis function eval.    ....       5.744 sec  ( 36.7% of XC)
    Density eval.           ....       3.342 sec  ( 21.4% of XC)
    XC-Functional eval.     ....       2.488 sec  ( 15.9% of XC)
    XC-Potential eval.      ....       3.596 sec  ( 23.0% of XC)
Diagonalization             ....       0.040 sec  (  0.0%)
Density matrix formation    ....       0.006 sec  (  0.0%)
Population analysis         ....       0.006 sec  (  0.0%)
Initial guess               ....       0.441 sec  (  0.3%)
Orbital Transformation      ....       0.000 sec  (  0.0%)
Orbital Orthonormalization  ....       0.000 sec  (  0.0%)
DIIS solution               ....       0.012 sec  (  0.0%)
SOSCF solution              ....       0.018 sec  (  0.0%)
Grid generation             ....       2.037 sec  (  1.5%)

Maximum memory used throughout the entire SCF-calculation: 67.1 MB


-------------------------------------------------------------------------------
                          DFT DISPERSION CORRECTION                            
                                                                               
                                 DFTD4 V2.5                                    
-------------------------------------------------------------------------------
The WB97X functional is recognized
Active option DFTDOPT                   ...         5   

Starting D4
-------------------------   ----------------
Dispersion correction           -0.001844425
-------------------------   ----------------


-------------------------   --------------------
FINAL SINGLE POINT ENERGY      -306.219247923648
-------------------------   --------------------

------------------------------------------------------------------------------
                         ORCA SCF GRADIENT CALCULATION
------------------------------------------------------------------------------

 ... reading COSX grid (gridx3)
Gradient of the Kohn-Sham DFT energy:
Kohn-Sham wavefunction type      ... RKS
Hartree-Fock exchange scaling    ...    0.158
Number of operators              ...    1
Number of atoms                  ...   18
Basis set dimensions             ...  153
Integral neglect threshold       ... 2.5e-11
Integral primitive cutoff        ... 2.5e-12
SHARK Integral package           ... ON

Nuc. rep. gradient       (SHARK) ... done (  0.0 sec)
HCore & Overlap gradient (SHARK) ... done (  0.2 sec)
RI-J gradient            (SHARK) ... done (  1.1 sec)
COSX-gradient                    ... done ( 21.8 sec)
Exchange-correlation gradient    ... done
Dispersion correction            ... Starting D4


------------------- 
Dispersion Gradient 
------------------- 
   1  :   -0.000012516   -0.000000853    0.000000006
   2  :   -0.000000002   -0.000008874    0.000000000
   3  :    0.000012515   -0.000000854    0.000000004
   4  :    0.000000000   -0.000003630    0.000000002
   5  :    0.000010186    0.000018682   -0.000000004
   6  :   -0.000010185    0.000018683    0.000000000
   7  :   -0.000035112   -0.000009223   -0.000000008
   8  :    0.000035113   -0.000009221   -0.000000004
   9  :   -0.000007384   -0.000002598    0.000000196
  10  :   -0.000007382   -0.000002597   -0.000000196
  11  :   -0.000008539   -0.000002489   -0.000000000
  12  :    0.000007383   -0.000002598   -0.000000196
  13  :    0.000007384   -0.000002598    0.000000196
  14  :    0.000008539   -0.000002489   -0.000000000
  15  :    0.000002743    0.000002665   -0.000001187
  16  :    0.000002744    0.000002665    0.000001188
  17  :   -0.000002745    0.000002666   -0.000001187
  18  :   -0.000002743    0.000002665    0.000001189

  |G| =    0.000066408

done

------------------
CARTESIAN GRADIENT
------------------

   1   N   :   -0.003407985   -0.003644993    0.000030719
   2   C   :   -0.000022354   -0.003169836   -0.000006793
   3   N   :    0.003405338   -0.003676228    0.000016479
   4   H   :    0.000006507    0.012139634    0.000004560
   5   C   :    0.004772915   -0.002620674    0.000011001
   6   C   :   -0.004773624   -0.002632653   -0.000029247
   7   C   :    0.003854509    0.001648516   -0.000019429
   8   C   :   -0.003831260    0.001646540   -0.000025054
   9   H   :    0.002146111   -0.002014463    0.005396433
  10   H   :    0.002155012   -0.002004411   -0.005394787
  11   H   :   -0.000478409    0.007184048    0.000005677
  12   H   :   -0.002158051   -0.002007482   -0.005403856
  13   H   :   -0.002147061   -0.002017480    0.005405664
  14   H   :    0.000477504    0.007201885    0.000010730
  15   H   :   -0.002111810   -0.001541086    0.004365664
  16   H   :   -0.002099400   -0.001544604   -0.004366204
  17   H   :    0.002101575   -0.001536358    0.004365517
  18   H   :    0.002110664   -0.001548284   -0.004367588

Difference to translation invariance:
           :    0.0000001806   -0.0001379287   -0.0000005140

Difference to rotation invariance:
           :   -0.0000137492    0.0000013295   -0.0000007575

Norm of the cartesian gradient     ...    0.0257012501
RMS gradient                       ...    0.0034974971
MAX gradient                       ...    0.0121396343

-------
TIMINGS
-------

Total SCF gradient time            ...       30.265 sec

One electron gradient       ....       0.213 sec  (  0.7%)
RI-J Coulomb gradient       ....       1.139 sec  (  3.8%)
COSX gradient               ....      21.823 sec  ( 72.1%)
XC gradient                 ....       5.666 sec  ( 18.7%)
CPCM gradient               ....       0.514 sec  (  1.7%)
   A-Matrix (El+Nuc)        ....       0.054 sec  (  0.2%)
   Potential                ....       0.460 sec  (  1.5%)

Maximum memory used throughout the entire SCFGRAD-calculation: 53.9 MB
------------------------------------------------------------------------------
                         ORCA GEOMETRY RELAXATION STEP
------------------------------------------------------------------------------

Reading the OPT-File                    .... done
Getting information on internals        .... done
Copying old internal coords+grads       .... done
Making the new internal coordinates     .... (new redundants).... done
Validating the new internal coordinates .... (new redundants).... done
Calculating the B-matrix                .... done
Calculating the G,G- and P matrices     .... done
Transforming gradient to internals      .... done
Projecting the internal gradient        .... done
Number of atoms                         ....  18
Number of internal coordinates          ....  92
Current Energy                          ....  -306.219247924 Eh
Current gradient norm                   ....     0.025701250 Eh/bohr
Maximum allowed component of the step   ....  0.300
Current trust radius                    ....  0.300
Evaluating the initial hessian          ....  (Almloef) done
Projecting the Hessian                  .... done
Forming the augmented Hessian           .... done
Diagonalizing the augmented Hessian     .... done
Last element of RFO vector              ....  0.997318520
Lowest eigenvalues of augmented Hessian:
 -0.002059843  0.013977639  0.019424393  0.019426613  0.024610931
Length of the computed step             ....  0.073379892
The final length of the internal step   ....  0.073379892
Converting the step to cartesian space:
 Initial RMS(Int)=    0.0076503826
Transforming coordinates:
 Iter   0:  RMS(Cart)=    0.0157446874 RMS(Int)=    0.6551087275
 Iter   1:  RMS(Cart)=    0.0000863838 RMS(Int)=    0.0000276508
 Iter   2:  RMS(Cart)=    0.0000007950 RMS(Int)=    0.0000003867
 Iter   3:  RMS(Cart)=    0.0000000048 RMS(Int)=    0.0000000022
done
Storing new coordinates                 .... done

                                .--------------------.
          ----------------------|Geometry convergence|-------------------------
          Item                value                   Tolerance       Converged
          ---------------------------------------------------------------------
          RMS gradient        0.0029832377            0.0001000000      NO
          MAX gradient        0.0121472965            0.0003000000      NO
          RMS step            0.0076503826            0.0020000000      NO
          MAX step            0.0321277460            0.0040000000      NO
          ........................................................
          Max(Bonds)      0.0170      Max(Angles)    0.50
          Max(Dihed)        0.33      Max(Improp)    0.00
          ---------------------------------------------------------------------

The optimization has not yet converged - more geometry cycles are needed


    ---------------------------------------------------------------------------
                         Redundant Internal Coordinates
                            (Angstroem and degrees)

        Definition                    Value    dE/dq     Step     New-Value
    ----------------------------------------------------------------------------
     1. B(C   1,N   0)                1.3086 -0.004140  0.0030    1.3116   
     2. B(N   2,C   1)                1.3086 -0.004132  0.0030    1.3116   
     3. B(H   3,C   1)                1.0782 -0.012147  0.0170    1.0952   
     4. B(C   4,N   2)                1.4592 -0.006043  0.0073    1.4664   
     5. B(C   5,C   4)                1.5395 -0.001689  0.0022    1.5417   
     6. B(C   5,N   0)                1.4591 -0.006054  0.0073    1.4664   
     7. B(C   6,N   0)                1.4337 -0.008826  0.0098    1.4434   
     8. B(C   7,N   2)                1.4337 -0.008812  0.0097    1.4434   
     9. B(H   8,C   6)                1.0916 -0.006079  0.0089    1.1005   
    10. B(H   9,C   6)                1.0916 -0.006079  0.0089    1.1005   
    11. B(H  10,C   6)                1.0872 -0.007178  0.0104    1.0975   
    12. B(H  11,C   7)                1.0915 -0.006089  0.0089    1.1005   
    13. B(H  12,C   7)                1.0915 -0.006088  0.0089    1.1005   
    14. B(H  13,C   7)                1.0871 -0.007196  0.0104    1.0975   
    15. B(H  14,C   4)                1.0931 -0.005030  0.0074    1.1005   
    16. B(H  15,C   4)                1.0931 -0.005026  0.0074    1.1005   
    17. B(H  16,C   5)                1.0931 -0.005024  0.0074    1.1005   
    18. B(H  17,C   5)                1.0931 -0.005034  0.0074    1.1005   
    19. A(C   1,N   0,C   5)          110.12 -0.000732    0.13    110.24   
    20. A(C   1,N   0,C   6)          128.20  0.003441   -0.49    127.71   
    21. A(C   5,N   0,C   6)          121.68 -0.002709    0.37    122.05   
    22. A(N   2,C   1,H   3)          123.06 -0.000810    0.08    123.14   
    23. A(N   0,C   1,H   3)          123.07 -0.000797    0.08    123.14   
    24. A(N   0,C   1,N   2)          113.87  0.001607   -0.16    113.72   
    25. A(C   1,N   2,C   7)          128.21  0.003464   -0.50    127.71   
    26. A(C   1,N   2,C   4)          110.11 -0.000739    0.13    110.24   
    27. A(C   4,N   2,C   7)          121.67 -0.002725    0.37    122.04   
    28. A(C   5,C   4,H  14)          112.79 -0.000199    0.08    112.87   
    29. A(N   2,C   4,H  15)          110.00  0.000377   -0.15    109.86   
    30. A(N   2,C   4,H  14)          110.00  0.000383   -0.15    109.85   
    31. A(N   2,C   4,C   5)          102.95 -0.000068   -0.05    102.90   
    32. A(H  14,C   4,H  15)          108.22 -0.000254    0.15    108.37   
    33. A(C   5,C   4,H  15)          112.80 -0.000184    0.08    112.88   
    34. A(N   0,C   5,C   4)          102.95 -0.000068   -0.05    102.90   
    35. A(N   0,C   5,H  17)          110.00  0.000378   -0.14    109.85   
    36. A(H  16,C   5,H  17)          108.21 -0.000255    0.15    108.37   
    37. A(C   4,C   5,H  16)          112.80 -0.000188    0.08    112.88   
    38. A(C   4,C   5,H  17)          112.79 -0.000195    0.08    112.87   
    39. A(N   0,C   5,H  16)          110.01  0.000384   -0.15    109.86   
    40. A(N   0,C   6,H  10)          110.13  0.000776   -0.17    109.96   
    41. A(H   8,C   6,H   9)          108.33 -0.001102    0.27    108.61   
    42. A(N   0,C   6,H   9)          110.11  0.000681   -0.11    110.00   
    43. A(N   0,C   6,H   8)          110.11  0.000693   -0.11    110.00   
    44. A(H   9,C   6,H  10)          109.06 -0.000550    0.06    109.13   
    45. A(H   8,C   6,H  10)          109.06 -0.000552    0.06    109.12   
    46. A(H  12,C   7,H  13)          109.06 -0.000552    0.06    109.13   
    47. A(H  11,C   7,H  13)          109.06 -0.000551    0.06    109.13   
    48. A(N   2,C   7,H  13)          110.13  0.000776   -0.17    109.96   
    49. A(H  11,C   7,H  12)          108.33 -0.001105    0.28    108.61   
    50. A(N   2,C   7,H  12)          110.11  0.000701   -0.11    110.00   
    51. A(N   2,C   7,H  11)          110.11  0.000679   -0.11    110.00   
    52. D(H   3,C   1,N   0,C   5)   -180.00  0.000002   -0.00   -180.00   
    53. D(N   2,C   1,N   0,C   6)    179.96 -0.000005    0.01    179.97   
    54. D(N   2,C   1,N   0,C   5)      0.00  0.000001   -0.00      0.00   
    55. D(H   3,C   1,N   0,C   6)     -0.04 -0.000005    0.01     -0.04   
    56. D(C   7,N   2,C   1,H   3)      0.01  0.000004   -0.00      0.01   
    57. D(C   4,N   2,C   1,N   0)     -0.01  0.000002    0.00     -0.01   
    58. D(C   4,N   2,C   1,H   3)    179.99  0.000001    0.00    179.99   
    59. D(C   7,N   2,C   1,N   0)   -179.99  0.000005   -0.00   -179.99   
    60. D(H  14,C   4,N   2,C   7)     59.55  0.000082    0.00     59.56   
    61. D(H  14,C   4,N   2,C   1)   -120.42  0.000083    0.00   -120.42   
    62. D(H  15,C   4,N   2,C   1)    120.47 -0.000075   -0.01    120.46   
    63. D(C   5,C   4,N   2,C   7)    179.99 -0.000005    0.00    180.00   
    64. D(C   5,C   4,N   2,C   1)      0.02 -0.000004    0.00      0.02   
    65. D(H  15,C   4,N   2,C   7)    -59.56 -0.000076   -0.00    -59.56   
    66. D(C   4,C   5,N   0,C   1)      0.01 -0.000004    0.00      0.01   
    67. D(H  17,C   5,C   4,H  15)     -0.02 -0.000001    0.00     -0.02   
    68. D(H  17,C   5,C   4,H  14)   -123.00  0.000634   -0.33   -123.33   
    69. D(H  16,C   5,C   4,H  15)    122.96 -0.000637    0.33    123.29   
    70. D(H  16,C   5,C   4,H  14)     -0.02 -0.000002    0.00     -0.02   
    71. D(H  16,C   5,C   4,N   2)   -118.53 -0.000319    0.16   -118.36   
    72. D(N   0,C   5,C   4,H  15)   -118.53 -0.000314    0.16   -118.36   
    73. D(N   0,C   5,C   4,H  14)    118.49  0.000321   -0.16    118.33   
    74. D(N   0,C   5,C   4,N   2)     -0.01  0.000004   -0.00     -0.01   
    75. D(H  17,C   5,N   0,C   6)     59.61  0.000084   -0.01     59.60   
    76. D(H  17,C   5,N   0,C   1)   -120.43  0.000081    0.00   -120.43   
    77. D(H  17,C   5,C   4,N   2)    118.49  0.000317   -0.16    118.33   
    78. D(H  16,C   5,N   0,C   6)    -59.50 -0.000074   -0.01    -59.51   
    79. D(H  16,C   5,N   0,C   1)    120.46 -0.000077   -0.00    120.45   
    80. D(C   4,C   5,N   0,C   6)   -179.95 -0.000001   -0.01   -179.96   
    81. D(H   8,C   6,N   0,C   5)     59.63 -0.000256    0.11     59.74   
    82. D(H   8,C   6,N   0,C   1)   -120.32 -0.000250    0.10   -120.22   
    83. D(H  10,C   6,N   0,C   5)    179.93 -0.000003    0.01    179.94   
    84. D(H  10,C   6,N   0,C   1)     -0.02  0.000003   -0.00     -0.02   
    85. D(H   9,C   6,N   0,C   5)    -59.77  0.000245   -0.09    -59.86   
[...]
      8       0.000002   0.000001  -0.000001  -0.000000  -0.000000   0.000791
      9      -0.459781  -0.001726  -0.000000   0.000171  -0.000000   0.000000
     10       0.000001   0.000001  -0.003845   0.000001   0.015896   0.000009
     11      -0.000028   0.000001  -0.000001   0.000001   0.000001  -0.000000
     12       0.052742  -0.000737  -0.000469  -0.032611  -0.035182  -0.000032
     13      -0.011401  -0.001208  -0.000083  -0.036749  -0.035555  -0.000032
     14      -0.000005   0.000001   0.000001   0.000040   0.000049  -0.068746
     15       0.052742  -0.000737   0.000469  -0.032607   0.035185   0.000025
     16       0.011400   0.001208  -0.000083   0.036745  -0.035559  -0.000021
     17       0.000001   0.000001  -0.000000   0.000024  -0.000033   0.068743
     18       0.027636  -0.034045  -0.034259   0.000787   0.000590  -0.000001
     19      -0.009896  -0.005436  -0.005699   0.000654  -0.000253  -0.000004
     20      -0.000002   0.000003   0.000003   0.000000  -0.000000   0.010434
     21       0.027637  -0.034052   0.034253   0.000787  -0.000590   0.000002
     22       0.009897   0.005437  -0.005698  -0.000654  -0.000253   0.000005
     23       0.000014  -0.000014   0.000014   0.000002   0.000002  -0.010436
     24       0.183858   0.202736   0.203421  -0.004051  -0.003825  -0.037999
     25       0.076488  -0.141916  -0.141640   0.004241   0.000607   0.025379
     26      -0.072055   0.355814   0.355688  -0.008487  -0.004133  -0.062704
     27       0.183808   0.202829   0.203513  -0.004053  -0.003828   0.038005
     28       0.076368  -0.141515  -0.141240   0.004230   0.000604  -0.025302
     29       0.072165  -0.356072  -0.355944   0.008492   0.004138  -0.062735
     30      -0.021474  -0.003757  -0.003500   0.001093  -0.001182  -0.000001
     31      -0.016298   0.350091   0.350423  -0.012208  -0.001223  -0.000030
     32       0.000013   0.000226   0.000226  -0.000007  -0.000001   0.000449
     33       0.183832   0.202818  -0.203423  -0.004058   0.003818   0.037996
     34      -0.076351   0.141491  -0.141159  -0.004233   0.000598   0.025291
     35      -0.072146   0.356244  -0.355977  -0.008504   0.004125   0.062752
     36       0.183841   0.202827  -0.203430  -0.004045   0.003836  -0.038020
     37      -0.076506   0.141999  -0.141667  -0.004238   0.000614  -0.025399
     38       0.072074  -0.355783   0.355516   0.008474  -0.004147   0.062707
     39      -0.021475  -0.003756   0.003497   0.001093   0.001182   0.000000
     40       0.016297  -0.350158   0.350352   0.012208  -0.001224   0.000045
     41      -0.000029  -0.000301   0.000301   0.000010  -0.000001  -0.000449
     42      -0.098760   0.003986   0.002557   0.186991   0.187250  -0.190006
     43       0.201586   0.006396   0.000814   0.211576   0.210754  -0.213189
     44       0.049316  -0.010310  -0.004647  -0.411231  -0.411597   0.399684
     45      -0.098790   0.003987   0.002555   0.186974   0.187186   0.190357
     46       0.201597   0.006394   0.000814   0.211528   0.210649   0.213552
     47      -0.049338   0.010299   0.004641   0.410765   0.411032   0.400007
     48      -0.098776   0.003988  -0.002554   0.187003  -0.187258  -0.190311
     49      -0.201593  -0.006396   0.000810  -0.211544   0.210711   0.213483
     50      -0.049333   0.010301  -0.004637   0.410813  -0.411169  -0.399895
     51      -0.098774   0.003986  -0.002556   0.186921  -0.187217   0.190033
     52      -0.201585  -0.006394   0.000814  -0.211515   0.210738  -0.213240
     53       0.049318  -0.010309   0.004646  -0.411096   0.411548  -0.399759
                 48         49         50         51         52         53    
      0       0.000000   0.000000  -0.000000   0.000664   0.000710  -0.004183
      1       0.000000   0.000000  -0.000000   0.000124   0.000180   0.003773
      2       0.000696   0.000392  -0.000097   0.000000   0.000000   0.000000
      3       0.000000   0.000000   0.000000  -0.000473   0.000005   0.000000
      4      -0.000000   0.000000  -0.000000   0.000003   0.000285  -0.093982
      5      -0.000580   0.000000   0.000175  -0.000000   0.000001  -0.000005
      6       0.000000   0.000001   0.000001   0.000649  -0.000725   0.004183
      7       0.000000  -0.000000  -0.000000  -0.000120   0.000183   0.003773
      8       0.000696  -0.000392  -0.000097  -0.000000   0.000000   0.000000
      9       0.000000  -0.000001   0.000000  -0.001445   0.000016  -0.000001
     10       0.000005  -0.000002  -0.000004   0.000034   0.003030   0.995422
     11      -0.001304  -0.000000  -0.001327   0.000001  -0.000001   0.000051
     12      -0.000024  -0.000004  -0.000011   0.000094  -0.000005   0.000903
     13      -0.000025  -0.000004  -0.000011  -0.000434   0.000430   0.001444
     14      -0.061082  -0.010817  -0.030558   0.000002  -0.000003  -0.000000
     15      -0.000017   0.000004  -0.000009   0.000094   0.000003  -0.000903
     16       0.000015  -0.000003   0.000008   0.000443   0.000421   0.001444
     17      -0.061086   0.010803  -0.030563   0.000000  -0.000001   0.000000
     18       0.000002   0.000004  -0.000004   0.019003   0.018636  -0.000015
     19       0.000011   0.000023  -0.000020  -0.065744  -0.064392  -0.000103
     20      -0.030188  -0.066865   0.060686  -0.000021  -0.000021  -0.000000
     21       0.000005  -0.000009  -0.000008   0.018592  -0.019045   0.000015
     22       0.000013  -0.000024  -0.000021   0.064327  -0.065808  -0.000104
     23      -0.030189   0.066891   0.060657   0.000026  -0.000027   0.000001
     24       0.106350   0.233609  -0.211429  -0.114154  -0.111835   0.002192
     25      -0.074287  -0.166459   0.151306   0.077201   0.075477   0.000056
     26       0.179878   0.399196  -0.362130  -0.204635  -0.200385   0.001700
     27      -0.106370  -0.233658   0.211475  -0.114037  -0.111720   0.002193
     28       0.074065   0.165965  -0.150859   0.076850   0.075132   0.000056
     29       0.179968   0.399401  -0.362318   0.204488   0.200241  -0.001701
     30      -0.000000  -0.000002   0.000002  -0.008050  -0.007875   0.001905
     31       0.000091   0.000221  -0.000206   0.620096   0.606605  -0.000389
     32      -0.002428  -0.006115   0.005676   0.000394   0.000386   0.000002
     33       0.106335  -0.233670  -0.211303  -0.111500   0.114093  -0.002194
     34       0.074030  -0.165954  -0.150718  -0.075130   0.076718   0.000055
     35       0.180004  -0.399636  -0.362217  -0.200052   0.204609  -0.001704
     36      -0.106392   0.233776   0.211395  -0.111772   0.114372  -0.002191
     37      -0.074328   0.166601   0.151303  -0.075608   0.077208   0.000057
     38       0.179855  -0.399270  -0.361880   0.200256  -0.204821   0.001697
     39       0.000002  -0.000004  -0.000004  -0.007874   0.008045  -0.001905
     40       0.000137  -0.000359  -0.000335  -0.606754   0.619955  -0.000388
     41      -0.002428   0.006117   0.005673  -0.000513   0.000524   0.000002
     42      -0.172902  -0.030747  -0.086859   0.001496  -0.001286  -0.002934
     43      -0.192952  -0.032083  -0.094434   0.000754  -0.000339  -0.002952
     44       0.362175   0.063019   0.180335  -0.002183   0.001809   0.005602
     45       0.173179   0.030790   0.086984   0.001484  -0.001271  -0.002937
     46       0.193235   0.032130   0.094564   0.000745  -0.000325  -0.002955
     47       0.362383   0.063048   0.180415   0.002159  -0.001777  -0.005602
     48       0.173153  -0.030746   0.086986   0.001518   0.001250   0.002936
     49      -0.193191   0.032077  -0.094555  -0.000756  -0.000319  -0.002955
     50       0.362315  -0.062952   0.180408   0.002209   0.001752   0.005601
     51      -0.172948   0.030706  -0.086883   0.001517   0.001241   0.002934
     52       0.193020  -0.032044   0.094471  -0.000758  -0.000312  -0.002953
     53       0.362288  -0.062939   0.180395  -0.002210  -0.001738  -0.005603


-----------
IR SPECTRUM
-----------

 Mode   freq       eps      Int      T**2         TX        TY        TZ
       cm**-1   L/(mol*cm) km/mol    a.u.
----------------------------------------------------------------------------
  7:    116.72   0.000630    3.18  0.001685  ( 0.000003  0.000005  0.041046)
  8:    128.00   0.000000    0.00  0.000000  ( 0.000042  0.000008 -0.000000)
  9:    164.49   0.001035    5.23  0.001964  (-0.000012 -0.000007  0.044316)
 10:    203.21   0.000000    0.00  0.000000  ( 0.000031  0.000007  0.000002)
 11:    266.84   0.000003    0.01  0.000003  (-0.000000  0.001851 -0.000004)
 12:    397.73   0.000206    1.04  0.000162  (-0.012710 -0.000000 -0.000009)
 13:    464.89   0.009220   46.59  0.006189  ( 0.000004 -0.000004  0.078668)
 14:    616.77   0.000003    0.02  0.000002  (-0.000001 -0.001242 -0.000008)
 15:    635.96   0.001594    8.06  0.000782  (-0.027969  0.000000 -0.000008)
 16:    841.32   0.000000    0.00  0.000000  (-0.000009  0.000002  0.000182)
 17:    948.66   0.002633   13.31  0.000866  (-0.000002 -0.029433  0.000003)
 18:    959.07   0.002641   13.35  0.000859  ( 0.029313 -0.000002  0.000007)
 19:   1011.85   0.001189    6.01  0.000367  ( 0.000009 -0.000009  0.019149)
 20:   1016.12   0.000034    0.17  0.000011  ( 0.000000  0.003248  0.000020)
 21:   1092.53   0.000000    0.00  0.000000  ( 0.000114  0.000010 -0.000000)
 22:   1103.23   0.015243   77.03  0.004312  (-0.065664  0.000001  0.000000)
 23:   1114.78   0.003417   17.27  0.000956  (-0.000001 -0.030926 -0.000006)
 24:   1141.86   0.000261    1.32  0.000071  ( 0.000006 -0.000033  0.008450)
 25:   1157.60   0.000000    0.00  0.000000  ( 0.000029 -0.000006  0.000000)
 26:   1201.37   0.023179  117.14  0.006021  (-0.077594 -0.000000  0.000011)
 27:   1228.56   0.002457   12.42  0.000624  ( 0.000048  0.000003  0.024984)
 28:   1257.03   0.000000    0.00  0.000000  ( 0.000003 -0.000018 -0.000000)
 29:   1331.96   0.007320   36.99  0.001715  (-0.041413 -0.000001 -0.000002)
 30:   1338.47   0.002576   13.02  0.000601  ( 0.000001 -0.024509  0.000000)
 31:   1351.24   0.015125   76.44  0.003493  (-0.059103  0.000001  0.000010)
 32:   1394.08   0.006810   34.42  0.001524  ( 0.000001  0.039044  0.000003)
 33:   1435.64   0.012660   63.98  0.002752  ( 0.052458 -0.000000 -0.000017)
 34:   1436.88   0.000000    0.00  0.000000  ( 0.000181  0.000007 -0.000012)
 35:   1437.62   0.009548   48.25  0.002073  (-0.000013 -0.000025 -0.045527)
 36:   1446.74   0.000677    3.42  0.000146  ( 0.000000  0.012081  0.000006)
 37:   1467.34   0.009046   45.71  0.001924  (-0.000000 -0.043862  0.000025)
 38:   1472.46   0.000001    0.00  0.000000  ( 0.000366  0.000000 -0.000003)
 39:   1474.44   0.000027    0.14  0.000006  (-0.002401 -0.000001 -0.000008)
 40:   1486.54   0.000472    2.39  0.000099  (-0.000000  0.009955 -0.000004)
 41:   1627.46   0.006644   33.58  0.001274  ( 0.000001 -0.035694 -0.000003)
 42:   1767.61   0.166452  841.18  0.029386  ( 0.171424  0.000000 -0.000005)
 43:   3075.97   0.013358   67.51  0.001355  (-0.036813  0.000000 -0.000003)
 44:   3077.18   0.000227    1.15  0.000023  (-0.000004 -0.004803  0.000011)
 45:   3104.14   0.003254   16.45  0.000327  (-0.018088 -0.000001  0.000016)
 46:   3108.94   0.002857   14.44  0.000287  ( 0.000001 -0.016936  0.000002)
 47:   3167.68   0.000000    0.00  0.000000  (-0.000000 -0.000006 -0.000001)
 48:   3176.99   0.004004   20.23  0.000393  (-0.000002 -0.000000 -0.019832)
 49:   3182.09   0.000000    0.00  0.000000  ( 0.000006 -0.000000  0.000002)
 50:   3182.92   0.000823    4.16  0.000081  (-0.000002 -0.000005  0.008983)
 51:   3209.48   0.000504    2.55  0.000049  ( 0.006998 -0.000051  0.000000)
 52:   3209.49   0.000225    1.14  0.000022  (-0.000076 -0.004681 -0.000000)
 53:   3263.94   0.003105   15.69  0.000297  ( 0.000000  0.017231  0.000001)

* The epsilon (eps) is given for a Dirac delta lineshape.
** The dipole moment derivative (T) already includes vibrational overlap.

The first frequency considered to be a vibration is 7
The total number of vibrations considered is 47


--------------------------
THERMOCHEMISTRY AT 298.15K
--------------------------

Temperature         ... 298.15 K
Pressure            ... 1.00 atm
Total Mass          ... 99.16 AMU

Throughout the following assumptions are being made:
  (1) The electronic state is orbitally nondegenerate
  (2) There are no thermally accessible electronically excited states
  (3) Hindered rotations indicated by low frequency modes are not
      treated as such but are treated as vibrations and this may
      cause some error
  (4) All equations used are the standard statistical mechanics
      equations for an ideal gas
  (5) All vibrations are strictly harmonic

freq.     116.72  E(vib)   ...       0.44 
freq.     128.00  E(vib)   ...       0.43 
freq.     164.49  E(vib)   ...       0.39 
freq.     203.21  E(vib)   ...       0.35 
freq.     266.84  E(vib)   ...       0.29 
freq.     397.73  E(vib)   ...       0.20 
freq.     464.89  E(vib)   ...       0.16 
freq.     616.77  E(vib)   ...       0.09 
freq.     635.96  E(vib)   ...       0.09 
freq.     841.32  E(vib)   ...       0.04 
freq.     948.66  E(vib)   ...       0.03 
freq.     959.07  E(vib)   ...       0.03 
freq.    1011.85  E(vib)   ...       0.02 
freq.    1016.12  E(vib)   ...       0.02 
freq.    1092.53  E(vib)   ...       0.02 
freq.    1103.23  E(vib)   ...       0.02 
freq.    1114.78  E(vib)   ...       0.01 
freq.    1141.86  E(vib)   ...       0.01 
freq.    1157.60  E(vib)   ...       0.01 
freq.    1201.37  E(vib)   ...       0.01 
freq.    1228.56  E(vib)   ...       0.01 
freq.    1257.03  E(vib)   ...       0.01 
freq.    1331.96  E(vib)   ...       0.01 
freq.    1338.47  E(vib)   ...       0.01 
freq.    1351.24  E(vib)   ...       0.01 
freq.    1394.08  E(vib)   ...       0.00 
freq.    1435.64  E(vib)   ...       0.00 
freq.    1436.88  E(vib)   ...       0.00 
freq.    1437.62  E(vib)   ...       0.00 
freq.    1446.74  E(vib)   ...       0.00 
freq.    1467.34  E(vib)   ...       0.00 
freq.    1472.46  E(vib)   ...       0.00 
freq.    1474.44  E(vib)   ...       0.00 
freq.    1486.54  E(vib)   ...       0.00 
freq.    1627.46  E(vib)   ...       0.00 
freq.    1767.61  E(vib)   ...       0.00 
freq.    3075.97  E(vib)   ...       0.00 
freq.    3077.18  E(vib)   ...       0.00 
freq.    3104.14  E(vib)   ...       0.00 
freq.    3108.94  E(vib)   ...       0.00 
freq.    3167.68  E(vib)   ...       0.00 
freq.    3176.99  E(vib)   ...       0.00 
freq.    3182.09  E(vib)   ...       0.00 
freq.    3182.92  E(vib)   ...       0.00 
freq.    3209.48  E(vib)   ...       0.00 
freq.    3209.49  E(vib)   ...       0.00 
freq.    3263.94  E(vib)   ...       0.00 

------------
INNER ENERGY
------------

The inner energy is: U= E(el) + E(ZPE) + E(vib) + E(rot) + E(trans)
    E(el)   - is the total energy from the electronic structure calculation
              = E(kin-el) + E(nuc-el) + E(el-el) + E(nuc-nuc)
    E(ZPE)  - the the zero temperature vibrational energy from the frequency calculation
    E(vib)  - the the finite temperature correction to E(ZPE) due to population
              of excited vibrational states
    E(rot)  - is the rotational thermal energy
    E(trans)- is the translational thermal energy

Summary of contributions to the inner energy U:
Electronic energy                ...   -306.22043322 Eh
Zero point energy                ...      0.16470221 Eh     103.35 kcal/mol
Thermal vibrational correction   ...      0.00435093 Eh       2.73 kcal/mol
Thermal rotational correction    ...      0.00141627 Eh       0.89 kcal/mol
Thermal translational correction ...      0.00141627 Eh       0.89 kcal/mol
-----------------------------------------------------------------------
Total thermal energy                   -306.04854754 Eh


Summary of corrections to the electronic energy:
(perhaps to be used in another calculation)
Total thermal correction                  0.00718347 Eh       4.51 kcal/mol
Non-thermal (ZPE) correction              0.16470221 Eh     103.35 kcal/mol
-----------------------------------------------------------------------
Total correction                          0.17188568 Eh     107.86 kcal/mol


--------
ENTHALPY
--------

The enthalpy is H = U + kB*T
                kB is Boltzmann's constant
Total free energy                 ...   -306.04854754 Eh 
Thermal Enthalpy correction       ...      0.00094421 Eh       0.59 kcal/mol
-----------------------------------------------------------------------
Total Enthalpy                    ...   -306.04760333 Eh


Note: Only C1 symmetry has been detected, increase convergence thresholds 
      if your molecule has a higher symmetry. Symmetry factor of 1.0 is   
      used for the rotational entropy correction. 
 

Note: Rotational entropy computed according to Herzberg 
Infrared and Raman Spectra, Chapter V,1, Van Nostrand Reinhold, 1945 
Point Group:  C1, Symmetry Number:   1  
Rotational constants in cm-1:     0.191216     0.066431     0.051238 

Vibrational entropy computed according to the QRRHO of S. Grimme
Chem.Eur.J. 2012 18 9955


-------
ENTROPY
-------

The entropy contributions are T*S = T*(S(el)+S(vib)+S(rot)+S(trans))
     S(el)   - electronic entropy
     S(vib)  - vibrational entropy
     S(rot)  - rotational entropy
     S(trans)- translational entropy
The entropies will be listed as multiplied by the temperature to get
units of energy

Electronic entropy                ...      0.00000000 Eh      0.00 kcal/mol
Vibrational entropy               ...      0.00751156 Eh      4.71 kcal/mol
Rotational entropy                ...      0.01297464 Eh      8.14 kcal/mol
Translational entropy             ...      0.01885925 Eh     11.83 kcal/mol
-----------------------------------------------------------------------
Final entropy term                ...      0.03934545 Eh     24.69 kcal/mol

In case the symmetry of your molecule has not been determined correctly
or in case you have a reason to use a different symmetry number we print 
out the resulting rotational entropy values for sn=1,12 :
 --------------------------------------------------------
|  sn= 1 | S(rot)=       0.01297464 Eh      8.14 kcal/mol|
|  sn= 2 | S(rot)=       0.01232019 Eh      7.73 kcal/mol|
|  sn= 3 | S(rot)=       0.01193736 Eh      7.49 kcal/mol|
|  sn= 4 | S(rot)=       0.01166573 Eh      7.32 kcal/mol|
|  sn= 5 | S(rot)=       0.01145504 Eh      7.19 kcal/mol|
|  sn= 6 | S(rot)=       0.01128290 Eh      7.08 kcal/mol|
|  sn= 7 | S(rot)=       0.01113735 Eh      6.99 kcal/mol|
|  sn= 8 | S(rot)=       0.01101127 Eh      6.91 kcal/mol|
|  sn= 9 | S(rot)=       0.01090007 Eh      6.84 kcal/mol|
|  sn=10 | S(rot)=       0.01080059 Eh      6.78 kcal/mol|
|  sn=11 | S(rot)=       0.01071060 Eh      6.72 kcal/mol|
|  sn=12 | S(rot)=       0.01062844 Eh      6.67 kcal/mol|
 --------------------------------------------------------


-------------------
GIBBS FREE ENERGY
-------------------

The Gibbs free energy is G = H - T*S

Total enthalpy                    ...   -306.04760333 Eh 
Total entropy correction          ...     -0.03934545 Eh    -24.69 kcal/mol
-----------------------------------------------------------------------
Final Gibbs free energy         ...   -306.08694879 Eh

For completeness - the Gibbs free energy minus the electronic energy
G-E(el)                           ...      0.13348443 Eh     83.76 kcal/mol


Timings for individual modules:

Sum of individual times         ...     1079.313 sec (=  17.989 min)
GTO integral calculation        ...        1.069 sec (=   0.018 min)   0.1 %
SCF iterations                  ...      463.122 sec (=   7.719 min)  42.9 %
SCF Gradient evaluation         ...      119.988 sec (=   2.000 min)  11.1 %
Geometry relaxation             ...        0.253 sec (=   0.004 min)   0.0 %
Analytical frequency calculation...      494.882 sec (=   8.248 min)  45.9 %
                             ****ORCA TERMINATED NORMALLY****
TOTAL RUN TIME: 0 days 0 hours 17 minutes 59 seconds 943 msec
