
                                 *****************
                                 * O   R   C   A *
                                 *****************

                                            #,                                       
                                            ###                                      
                                            ####                                     
                                            #####                                    
                                            ######                                   
                                           ########,                                 
                                     ,,################,,,,,                         
                               ,,#################################,,                 
                          ,,##########################################,,             
                       ,#########################################, ''#####,          
                    ,#############################################,,   '####,        
                  ,##################################################,,,,####,       
                ,###########''''           ''''###############################       
              ,#####''   ,,,,##########,,,,          '''####'''          '####       
            ,##' ,,,,###########################,,,                        '##       
           ' ,,###''''                  '''############,,,                           
         ,,##''                                '''############,,,,        ,,,,,,###''
      ,#''                                            '''#######################'''  
     '                                                          ''''####''''         
             ,#######,   #######,   ,#######,      ##                                
            ,#'     '#,  ##    ##  ,#'     '#,    #''#        ######   ,####,        
            ##       ##  ##   ,#'  ##            #'  '#       #        #'  '#        
            ##       ##  #######   ##           ,######,      #####,   #    #        
            '#,     ,#'  ##    ##  '#,     ,#' ,#      #,         ##   #,  ,#        
             '#######'   ##     ##  '#######'  #'      '#     #####' # '####'        



                  #######################################################
                  #                        -***-                        #
                  #          Department of theory and spectroscopy      #
                  #    Directorship and core code : Frank Neese         #
                  #        Max Planck Institute fuer Kohlenforschung    #
                  #                Kaiser Wilhelm Platz 1               #
                  #                 D-45470 Muelheim/Ruhr               #
                  #                      Germany                        #
                  #                                                     #
                  #                  All rights reserved                #
                  #                        -***-                        #
                  #######################################################


                         Program Version 5.0.3 -  RELEASE  -


 With contributions from (in alphabetic order):
   Daniel Aravena         : Magnetic Suceptibility
   Michael Atanasov       : Ab Initio Ligand Field Theory (pilot matlab implementation)
   Alexander A. Auer      : GIAO ZORA, VPT2 properties, NMR spectrum
   Ute Becker             : Parallelization
   Giovanni Bistoni       : ED, misc. LED, open-shell LED, HFLD
   Martin Brehm           : Molecular dynamics
   Dmytro Bykov           : SCF Hessian
   Vijay G. Chilkuri      : MRCI spin determinant printing, contributions to CSF-ICE
   Dipayan Datta          : RHF DLPNO-CCSD density
   Achintya Kumar Dutta   : EOM-CC, STEOM-CC
   Dmitry Ganyushin       : Spin-Orbit,Spin-Spin,Magnetic field MRCI
   Miquel Garcia          : C-PCM and meta-GGA Hessian, CC/C-PCM, Gaussian charge scheme
   Yang Guo               : DLPNO-NEVPT2, F12-NEVPT2, CIM, IAO-localization
   Andreas Hansen         : Spin unrestricted coupled pair/coupled cluster methods
   Benjamin Helmich-Paris : MC-RPA, TRAH-SCF, COSX integrals
   Lee Huntington         : MR-EOM, pCC
   Robert Izsak           : Overlap fitted RIJCOSX, COSX-SCS-MP3, EOM
   Marcus Kettner         : VPT2
   Christian Kollmar      : KDIIS, OOCD, Brueckner-CCSD(T), CCSD density, CASPT2, CASPT2-K
   Simone Kossmann        : Meta GGA functionals, TD-DFT gradient, OOMP2, MP2 Hessian
   Martin Krupicka        : Initial AUTO-CI
   Lucas Lang             : DCDCAS
   Marvin Lechner         : AUTO-CI (C++ implementation), FIC-MRCC
   Dagmar Lenk            : GEPOL surface, SMD
   Dimitrios Liakos       : Extrapolation schemes; Compound Job, initial MDCI parallelization
   Dimitrios Manganas     : Further ROCIS development; embedding schemes
   Dimitrios Pantazis     : SARC Basis sets
   Anastasios Papadopoulos: AUTO-CI, single reference methods and gradients
   Taras Petrenko         : DFT Hessian,TD-DFT gradient, ASA, ECA, R-Raman, ABS, FL, XAS/XES, NRVS
   Peter Pinski           : DLPNO-MP2, DLPNO-MP2 Gradient
   Christoph Reimann      : Effective Core Potentials
   Marius Retegan         : Local ZFS, SOC
   Christoph Riplinger    : Optimizer, TS searches, QM/MM, DLPNO-CCSD(T), (RO)-DLPNO pert. Triples
   Tobias Risthaus        : Range-separated hybrids, TD-DFT gradient, RPA, STAB
   Michael Roemelt        : Original ROCIS implementation
   Masaaki Saitow         : Open-shell DLPNO-CCSD energy and density
   Barbara Sandhoefer     : DKH picture change effects
   Avijit Sen             : IP-ROCIS
   Kantharuban Sivalingam : CASSCF convergence, NEVPT2, FIC-MRCI
   Bernardo de Souza      : ESD, SOC TD-DFT
   Georgi Stoychev        : AutoAux, RI-MP2 NMR, DLPNO-MP2 response
   Willem Van den Heuvel  : Paramagnetic NMR
   Boris Wezisla          : Elementary symmetry handling
   Frank Wennmohs         : Technical directorship


 We gratefully acknowledge several colleagues who have allowed us to
 interface, adapt or use parts of their codes:
   Stefan Grimme, W. Hujo, H. Kruse, P. Pracht,  : VdW corrections, initial TS optimization,
                  C. Bannwarth, S. Ehlert          DFT functionals, gCP, sTDA/sTD-DF
   Ed Valeev, F. Pavosevic, A. Kumar             : LibInt (2-el integral package), F12 methods
   Garnet Chan, S. Sharma, J. Yang, R. Olivares  : DMRG
   Ulf Ekstrom                                   : XCFun DFT Library
   Mihaly Kallay                                 : mrcc  (arbitrary order and MRCC methods)
   Jiri Pittner, Ondrej Demel                    : Mk-CCSD
   Frank Weinhold                                : gennbo (NPA and NBO analysis)
   Christopher J. Cramer and Donald G. Truhlar   : smd solvation model
   Lars Goerigk                                  : TD-DFT with DH, B97 family of functionals
   V. Asgeirsson, H. Jonsson                     : NEB implementation
   FAccTs GmbH                                   : IRC, NEB, NEB-TS, DLPNO-Multilevel, CI-OPT
                                                   MM, QMMM, 2- and 3-layer-ONIOM, Crystal-QMMM,
                                                   LR-CPCM, SF, NACMEs, symmetry and pop. for TD-DFT,
                                                   nearIR, NL-DFT gradient (VV10), updates on ESD,
                                                   ML-optimized integration grids
   S Lehtola, MJT Oliveira, MAL Marques          : LibXC Library
   Liviu Ungur et al                             : ANISO software


 Your calculation uses the libint2 library for the computation of 2-el integrals
 For citations please refer to: http://libint.valeyev.net

 Your ORCA version has been built with support for libXC version: 5.1.0
 For citations please refer to: https://tddft.org/programs/libxc/

 This ORCA versions uses:
   CBLAS   interface :  Fast vector & matrix operations
   LAPACKE interface :  Fast linear algebra routines
   SCALAPACK package :  Parallel linear algebra routines
   Shared memory     :  Shared parallel matrices
   BLAS/LAPACK       :  OpenBLAS 0.3.15  USE64BITINT DYNAMIC_ARCH NO_AFFINITY SkylakeX SINGLE_THREADED
        Core in use  :  SkylakeX
   Copyright (c) 2011-2014, The OpenBLAS Project




***************************************
The coordinates will be read from file: MeH.xyz
***************************************


Your calculation utilizes the atom-pairwise dispersion correction
based on tight binding partial charges (D4)
Cite in your paper:
E.Caldeweyher, C.Bannwarth, S.Grimme, J.Chem.Phys., (2017), 147, 034112.
E.Caldeweyher, S.Ehlert, A.Hansen, H.Neugebauer, S.Grimme, J.Chem.Phys., (2018), in progress.
   

XCFun DFT library Copyright 2009-2010 Ulf Ekstrom and contributors.
See http://admol.org/xcfun for more information.
This is free software; see the source code for copying conditions.
There is ABSOLUTELY NO WARRANTY; not even for MERCHANTABILITY or FITNESS FOR A PARTICULAR PURPOSE.
For details see the documentation.
Scientific users of this library should cite U. Ekstrom, L. Visscher, R. Bast, A. J. Thorvaldsen and K. Ruud;
J.Chem.Theor.Comp. 2010, DOI: 10.1021/ct100117s
XCFun Version 0.99 

================================================================================

----- Orbital basis set information -----
Your calculation utilizes the basis: def2-SVP
   F. Weigend and R. Ahlrichs, Phys. Chem. Chem. Phys. 7, 3297 (2005).

----- AuxJ basis set information -----
Your calculation utilizes the auxiliary basis: def2/J
   F. Weigend, Phys. Chem. Chem. Phys. 8, 1057 (2006).

================================================================================
                                        WARNINGS
                       Please study these warnings very carefully!
================================================================================


WARNING: Geometry Optimization
  ===> : Switching off AutoStart
         For restart on a previous wavefunction, please use MOREAD

INFO   : the flag for use of the SHARK integral package has been found!

================================================================================
                                       INPUT FILE
================================================================================
NAME = MeH_Water.inp
|  1> # ORCAForces - ../2023_02/pKa_prediction/Yates_carbene_xyzs/Our_level/Uncharged/Water/2/MeH_Water.inp
|  2> # Basic Mode
|  3> #
|  4> ! Opt FREQ wB97X D4 Def2-SVP SlowConv TightSCF DEFGRID2 Def2/J RIJCOSX CPCM(Water)
|  5> 
|  6> %maxcore 4500
|  7> 
|  8> %PAL NPROCS 4 END
|  9> 
| 10> %geom 
| 11> Maxiter 150
| 12> END
| 13> 
| 14> * xyzfile 0 1 MeH.xyz
| 15> 
| 16>                          ****END OF INPUT****
================================================================================

                       *****************************
                       * Geometry Optimization Run *
                       *****************************

Geometry optimization settings:
Update method            Update   .... BFGS
Choice of coordinates    CoordSys .... Z-matrix Internals
Initial Hessian          InHess   .... Almoef's Model

Convergence Tolerances:
Energy Change            TolE     ....  5.0000e-06 Eh
Max. Gradient            TolMAXG  ....  3.0000e-04 Eh/bohr
RMS Gradient             TolRMSG  ....  1.0000e-04 Eh/bohr
Max. Displacement        TolMAXD  ....  4.0000e-03 bohr
RMS Displacement         TolRMSD  ....  2.0000e-03 bohr
Strict Convergence                ....  False
------------------------------------------------------------------------------
                        ORCA OPTIMIZATION COORDINATE SETUP
------------------------------------------------------------------------------

The optimization will be done in new redundant internal coordinates
Making redundant internal coordinates   ...  (new redundants) done
Evaluating the initial hessian          ...  (Almloef) done
Evaluating the coordinates              ...  done
Calculating the B-matrix                .... done
Calculating the G-matrix                .... done
Diagonalizing the G-matrix              .... done
The first mode is                       ....   29
The number of degrees of freedom        ....   39

    -----------------------------------------------------------------
                    Redundant Internal Coordinates


    -----------------------------------------------------------------
         Definition                    Initial Value    Approx d2E/dq
    -----------------------------------------------------------------
      1. B(C   1,C   0)                  1.3540         0.713218   
      2. B(N   2,C   0)                  1.3903         0.558889   
      3. B(N   3,C   1)                  1.3903         0.558889   
      4. B(C   4,N   3)                  1.3673         0.608214   
      5. B(C   4,N   2)                  1.3673         0.608214   
      6. B(H   5,C   0)                  1.0776         0.376831   
      7. B(H   6,C   1)                  1.0776         0.376831   
      8. B(C   7,N   2)                  1.4537         0.442782   
      9. B(C   8,N   3)                  1.4537         0.442782   
     10. B(H   9,C   7)                  1.0936         0.355420   
     11. B(H  10,C   8)                  1.0936         0.355420   
     12. B(H  11,C   8)                  1.0936         0.355420   
     13. B(H  12,C   7)                  1.0936         0.355420   
     14. B(H  13,C   7)                  1.0877         0.363130   
     15. B(H  14,C   8)                  1.0877         0.363130   
     16. A(C   1,C   0,N   2)          106.1002         0.434050   
     17. A(N   2,C   0,H   5)          123.3834         0.347303   
     18. A(C   1,C   0,H   5)          130.5165         0.364224   
     19. A(N   3,C   1,H   6)          123.3834         0.347303   
     20. A(C   0,C   1,N   3)          106.1002         0.434050   
     21. A(C   0,C   1,H   6)          130.5165         0.364224   
     22. A(C   4,N   2,C   7)          122.7380         0.402147   
     23. A(C   0,N   2,C   4)          112.9036         0.419095   
     24. A(C   0,N   2,C   7)          124.3584         0.396209   
     25. A(C   4,N   3,C   8)          122.7380         0.402147   
     26. A(C   1,N   3,C   8)          124.3584         0.396209   
     27. A(C   1,N   3,C   4)          112.9036         0.419095   
     28. A(N   2,C   4,N   3)          101.9924         0.425475   
     29. A(N   2,C   7,H   9)          110.9112         0.330818   
     30. A(H  12,C   7,H  13)          109.3476         0.290625   
     31. A(H   9,C   7,H  13)          109.3476         0.290625   
     32. A(N   2,C   7,H  13)          107.3182         0.331996   
     33. A(H   9,C   7,H  12)          108.9714         0.289648   
     34. A(N   2,C   7,H  12)          110.9112         0.330818   
     35. A(N   3,C   8,H  10)          110.9112         0.330818   
     36. A(H  11,C   8,H  14)          109.3476         0.290625   
     37. A(H  10,C   8,H  14)          109.3476         0.290625   
     38. A(N   3,C   8,H  14)          107.3182         0.331996   
     39. A(H  10,C   8,H  11)          108.9714         0.289648   
     40. A(N   3,C   8,H  11)          110.9112         0.330818   
     41. D(H   6,C   1,C   0,H   5)      0.0000         0.035942   
     42. D(N   3,C   1,C   0,N   2)      0.0000         0.035942   
     43. D(N   3,C   1,C   0,H   5)    180.0000         0.035942   
     44. D(H   6,C   1,C   0,N   2)    180.0000         0.035942   
     45. D(C   7,N   2,C   0,C   1)    180.0000         0.024940   
     46. D(C   4,N   2,C   0,H   5)    180.0000         0.024940   
     47. D(C   7,N   2,C   0,H   5)      0.0000         0.024940   
     48. D(C   4,N   2,C   0,C   1)      0.0000         0.024940   
     49. D(C   8,N   3,C   1,H   6)      0.0000         0.024940   
     50. D(C   4,N   3,C   1,H   6)    180.0000         0.024940   
     51. D(C   8,N   3,C   1,C   0)    180.0000         0.024940   
     52. D(C   4,N   3,C   1,C   0)      0.0000         0.024940   
     53. D(N   2,C   4,N   3,C   1)      0.0000         0.027067   
     54. D(N   3,C   4,N   2,C   7)    180.0000         0.027067   
     55. D(N   3,C   4,N   2,C   0)      0.0000         0.027067   
     56. D(N   2,C   4,N   3,C   8)    180.0000         0.027067   
     57. D(H  13,C   7,N   2,C   4)      0.0000         0.016719   
     58. D(H  13,C   7,N   2,C   0)    180.0000         0.016719   
     59. D(H  12,C   7,N   2,C   4)    119.3826         0.016719   
     60. D(H  12,C   7,N   2,C   0)    -60.6174         0.016719   
     61. D(H   9,C   7,N   2,C   4)   -119.3826         0.016719   
     62. D(H   9,C   7,N   2,C   0)     60.6174         0.016719   
     63. D(H  14,C   8,N   3,C   4)      0.0000         0.016719   
     64. D(H  14,C   8,N   3,C   1)    180.0000         0.016719   
     65. D(H  11,C   8,N   3,C   4)   -119.3826         0.016719   
     66. D(H  11,C   8,N   3,C   1)     60.6174         0.016719   
     67. D(H  10,C   8,N   3,C   4)    119.3826         0.016719   
     68. D(H  10,C   8,N   3,C   1)    -60.6174         0.016719   
    -----------------------------------------------------------------

Number of atoms                         .... 15
Number of degrees of freedom            .... 68

         *************************************************************
         *                GEOMETRY OPTIMIZATION CYCLE   1            *
         *************************************************************
---------------------------------
CARTESIAN COORDINATES (ANGSTROEM)
---------------------------------
  C      0.000000    0.676985   -1.216237
  C      0.000000   -0.676985   -1.216237
  N      0.000000    1.062552    0.119576
  N      0.000000   -1.062552    0.119576
  C      0.000000    0.000000    0.980130
  H      0.000000    1.377090   -2.035478
  H      0.000000   -1.377090   -2.035478
  C      0.000000    2.443098    0.575031
  C      0.000000   -2.443098    0.575031
  H     -0.890126    2.970789    0.221346
  H     -0.890126   -2.970789    0.221346
  H      0.890126   -2.970789    0.221346
  H      0.890126    2.970789    0.221346
  H      0.000000    2.425253    1.662604
  H      0.000000   -2.425253    1.662604

----------------------------
CARTESIAN COORDINATES (A.U.)
----------------------------
  NO LB      ZA    FRAG     MASS         X           Y           Z
   0 C     6.0000    0    12.011    0.000000    1.279316   -2.298355
   1 C     6.0000    0    12.011    0.000000   -1.279316   -2.298355
   2 N     7.0000    0    14.007    0.000000    2.007932    0.225966
   3 N     7.0000    0    14.007    0.000000   -2.007932    0.225966
   4 C     6.0000    0    12.011    0.000000    0.000000    1.852177
   5 H     1.0000    0     1.008    0.000000    2.602323   -3.846496
   6 H     1.0000    0     1.008    0.000000   -2.602323   -3.846496
   7 C     6.0000    0    12.011    0.000000    4.616786    1.086651
   8 C     6.0000    0    12.011    0.000000   -4.616786    1.086651
   9 H     1.0000    0     1.008   -1.682094    5.613978    0.418283
  10 H     1.0000    0     1.008   -1.682094   -5.613978    0.418283
  11 H     1.0000    0     1.008    1.682094   -5.613978    0.418283
  12 H     1.0000    0     1.008    1.682094    5.613978    0.418283
  13 H     1.0000    0     1.008    0.000000    4.583064    3.141866
  14 H     1.0000    0     1.008    0.000000   -4.583064    3.141866

--------------------------------
INTERNAL COORDINATES (ANGSTROEM)
--------------------------------
 C      0   0   0     0.000000000000     0.00000000     0.00000000
 C      1   0   0     1.353970000000     0.00000000     0.00000000
 N      1   2   0     1.390344663189   106.10017379     0.00000000
 N      2   1   3     1.390344663189   106.10017379     0.00000000
 C      3   1   2     1.367322178428   112.90361537     0.00000000
 H      1   2   3     1.077637613999   130.51645814   180.00000085
 H      2   1   3     1.077637613999   130.51645814   180.00000085
 C      3   1   2     1.453735366269   124.35837855   180.00000085
 C      4   2   1     1.453735366269   124.35837855   180.00000085
 H      8   3   1     1.093560774069   110.91121099    60.61740894
 H      9   4   2     1.093560774069   110.91121099   299.38259106
 H      9   4   2     1.093560774069   110.91121099    60.61740894
 H      8   3   1     1.093560774069   110.91121099   299.38259106
 H      8   3   1     1.087719391366   107.31817458   180.00000000
 H      9   4   2     1.087719391366   107.31817458   180.00000000

---------------------------
INTERNAL COORDINATES (A.U.)
---------------------------
 C      0   0   0     0.000000000000     0.00000000     0.00000000
 C      1   0   0     2.558632493545     0.00000000     0.00000000
 N      1   2   0     2.627370645186   106.10017379     0.00000000
 N      2   1   3     2.627370645186   106.10017379     0.00000000
 C      3   1   2     2.583864454065   112.90361537     0.00000000
 H      1   2   3     2.036439962071   130.51645814   180.00000085
 H      2   1   3     2.036439962071   130.51645814   180.00000085
 C      3   1   2     2.747161713444   124.35837855   180.00000085
 C      4   2   1     2.747161713444   124.35837855   180.00000085
 H      8   3   1     2.066530373789   110.91121099    60.61740894
 H      9   4   2     2.066530373789   110.91121099   299.38259106
 H      9   4   2     2.066530373789   110.91121099    60.61740894
 H      8   3   1     2.066530373789   110.91121099   299.38259106
 H      8   3   1     2.055491760238   107.31817458   180.00000000
 H      9   4   2     2.055491760238   107.31817458   180.00000000

---------------------
BASIS SET INFORMATION
---------------------
There are 3 groups of distinct atoms

 Group   1 Type C   : 7s4p1d contracted to 3s2p1d pattern {511/31/1}
 Group   2 Type N   : 7s4p1d contracted to 3s2p1d pattern {511/31/1}
 Group   3 Type H   : 4s1p contracted to 2s1p pattern {31/1}

Atom   0C    basis set group =>   1
Atom   1C    basis set group =>   1
Atom   2N    basis set group =>   2
Atom   3N    basis set group =>   2
Atom   4C    basis set group =>   1
Atom   5H    basis set group =>   3
Atom   6H    basis set group =>   3
Atom   7C    basis set group =>   1
Atom   8C    basis set group =>   1
Atom   9H    basis set group =>   3
Atom  10H    basis set group =>   3
Atom  11H    basis set group =>   3
Atom  12H    basis set group =>   3
Atom  13H    basis set group =>   3
Atom  14H    basis set group =>   3
---------------------------------
AUXILIARY/J BASIS SET INFORMATION
---------------------------------
There are 3 groups of distinct atoms

 Group   1 Type C   : 12s5p4d2f1g contracted to 6s4p3d1f1g pattern {711111/2111/211/2/1}
 Group   2 Type N   : 12s5p4d2f1g contracted to 6s4p3d1f1g pattern {711111/2111/211/2/1}
 Group   3 Type H   : 5s2p1d contracted to 3s1p1d pattern {311/2/1}

Atom   0C    basis set group =>   1
Atom   1C    basis set group =>   1
Atom   2N    basis set group =>   2
Atom   3N    basis set group =>   2
Atom   4C    basis set group =>   1
Atom   5H    basis set group =>   3
Atom   6H    basis set group =>   3
Atom   7C    basis set group =>   1
Atom   8C    basis set group =>   1
Atom   9H    basis set group =>   3
Atom  10H    basis set group =>   3
Atom  11H    basis set group =>   3
Atom  12H    basis set group =>   3
Atom  13H    basis set group =>   3
Atom  14H    basis set group =>   3


           ************************************************************
           *        Program running with 4 parallel MPI-processes     *
           *              working on a common directory               *
           ************************************************************
------------------------------------------------------------------------------
                           ORCA GTO INTEGRAL CALCULATION
                           -- RI-GTO INTEGRALS CHOSEN --
------------------------------------------------------------------------------
------------------------------------------------------------------------------
                   ___                                                        
                  /   \      - P O W E R E D   B Y -                         
                 /     \                                                     
                 |  |  |   _    _      __       _____    __    __             
                 |  |  |  | |  | |    /  \     |  _  \  |  |  /  |          
                  \  \/   | |  | |   /    \    | | | |  |  | /  /          
                 / \  \   | |__| |  /  /\  \   | |_| |  |  |/  /          
                |  |  |   |  __  | /  /__\  \  |    /   |      \           
                |  |  |   | |  | | |   __   |  |    \   |  |\   \          
                \     /   | |  | | |  |  |  |  | |\  \  |  | \   \       
                 \___/    |_|  |_| |__|  |__|  |_| \__\ |__|  \__/        
                                                                              
                      - O R C A' S   B I G   F R I E N D -                    
                                      &                                       
                       - I N T E G R A L  F E E D E R -                       
                                                                              
 v1 FN, 2020, v2 2021                                                         
------------------------------------------------------------------------------


Reading SHARK input file MeH_Water.SHARKINP.tmp ... ok
----------------------
SHARK INTEGRAL PACKAGE
----------------------

Number of atoms                             ...     15
Number of basis functions                   ...    138
Number of shells                            ...     66
Maximum angular momentum                    ...      2
Integral batch strategy                     ... SHARK/LIBINT Hybrid
RI-J (if used) integral strategy            ... SPLIT-RIJ (Revised 2003 algorithm where possible)
Printlevel                                  ...      1
Contraction scheme used                     ... SEGMENTED contraction
Coulomb Range Separation                    ... NOT USED
Exchange Range Separation                   ... Long Range
   Mu parameter                             ...  0.300000
   Scaling (regular/separated)              ...  0.157706  0.842294
Finite Nucleus Model                        ... NOT USED
Auxiliary Coulomb fitting basis             ... AVAILABLE
   # of basis functions in Aux-J            ...    431
   # of shells in Aux-J                     ...    145
   Maximum angular momentum in Aux-J        ...      4
Auxiliary J/K fitting basis                 ... NOT available
Auxiliary Correlation fitting basis         ... NOT available
Auxiliary 'external' fitting basis          ... NOT available
Integral threshold                          ...     2.500000e-11
Primitive cut-off                           ...     2.500000e-12
Primitive pair pre-selection threshold      ...     2.500000e-12

Calculating pre-screening integrals         ... done (  0.0 sec) Dimension = 66
Organizing shell pair data                  ... done (  0.0 sec)
Shell pair information
Total number of shell pairs                 ...      2211
Shell pairs after pre-screening             ...      2093
Total number of primitive shell pairs       ...      7865
Primitive shell pairs kept                  ...      5630
          la=0 lb=0:    673 shell pairs
          la=1 lb=0:    766 shell pairs
          la=1 lb=1:    234 shell pairs
          la=2 lb=0:    245 shell pairs
          la=2 lb=1:    148 shell pairs
          la=2 lb=2:     27 shell pairs

Calculating one electron integrals          ... done (  0.0 sec)
Calculating RI/J V-Matrix + Cholesky decomp.... done (  0.0 sec)
Calculating Nuclear repulsion               ... done (  0.0 sec) ENN=    294.877989061811 Eh

SHARK setup successfully completed in   0.2 seconds

Maximum memory used throughout the entire GTOINT-calculation: 10.8 MB


           ************************************************************
           *        Program running with 4 parallel MPI-processes     *
           *              working on a common directory               *
           ************************************************************
-------------------------------------------------------------------------------
                                 ORCA SCF
-------------------------------------------------------------------------------

------------
SCF SETTINGS
------------
Hamiltonian:
 Density Functional     Method          .... DFT(GTOs)
 Exchange Functional    Exchange        .... WB97X
 Correlation Functional Correlation     .... WB97X
 Gradients option       PostSCFGGA      .... off
 Hybrid DFT is turned on
   Fraction HF Exchange ScalHFX         ....  0.157706
   Scaling of DF-GGA-X  ScalDFX         ....  0.000000
   Scaling of DF-GGA-C  ScalDFC         ....  1.000000
   Scaling of DF-LDA-C  ScalLDAC        ....  1.000000
   Perturbative correction              ....  0.000000
   Density functional embedding theory  .... OFF
 Long-range corrected/Screened/Range-Separated Hybrid DFT is turned on
   Amount of maximum screened exact exchange              ....  0.842294
   Range separation parameter mu (erf(mu*r12)/r12)        ....  0.300000
 RI-approximation to the Coulomb term is turned on
   Number of AuxJ basis functions       .... 431
   RIJ-COSX (HFX calculated with COS-X)).... on


General Settings:
 Integral files         IntName         .... MeH_Water
 Hartree-Fock type      HFTyp           .... RHF
 Total Charge           Charge          ....    0
 Multiplicity           Mult            ....    1
 Number of Electrons    NEL             ....   52
 Basis Dimension        Dim             ....  138
 Nuclear Repulsion      ENuc            ....    294.8779890618 Eh

Convergence Acceleration:
 DIIS                   CNVDIIS         .... on
   Start iteration      DIISMaxIt       ....     0
   Startup error        DIISStart       ....  0.200000
   # of expansion vecs  DIISMaxEq       ....     5
   Bias factor          DIISBfac        ....   1.050
   Max. coefficient     DIISMaxC        ....  10.000
 Trust-Rad. Augm. Hess. CNVTRAH         .... auto
   Auto Start mean grad. ratio tolernc. ....  1.125000
   Auto Start start iteration           ....    20
   Auto Start num. interpolation iter.  ....    10
   Max. Number of Micro iterations      ....    16
   Max. Number of Macro iterations      .... Maxiter - #DIIS iter
   Number of Davidson start vectors     ....     2
   Converg. threshold I  (grad. norm)   ....   1.000e-05
   Converg. threshold II (energy diff.) ....   1.000e-08
   Grad. Scal. Fac. for Micro threshold ....   0.100
   Minimum threshold for Micro iter.    ....   0.010
   NR start threshold (gradient norm)   ....   0.001
   Initial trust radius                 ....   0.400
   Minimum AH scaling param. (alpha)    ....   1.000
   Maximum AH scaling param. (alpha)    .... 1000.000
   Orbital update algorithm             .... Taylor
   White noise on init. David. guess    .... on
   Maximum white noise                  ....   0.010
   Quad. conv. algorithm                .... NR
 SOSCF                  CNVSOSCF        .... on
   Start iteration      SOSCFMaxIt      ....   150
   Startup grad/error   SOSCFStart      ....  0.001000
 Level Shifting         CNVShift        .... on
   Level shift para.    LevelShift      ....    0.2500
   Turn off err/grad.   ShiftErr        ....    0.0000
 Zerner damping         CNVZerner       .... off
 Static damping         CNVDamp         .... on
   Fraction old density DampFac         ....    0.8500
   Max. Damping (<1)    DampMax         ....    0.9800
   Min. Damping (>=0)   DampMin         ....    0.0000
   Turn off err/grad.   DampErr         ....    0.0300
 Fernandez-Rico         CNVRico         .... off

SCF Procedure:
 Maximum # iterations   MaxIter         ....   125
 SCF integral mode      SCFMode         .... Direct
   Integral package                     .... SHARK and LIBINT hybrid scheme
 Reset frequency        DirectResetFreq ....    20
 Integral Threshold     Thresh          ....  2.500e-11 Eh
 Primitive CutOff       TCut            ....  2.500e-12 Eh

Convergence Tolerance:
 Convergence Check Mode ConvCheckMode   .... Total+1el-Energy
 Convergence forced     ConvForced      .... 0
 Energy Change          TolE            ....  1.000e-08 Eh
 1-El. energy change                    ....  1.000e-05 Eh
 Orbital Gradient       TolG            ....  1.000e-05
 Orbital Rotation angle TolX            ....  1.000e-05
 DIIS Error             TolErr          ....  5.000e-07


Diagonalization of the overlap matrix:
Smallest eigenvalue                        ... 1.560e-03
Time for diagonalization                   ...    0.004 sec
Threshold for overlap eigenvalues          ... 1.000e-08
Number of eigenvalues below threshold      ... 0
Time for construction of square roots      ...    0.003 sec
Total time needed                          ...    0.007 sec

Time for model grid setup =    0.186 sec

------------------------------
INITIAL GUESS: MODEL POTENTIAL
------------------------------
Loading Hartree-Fock densities                     ... done
Calculating cut-offs                               ... done
Initializing the effective Hamiltonian             ... done
Setting up the integral package (SHARK)            ... done
Starting the Coulomb interaction                   ... done (   0.0 sec)
Reading the grid                                   ... done
Mapping shells                                     ... done
Starting the XC term evaluation                    ... done (   0.1 sec)
  promolecular density results
     # of electrons  =     51.996437057
     EX              =    -41.015150111
     EC              =     -1.718805274
     EX+EC           =    -42.733955384
Transforming the Hamiltonian                       ... done (   0.0 sec)
Diagonalizing the Hamiltonian                      ... done (   0.0 sec)
Back transforming the eigenvectors                 ... done (   0.0 sec)
Now organizing SCF variables                       ... done
                      ------------------
                      INITIAL GUESS DONE (   0.3 sec)
                      ------------------
-------------------
DFT GRID GENERATION
-------------------

General Integration Accuracy     IntAcc      ... 4.388
Radial Grid Type                 RadialGrid  ... OptM3 with GC (2021)
Angular Grid (max. ang.)         AngularGrid ... 4 (Lebedev-302)
Angular grid pruning method      GridPruning ... 4 (adaptive)
Weight generation scheme         WeightScheme... Becke
Basis function cutoff            BFCut       ... 1.0000e-11
Integration weight cutoff        WCut        ... 1.0000e-14
Angular grids for H and He will be reduced by one unit
Partially contracted basis set               ... off
Rotationally invariant grid construction     ... off

Total number of grid points                  ...    68053
Total number of batches                      ...     1072
Average number of points per batch           ...       63
Average number of grid points per atom       ...     4537
Time for grid setup =    0.362 sec

--------------------
COSX GRID GENERATION
--------------------

GRIDX 1
-------
General Integration Accuracy     IntAcc      ... 3.816
Radial Grid Type                 RadialGrid  ... OptM3 with GC (2021)
Angular Grid (max. ang.)         AngularGrid ... 1 (Lebedev-50)
Angular grid pruning method      GridPruning ... 4 (adaptive)
Weight generation scheme         WeightScheme... Becke
Basis function cutoff            BFCut       ... 1.0000e-11
Integration weight cutoff        WCut        ... 1.0000e-14
Angular grids for H and He will be reduced by one unit
Partially contracted basis set               ... on
Rotationally invariant grid construction     ... off

Total number of grid points                  ...     8709
Total number of batches                      ...      144
Average number of points per batch           ...       60
Average number of grid points per atom       ...      581
UseSFitting                                  ... on

GRIDX 2
-------
General Integration Accuracy     IntAcc      ... 4.020
Radial Grid Type                 RadialGrid  ... OptM3 with GC (2021)
Angular Grid (max. ang.)         AngularGrid ... 2 (Lebedev-110)
Angular grid pruning method      GridPruning ... 4 (adaptive)
Weight generation scheme         WeightScheme... Becke
Basis function cutoff            BFCut       ... 1.0000e-11
Integration weight cutoff        WCut        ... 1.0000e-14
Angular grids for H and He will be reduced by one unit
Partially contracted basis set               ... on
Rotationally invariant grid construction     ... off

Total number of grid points                  ...    18801
Total number of batches                      ...      302
Average number of points per batch           ...       62
Average number of grid points per atom       ...     1253
UseSFitting                                  ... on

GRIDX 3
-------
General Integration Accuracy     IntAcc      ... 4.338
Radial Grid Type                 RadialGrid  ... OptM3 with GC (2021)
Angular Grid (max. ang.)         AngularGrid ... 3 (Lebedev-194)
Angular grid pruning method      GridPruning ... 4 (adaptive)
Weight generation scheme         WeightScheme... Becke
Basis function cutoff            BFCut       ... 1.0000e-11
Integration weight cutoff        WCut        ... 1.0000e-14
Angular grids for H and He will be reduced by one unit
Partially contracted basis set               ... on
Rotationally invariant grid construction     ... off

Total number of grid points                  ...    41209
Total number of batches                      ...      653
Average number of points per batch           ...       63
Average number of grid points per atom       ...     2747
UseSFitting                                  ... on

Time for X-Grid setup             =    0.501 sec


--------------------
CPCM SOLVATION MODEL
--------------------
CPCM parameters:
  Epsilon                                         ...      80.4000
  Refrac                                          ...       1.3300
  Rsolv                                           ...       1.3000
  Surface type                                    ... GAUSSIAN VDW
  Epsilon function type                           ...         CPCM
Radii:
 Radius for C  used is    3.8550 Bohr (=   2.0400 Ang.)
 Radius for N  used is    3.5149 Bohr (=   1.8600 Ang.)
 Radius for H  used is    2.4944 Bohr (=   1.3200 Ang.)
Calculating surface                               ...        done! (  0.0s)
GEPOL surface points                              ...          865
GEPOL Volume                                      ...     890.1569
GEPOL Surface-area                                ...     523.0993
Calculating surface distance matrix               ...        done! (  0.0s)
Performing Cholesky decomposition & store         ...        done! (  0.1s)
Overall time for CPCM initialization              ...                 0.1s
--------------
SCF ITERATIONS
--------------
ITER       Energy         Delta-E        Max-DP      RMS-DP      [F,P]     Damp
               ***  Starting incremental Fock matrix formation  ***
  0   -304.3987810680   0.000000000000 0.03589396  0.00083567  0.1182486 0.8500
  1   -304.4203428217  -0.021561753716 0.03819529  0.00080869  0.0968537 0.8500
                               ***Turning on DIIS***
  2   -304.4372708004  -0.016927978621 0.03359920  0.00067285  0.0759741 0.8500
  3   -304.4502184026  -0.012947602220 0.02735399  0.00049620  0.0589682 0.8500
  4   -304.4603946824  -0.010176279783 0.02252190  0.00038390  0.0475080 0.8500
  5   -304.4685135040  -0.008118821610 0.01894382  0.00031499  0.0394959 0.8500
  6   -304.4751498280  -0.006636324015 0.01611630  0.00026535  0.0333127 0.8500
  7   -304.4806546753  -0.005504847305 0.09238596  0.00151926  0.0282595 0.0000
                      *** Initiating the SOSCF procedure ***
                           *** Shutting down DIIS ***
                      *** Re-Reading the Fockian *** 
                      *** Removing any level shift *** 
ITER      Energy       Delta-E        Grad      Rot      Max-DP    RMS-DP
  8   -304.51015200  -0.0294973256  0.000664  0.000664  0.001614  0.000054
               *** Restarting incremental Fock matrix formation ***
  9   -304.51024322  -0.0000912225  0.000348  0.000762  0.000959  0.000035
 10   -304.51024657  -0.0000033488  0.000236  0.000913  0.000822  0.000028
 11   -304.51024718  -0.0000006060  0.000082  0.000117  0.000555  0.000009
 12   -304.51024739  -0.0000002119  0.000013  0.000023  0.000182  0.000002
 13   -304.51024740  -0.0000000069  0.000006  0.000024  0.000071  0.000001
                  ***Gradient check signals convergence***
              ***Rediagonalizing the Fockian in SOSCF/NRSCF***

               *****************************************************
               *                     SUCCESS                       *
               *           SCF CONVERGED AFTER  14 CYCLES          *
               *****************************************************

Old exchange energy                            =    -13.456123532 Eh
New exchange energy                            =    -13.456175994 Eh
Exchange energy change after final integration =     -0.000052462 Eh
Total energy after final integration           =   -304.510299861 Eh
Final COS-X integration done in                =     3.901 sec

----------------
TOTAL SCF ENERGY
----------------

Total Energy       :         -304.51029986 Eh           -8286.14652 eV

Components:
Nuclear Repulsion  :          294.87798906 Eh            8024.03802 eV
Electronic Energy  :         -599.38828892 Eh          -16310.18454 eV
One Electron Energy:         -994.26914205 Eh          -27055.43883 eV
Two Electron Energy:          394.88085312 Eh           10745.25429 eV
Max COSX asymmetry :            0.00000261 Eh               0.00007 eV
CPCM Dielectric    :           -0.01533094 Eh              -0.41718 eV

Virial components:
Potential Energy   :         -605.59150033 Eh          -16478.98250 eV
Kinetic Energy     :          301.08120046 Eh            8192.83598 eV
Virial Ratio       :            2.01138928


DFT components:
N(Alpha)           :       26.000009058480 electrons
N(Beta)            :       26.000009058480 electrons
N(Total)           :       52.000018116960 electrons
E(XC)              :      -30.340675955379 Eh       
DFET-embed. en.    :        0.000000000000 Eh       
CPCM Solvation Model Properties:
Surface-charge          :           -0.01835619
Charge-correction       :           -0.00033887 Eh              -0.00922 eV
Free-energy (cav+disp)  :  This term is not implemented in the current solvation scheme

---------------
SCF CONVERGENCE
---------------

  Last Energy change         ...   -1.8945e-09  Tolerance :   1.0000e-08
  Last MAX-Density change    ...    3.9968e-15  Tolerance :   1.0000e-07
  Last RMS-Density change    ...    5.0738e-17  Tolerance :   5.0000e-09
  Last Orbital Gradient      ...    1.0757e-06  Tolerance :   1.0000e-05
  Last Orbital Rotation      ...    7.7873e-07  Tolerance :   1.0000e-05

             **** THE GBW FILE WAS UPDATED (MeH_Water.gbw) ****
             **** DENSITY MeH_Water.scfp WAS UPDATED ****
             **** ENERGY FILE WAS UPDATED (MeH_Water.en.tmp) ****
             **** THE GBW FILE WAS UPDATED (MeH_Water.gbw) ****
             **** DENSITY MeH_Water.scfp WAS UPDATED ****
----------------
ORBITAL ENERGIES
----------------

  NO   OCC          E(Eh)            E(eV) 
   0   2.0000     -14.450516      -393.2185 
   1   2.0000     -14.450514      -393.2185 
   2   2.0000     -10.297976      -280.2222 
   3   2.0000     -10.297945      -280.2213 
   4   2.0000     -10.294526      -280.1283 
   5   2.0000     -10.293937      -280.1123 
   6   2.0000     -10.278894      -279.7029 
   7   2.0000      -1.144158       -31.1341 
   8   2.0000      -1.031572       -28.0705 
   9   2.0000      -0.894519       -24.3411 
  10   2.0000      -0.843959       -22.9653 
  11   2.0000      -0.798471       -21.7275 
  12   2.0000      -0.708792       -19.2872 
  13   2.0000      -0.680002       -18.5038 
  14   2.0000      -0.633107       -17.2277 
  15   2.0000      -0.587756       -15.9937 
  16   2.0000      -0.560575       -15.2540 
  17   2.0000      -0.548655       -14.9297 
  18   2.0000      -0.538701       -14.6588 
  19   2.0000      -0.535342       -14.5674 
  20   2.0000      -0.492976       -13.4146 
  21   2.0000      -0.482668       -13.1341 
  22   2.0000      -0.482658       -13.1338 
  23   2.0000      -0.370450       -10.0805 
  24   2.0000      -0.328213        -8.9311 
  25   2.0000      -0.326432        -8.8827 
  26   0.0000       0.120069         3.2672 
  27   0.0000       0.130001         3.5375 
  28   0.0000       0.172360         4.6902 
  29   0.0000       0.174769         4.7557 
  30   0.0000       0.203798         5.5456 
  31   0.0000       0.223355         6.0778 
  32   0.0000       0.224345         6.1047 
  33   0.0000       0.236266         6.4291 
  34   0.0000       0.244331         6.6486 
  35   0.0000       0.250501         6.8165 
  36   0.0000       0.257086         6.9957 
  37   0.0000       0.278385         7.5752 
  38   0.0000       0.328016         8.9258 
  39   0.0000       0.352865         9.6019 
  40   0.0000       0.353288         9.6135 
  41   0.0000       0.435436        11.8488 
  42   0.0000       0.471696        12.8355 
  43   0.0000       0.475585        12.9413 
  44   0.0000       0.491342        13.3701 
  45   0.0000       0.497279        13.5317 
  46   0.0000       0.547096        14.8872 
  47   0.0000       0.557975        15.1833 
  48   0.0000       0.567160        15.4332 
  49   0.0000       0.607578        16.5330 
  50   0.0000       0.616815        16.7844 
  51   0.0000       0.619012        16.8442 
  52   0.0000       0.677045        18.4233 
  53   0.0000       0.692250        18.8371 
  54   0.0000       0.702710        19.1217 
  55   0.0000       0.715788        19.4776 
  56   0.0000       0.730307        19.8727 
  57   0.0000       0.755577        20.5603 
  58   0.0000       0.762080        20.7372 
  59   0.0000       0.766494        20.8574 
  60   0.0000       0.776031        21.1169 
  61   0.0000       0.778299        21.1786 
  62   0.0000       0.790301        21.5052 
  63   0.0000       0.794941        21.6314 
  64   0.0000       0.796381        21.6706 
  65   0.0000       0.820680        22.3318 
  66   0.0000       0.830420        22.5969 
  67   0.0000       0.898864        24.4593 
  68   0.0000       0.956389        26.0247 
  69   0.0000       1.003579        27.3088 
  70   0.0000       1.012029        27.5387 
  71   0.0000       1.042689        28.3730 
  72   0.0000       1.052966        28.6527 
  73   0.0000       1.083415        29.4812 
  74   0.0000       1.236088        33.6357 
  75   0.0000       1.251549        34.0564 
  76   0.0000       1.257163        34.2092 
  77   0.0000       1.293709        35.2036 
  78   0.0000       1.339685        36.4547 
  79   0.0000       1.345082        36.6016 
  80   0.0000       1.360682        37.0260 
  81   0.0000       1.476634        40.1813 
  82   0.0000       1.570726        42.7416 
  83   0.0000       1.574030        42.8315 
  84   0.0000       1.598884        43.5078 
  85   0.0000       1.639739        44.6196 
  86   0.0000       1.640900        44.6512 
  87   0.0000       1.675021        45.5796 
  88   0.0000       1.731903        47.1275 
  89   0.0000       1.737061        47.2678 
  90   0.0000       1.744855        47.4799 
  91   0.0000       1.869128        50.8616 
  92   0.0000       1.871038        50.9135 
  93   0.0000       1.880765        51.1782 
  94   0.0000       1.892796        51.5056 
  95   0.0000       1.895062        51.5673 
  96   0.0000       1.912051        52.0296 
  97   0.0000       1.929078        52.4929 
  98   0.0000       1.933300        52.6078 
  99   0.0000       1.980846        53.9015 
 100   0.0000       2.008569        54.6559 
 101   0.0000       2.032006        55.2937 
 102   0.0000       2.051100        55.8133 
 103   0.0000       2.121210        57.7211 
 104   0.0000       2.130624        57.9772 
 105   0.0000       2.156536        58.6823 
 106   0.0000       2.175138        59.1885 
 107   0.0000       2.196937        59.7817 
 108   0.0000       2.222301        60.4719 
 109   0.0000       2.283749        62.1440 
 110   0.0000       2.334087        63.5137 
 111   0.0000       2.338216        63.6261 
 112   0.0000       2.405202        65.4489 
 113   0.0000       2.427911        66.0668 
 114   0.0000       2.448249        66.6203 
 115   0.0000       2.453606        66.7660 
 116   0.0000       2.518698        68.5373 
 117   0.0000       2.562007        69.7157 
 118   0.0000       2.597444        70.6800 
 119   0.0000       2.607131        70.9436 
 120   0.0000       2.716886        73.9302 
 121   0.0000       2.738400        74.5157 
 122   0.0000       2.795957        76.0819 
 123   0.0000       2.844575        77.4048 
 124   0.0000       2.853058        77.6357 
 125   0.0000       2.866365        77.9978 
 126   0.0000       2.911040        79.2134 
 127   0.0000       2.949177        80.2512 
 128   0.0000       2.968363        80.7733 
 129   0.0000       3.015278        82.0499 
 130   0.0000       3.049071        82.9694 
 131   0.0000       3.054793        83.1252 
 132   0.0000       3.067584        83.4732 
 133   0.0000       3.123321        84.9899 
 134   0.0000       3.256338        88.6095 
 135   0.0000       3.401595        92.5621 
 136   0.0000       3.411729        92.8379 
 137   0.0000       3.656551        99.4998 

                    ********************************
                    * MULLIKEN POPULATION ANALYSIS *
                    ********************************

-----------------------
MULLIKEN ATOMIC CHARGES
-----------------------
   0 C :    0.029283
   1 C :    0.029283
   2 N :   -0.252787
   3 N :   -0.252787
   4 C :   -0.205157
   5 H :    0.058862
   6 H :    0.058862
   7 C :    0.104900
   8 C :    0.104899
   9 H :    0.057796
  10 H :    0.057796
  11 H :    0.057796
  12 H :    0.057796
  13 H :    0.046728
  14 H :    0.046729
Sum of atomic charges:   -0.0000000

--------------------------------
MULLIKEN REDUCED ORBITAL CHARGES
--------------------------------
  0 C s       :     3.146010  s :     3.146010
      pz      :     0.797340  p :     2.777724
      px      :     1.075331
      py      :     0.905052
      dz2     :     0.014257  d :     0.046984
      dxz     :     0.007544
      dyz     :     0.012549
      dx2y2   :     0.004772
      dxy     :     0.007862
  1 C s       :     3.146010  s :     3.146010
      pz      :     0.797340  p :     2.777723
      px      :     1.075331
      py      :     0.905052
      dz2     :     0.014257  d :     0.046984
      dxz     :     0.007544
      dyz     :     0.012549
      dx2y2   :     0.004772
      dxy     :     0.007862
  2 N s       :     3.408713  s :     3.408713
      pz      :     1.119182  p :     3.812053
      px      :     1.519727
      py      :     1.173144
      dz2     :     0.008580  d :     0.032021
      dxz     :     0.005422
      dyz     :     0.008941
      dx2y2   :     0.004781
      dxy     :     0.004296
  3 N s       :     3.408713  s :     3.408713
      pz      :     1.119182  p :     3.812053
      px      :     1.519727
      py      :     1.173144
      dz2     :     0.008580  d :     0.032021
      dxz     :     0.005422
      dyz     :     0.008941
      dx2y2   :     0.004781
      dxy     :     0.004296
  4 C s       :     3.624064  s :     3.624064
      pz      :     1.147351  p :     2.516595
      px      :     0.712825
      py      :     0.656419
      dz2     :     0.008169  d :     0.064498
      dxz     :     0.009525
      dyz     :     0.028296
      dx2y2   :     0.007039
      dxy     :     0.011469
  5 H s       :     0.916529  s :     0.916529
      pz      :     0.010850  p :     0.024609
      px      :     0.005244
      py      :     0.008514
  6 H s       :     0.916529  s :     0.916529
      pz      :     0.010850  p :     0.024609
      px      :     0.005244
      py      :     0.008514
  7 C s       :     2.989715  s :     2.989715
      pz      :     1.025777  p :     2.867010
      px      :     1.045724
      py      :     0.795510
      dz2     :     0.008494  d :     0.038375
      dxz     :     0.002739
      dyz     :     0.006337
      dx2y2   :     0.009564
      dxy     :     0.011241
  8 C s       :     2.989715  s :     2.989715
      pz      :     1.025777  p :     2.867010
      px      :     1.045724
      py      :     0.795510
      dz2     :     0.008494  d :     0.038375
      dxz     :     0.002739
      dyz     :     0.006337
      dx2y2   :     0.009564
      dxy     :     0.011241
  9 H s       :     0.918777  s :     0.918777
      pz      :     0.005723  p :     0.023427
      px      :     0.012236
      py      :     0.005468
 10 H s       :     0.918776  s :     0.918776
      pz      :     0.005723  p :     0.023427
      px      :     0.012236
      py      :     0.005468
 11 H s       :     0.918776  s :     0.918776
      pz      :     0.005723  p :     0.023427
      px      :     0.012236
      py      :     0.005468
 12 H s       :     0.918777  s :     0.918777
      pz      :     0.005723  p :     0.023427
      px      :     0.012236
      py      :     0.005468
 13 H s       :     0.929651  s :     0.929651
      pz      :     0.016022  p :     0.023620
      px      :     0.004898
      py      :     0.002700
 14 H s       :     0.929651  s :     0.929651
      pz      :     0.016022  p :     0.023620
      px      :     0.004898
      py      :     0.002700


                     *******************************
                     * LOEWDIN POPULATION ANALYSIS *
                     *******************************

----------------------
LOEWDIN ATOMIC CHARGES
----------------------
   0 C :   -0.029964
   1 C :   -0.029964
   2 N :    0.016631
   3 N :    0.016631
   4 C :   -0.317388
   5 H :    0.038951
   6 H :    0.038951
   7 C :    0.034084
   8 C :    0.034084
   9 H :    0.033108
  10 H :    0.033108
  11 H :    0.033108
  12 H :    0.033108
  13 H :    0.032775
  14 H :    0.032775

-------------------------------
LOEWDIN REDUCED ORBITAL CHARGES
-------------------------------
  0 C s       :     2.860209  s :     2.860209
      pz      :     0.936456  p :     3.052897
      px      :     1.061550
      py      :     1.054891
      dz2     :     0.037997  d :     0.116858
      dxz     :     0.014941
      dyz     :     0.034562
      dx2y2   :     0.013697
      dxy     :     0.015660
  1 C s       :     2.860209  s :     2.860209
      pz      :     0.936456  p :     3.052897
      px      :     1.061550
      py      :     1.054891
      dz2     :     0.037997  d :     0.116858
      dxz     :     0.014941
      dyz     :     0.034562
      dx2y2   :     0.013697
      dxy     :     0.015660
  2 N s       :     3.071083  s :     3.071083
      pz      :     1.196505  p :     3.838858
      px      :     1.448484
      py      :     1.193869
      dz2     :     0.021622  d :     0.073428
      dxz     :     0.010508
      dyz     :     0.024411
      dx2y2   :     0.009943
      dxy     :     0.006944
  3 N s       :     3.071083  s :     3.071083
      pz      :     1.196505  p :     3.838858
      px      :     1.448484
      py      :     1.193869
      dz2     :     0.021622  d :     0.073428
      dxz     :     0.010508
      dyz     :     0.024411
      dx2y2   :     0.009943
      dxy     :     0.006944
  4 C s       :     3.221994  s :     3.221994
      pz      :     1.377501  p :     2.957055
      px      :     0.761862
      py      :     0.817693
      dz2     :     0.013281  d :     0.138339
      dxz     :     0.013174
      dyz     :     0.065698
      dx2y2   :     0.021182
      dxy     :     0.025004
  5 H s       :     0.887623  s :     0.887623
      pz      :     0.031920  p :     0.073426
      px      :     0.017112
      py      :     0.024394
  6 H s       :     0.887623  s :     0.887623
      pz      :     0.031920  p :     0.073426
      px      :     0.017112
      py      :     0.024394
  7 C s       :     2.828272  s :     2.828272
      pz      :     1.065352  p :     3.042236
      px      :     1.086531
      py      :     0.890353
      dz2     :     0.023024  d :     0.095408
      dxz     :     0.006276
      dyz     :     0.014565
      dx2y2   :     0.022664
      dxy     :     0.028879
  8 C s       :     2.828272  s :     2.828272
      pz      :     1.065352  p :     3.042236
      px      :     1.086531
      py      :     0.890353
      dz2     :     0.023024  d :     0.095408
      dxz     :     0.006276
      dyz     :     0.014565
      dx2y2   :     0.022664
      dxy     :     0.028879
  9 H s       :     0.901332  s :     0.901332
      pz      :     0.015505  p :     0.065560
      px      :     0.033019
      py      :     0.017036
 10 H s       :     0.901332  s :     0.901332
      pz      :     0.015505  p :     0.065560
      px      :     0.033019
      py      :     0.017036
 11 H s       :     0.901332  s :     0.901332
      pz      :     0.015505  p :     0.065560
      px      :     0.033019
      py      :     0.017036
 12 H s       :     0.901332  s :     0.901332
      pz      :     0.015505  p :     0.065560
      px      :     0.033019
      py      :     0.017036
 13 H s       :     0.900294  s :     0.900294
      pz      :     0.044701  p :     0.066931
      px      :     0.013130
      py      :     0.009101
 14 H s       :     0.900294  s :     0.900294
      pz      :     0.044701  p :     0.066931
      px      :     0.013130
      py      :     0.009101


                      *****************************
                      * MAYER POPULATION ANALYSIS *
                      *****************************

  NA   - Mulliken gross atomic population
  ZA   - Total nuclear charge
  QA   - Mulliken gross atomic charge
  VA   - Mayer's total valence
  BVA  - Mayer's bonded valence
  FA   - Mayer's free valence

  ATOM       NA         ZA         QA         VA         BVA        FA
  0 C      5.9707     6.0000     0.0293     3.8426     3.8426    -0.0000
  1 C      5.9707     6.0000     0.0293     3.8426     3.8426    -0.0000
  2 N      7.2528     7.0000    -0.2528     3.3838     3.3838    -0.0000
  3 N      7.2528     7.0000    -0.2528     3.3838     3.3838    -0.0000
  4 C      6.2052     6.0000    -0.2052     2.6979     2.6979    -0.0000
  5 H      0.9411     1.0000     0.0589     0.9989     0.9989    -0.0000
  6 H      0.9411     1.0000     0.0589     0.9989     0.9989    -0.0000
  7 C      5.8951     6.0000     0.1049     3.8836     3.8836     0.0000
  8 C      5.8951     6.0000     0.1049     3.8836     3.8836    -0.0000
  9 H      0.9422     1.0000     0.0578     0.9924     0.9924    -0.0000
 10 H      0.9422     1.0000     0.0578     0.9924     0.9924     0.0000
 11 H      0.9422     1.0000     0.0578     0.9924     0.9924    -0.0000
 12 H      0.9422     1.0000     0.0578     0.9924     0.9924     0.0000
 13 H      0.9533     1.0000     0.0467     1.0208     1.0208    -0.0000
 14 H      0.9533     1.0000     0.0467     1.0208     1.0208    -0.0000

  Mayer bond orders larger than 0.100000
B(  0-C ,  1-C ) :   1.6300 B(  0-C ,  2-N ) :   1.1289 B(  0-C ,  5-H ) :   0.9940 
B(  1-C ,  3-N ) :   1.1289 B(  1-C ,  6-H ) :   0.9939 B(  2-N ,  4-C ) :   1.2455 
B(  2-N ,  7-C ) :   0.9439 B(  3-N ,  4-C ) :   1.2455 B(  3-N ,  8-C ) :   0.9438 
B(  7-C ,  9-H ) :   0.9792 B(  7-C , 12-H ) :   0.9792 B(  7-C , 13-H ) :   0.9730 
B(  8-C , 10-H ) :   0.9792 B(  8-C , 11-H ) :   0.9792 B(  8-C , 14-H ) :   0.9730 


-------
TIMINGS
-------

Total SCF time: 0 days 0 hours 0 min 31 sec 

Total time                  ....      31.436 sec
Sum of individual times     ....      30.961 sec  ( 98.5%)

Fock matrix formation       ....      29.574 sec  ( 94.1%)
  Split-RI-J                ....       1.257 sec  (  4.2% of F)
  Chain of spheres X        ....      21.345 sec  ( 72.2% of F)
  XC integration            ....       3.955 sec  ( 13.4% of F)
    Basis function eval.    ....       1.169 sec  ( 29.5% of XC)
    Density eval.           ....       0.624 sec  ( 15.8% of XC)
    XC-Functional eval.     ....       0.547 sec  ( 13.8% of XC)
    XC-Potential eval.      ....       0.757 sec  ( 19.1% of XC)
Diagonalization             ....       0.044 sec  (  0.1%)
Density matrix formation    ....       0.105 sec  (  0.3%)
Population analysis         ....       0.030 sec  (  0.1%)
Initial guess               ....       0.100 sec  (  0.3%)
Orbital Transformation      ....       0.000 sec  (  0.0%)
Orbital Orthonormalization  ....       0.000 sec  (  0.0%)
DIIS solution               ....       0.035 sec  (  0.1%)
SOSCF solution              ....       0.025 sec  (  0.1%)
Grid generation             ....       1.049 sec  (  3.3%)

Maximum memory used throughout the entire SCF-calculation: 50.9 MB


-------------------------------------------------------------------------------
                          DFT DISPERSION CORRECTION                            
                                                                               
                                 DFTD4 V2.5                                    
-------------------------------------------------------------------------------
The WB97X functional is recognized
Active option DFTDOPT                   ...         5   

Starting D4
-------------------------   ----------------
Dispersion correction           -0.001726740
-------------------------   ----------------


-------------------------   --------------------
FINAL SINGLE POINT ENERGY      -304.512026601307
-------------------------   --------------------



           ************************************************************
           *        Program running with 4 parallel MPI-processes     *
           *              working on a common directory               *
           ************************************************************
------------------------------------------------------------------------------
                         ORCA SCF GRADIENT CALCULATION
------------------------------------------------------------------------------

 ... reading COSX grid (gridx3)
Gradient of the Kohn-Sham DFT energy:
Kohn-Sham wavefunction type      ... RKS
Hartree-Fock exchange scaling    ...    0.158
Number of operators              ...    1
Number of atoms                  ...   15
Basis set dimensions             ...  138
Integral neglect threshold       ... 2.5e-11
Integral primitive cutoff        ... 2.5e-12
SHARK Integral package           ... ON

Nuc. rep. gradient       (SHARK) ... done (  0.0 sec)
HCore & Overlap gradient (SHARK) ... done (  0.0 sec)
RI-J gradient            (SHARK) ... done (  0.3 sec)
COSX-gradient                    ... done (  4.3 sec)
Exchange-correlation gradient    ... done
Dispersion correction            ... Starting D4
Starting D4
Starting D4
Starting D4


------------------- 
Dispersion Gradient 
------------------- 
   1  :    0.000000000    0.000009112   -0.000016714
   2  :    0.000000000   -0.000009112   -0.000016714
   3  :   -0.000000000    0.000014562    0.000001504
   4  :   -0.000000000   -0.000014562    0.000001504
   5  :    0.000000000   -0.000000000    0.000012297
   6  :   -0.000000000    0.000002903   -0.000002982
   7  :   -0.000000000   -0.000002903   -0.000002982
   8  :    0.000000000    0.000040243    0.000010045
   9  :    0.000000000   -0.000040243    0.000010045
  10  :   -0.000001105    0.000007159    0.000001623
  11  :   -0.000001105   -0.000007159    0.000001623
  12  :    0.000001105   -0.000007159    0.000001623
  13  :    0.000001105    0.000007159    0.000001623
  14  :    0.000000000    0.000007115    0.000003195
  15  :   -0.000000000   -0.000007115    0.000003195

  |G| =    0.000268592

done

------------------
CARTESIAN GRADIENT
------------------

   1   C   :    0.000000024    0.003025437   -0.011614924
   2   C   :    0.000000036   -0.003025413   -0.011614950
   3   N   :   -0.000000003    0.001501373   -0.002603281
   4   N   :    0.000000017   -0.001501386   -0.002603310
   5   C   :   -0.000000027    0.000000016    0.013617973
   6   H   :    0.000000001   -0.006375205    0.005674159
   7   H   :   -0.000000004    0.006375207    0.005674154
   8   C   :    0.000000005    0.006143314    0.004669572
   9   C   :    0.000000014   -0.006143208    0.004669475
  10   H   :    0.003611885   -0.001961919    0.001614134
  11   H   :    0.003611895    0.001961906    0.001614144
  12   H   :   -0.003611890    0.001961902    0.001614153
  13   H   :   -0.003611883   -0.001961904    0.001614135
  14   H   :   -0.000000003   -0.001103898   -0.006093086
  15   H   :   -0.000000003    0.001103894   -0.006093082

Difference to translation invariance:
           :    0.0000000611    0.0000001159    0.0001392674

Difference to rotation invariance:
           :    0.0000003165   -0.0000001836    0.0000001141

Norm of the cartesian gradient     ...    0.0301842355
RMS gradient                       ...    0.0044996002
MAX gradient                       ...    0.0136179729

-------
TIMINGS
-------

Total SCF gradient time            ...        6.316 sec

One electron gradient       ....       0.042 sec  (  0.7%)
RI-J Coulomb gradient       ....       0.313 sec  (  5.0%)
COSX gradient               ....       4.335 sec  ( 68.6%)
XC gradient                 ....       1.013 sec  ( 16.0%)
CPCM gradient               ....       0.166 sec  (  2.6%)
   A-Matrix (El+Nuc)        ....       0.037 sec  (  0.6%)
   Potential                ....       0.129 sec  (  2.0%)

Maximum memory used throughout the entire SCFGRAD-calculation: 39.3 MB
------------------------------------------------------------------------------
                         ORCA GEOMETRY RELAXATION STEP
------------------------------------------------------------------------------

Reading the OPT-File                    .... done
Getting information on internals        .... done
Copying old internal coords+grads       .... done
Making the new internal coordinates     .... (new redundants).... done
Validating the new internal coordinates .... (new redundants).... done
Calculating the B-matrix                .... done
Calculating the G,G- and P matrices     .... done
Transforming gradient to internals      .... done
Projecting the internal gradient        .... done
Number of atoms                         ....  15
Number of internal coordinates          ....  68
Current Energy                          ....  -304.512026601 Eh
Current gradient norm                   ....     0.030184236 Eh/bohr
Maximum allowed component of the step   ....  0.300
Current trust radius                    ....  0.300
Evaluating the initial hessian          ....  (Almloef) done
Projecting the Hessian                  .... done
Forming the augmented Hessian           .... done
Diagonalizing the augmented Hessian     .... done
Last element of RFO vector              ....  0.998369727
Lowest eigenvalues of augmented Hessian:
 -0.001295392  0.016719349  0.016719349  0.020835560  0.021881798
Length of the computed step             ....  0.057171122
The final length of the internal step   ....  0.057171122
Converting the step to cartesian space:
 Initial RMS(Int)=    0.0069330170
Transforming coordinates:
 Iter   0:  RMS(Cart)=    0.0122273586 RMS(Int)=    1.5239120576
 Iter   1:  RMS(Cart)=    0.0000765078 RMS(Int)=    0.0000437243
 Iter   2:  RMS(Cart)=    0.0000006216 RMS(Int)=    0.0000005326
 Iter   3:  RMS(Cart)=    0.0000000077 RMS(Int)=    0.0000000042
done
Storing new coordinates                 .... done

                                .--------------------.
          ----------------------|Geometry convergence|-------------------------
          Item                value                   Tolerance       Converged
          ---------------------------------------------------------------------
          RMS gradient        0.0028027341            0.0001000000      NO
          MAX gradient        0.0084483097            0.0003000000      NO
          RMS step            0.0069330170            0.0020000000      NO
          MAX step            0.0223425603            0.0040000000      NO
          ........................................................
          Max(Bonds)      0.0118      Max(Angles)    0.64
          Max(Dihed)        0.12      Max(Improp)    0.00
          ---------------------------------------------------------------------

The optimization has not yet converged - more geometry cycles are needed


    ---------------------------------------------------------------------------
                         Redundant Internal Coordinates
                            (Angstroem and degrees)

        Definition                    Value    dE/dq     Step     New-Value
    ----------------------------------------------------------------------------
     1. B(C   1,C   0)                1.3540 -0.002162  0.0018    1.3557   
     2. B(N   2,C   0)                1.3903  0.006055 -0.0057    1.3847   
     3. B(N   3,C   1)                1.3903  0.006055 -0.0057    1.3847   
     4. B(C   4,N   3)                1.3673  0.005393 -0.0048    1.3625   
     5. B(C   4,N   2)                1.3673  0.005393 -0.0048    1.3625   
     6. B(H   5,C   0)                1.0776 -0.008448  0.0118    1.0895   
     7. B(H   6,C   1)                1.0776 -0.008448  0.0118    1.0895   
     8. B(C   7,N   2)                1.4537  0.001613 -0.0019    1.4518   
     9. B(C   8,N   3)                1.4537  0.001613 -0.0019    1.4518   
    10. B(H   9,C   7)                1.0936 -0.004406  0.0065    1.1001   
    11. B(H  10,C   8)                1.0936 -0.004406  0.0065    1.1001   
    12. B(H  11,C   8)                1.0936 -0.004406  0.0065    1.1001   
    13. B(H  12,C   7)                1.0936 -0.004406  0.0065    1.1001   
    14. B(H  13,C   7)                1.0877 -0.006083  0.0088    1.0966   
    15. B(H  14,C   8)                1.0877 -0.006083  0.0088    1.0966   
    16. A(C   1,C   0,N   2)          106.10 -0.000036    0.05    106.15   
    17. A(N   2,C   0,H   5)          123.38  0.001206   -0.21    123.17   
    18. A(C   1,C   0,H   5)          130.52 -0.001169    0.17    130.68   
    19. A(N   3,C   1,H   6)          123.38  0.001206   -0.21    123.17   
    20. A(C   0,C   1,N   3)          106.10 -0.000037    0.05    106.15   
    21. A(C   0,C   1,H   6)          130.52 -0.001169    0.17    130.68   
    22. A(C   4,N   2,C   7)          122.74 -0.004503    0.64    123.38   
    23. A(C   0,N   2,C   4)          112.90  0.002303   -0.32    112.58   
    24. A(C   0,N   2,C   7)          124.36  0.002201   -0.32    124.04   
    25. A(C   4,N   3,C   8)          122.74 -0.004503    0.64    123.38   
    26. A(C   1,N   3,C   8)          124.36  0.002201   -0.32    124.04   
    27. A(C   1,N   3,C   4)          112.90  0.002303   -0.32    112.58   
    28. A(N   2,C   4,N   3)          101.99 -0.004532    0.55    102.55   
    29. A(N   2,C   7,H   9)          110.91  0.000613   -0.13    110.79   
    30. A(H  12,C   7,H  13)          109.35  0.000457   -0.04    109.31   
    31. A(H   9,C   7,H  13)          109.35  0.000457   -0.04    109.31   
    32. A(N   2,C   7,H  13)          107.32 -0.002012    0.39    107.71   
    33. A(H   9,C   7,H  12)          108.97 -0.000135   -0.06    108.91   
    34. A(N   2,C   7,H  12)          110.91  0.000613   -0.13    110.79   
    35. A(N   3,C   8,H  10)          110.91  0.000613   -0.13    110.79   
    36. A(H  11,C   8,H  14)          109.35  0.000457   -0.04    109.31   
    37. A(H  10,C   8,H  14)          109.35  0.000457   -0.04    109.31   
    38. A(N   3,C   8,H  14)          107.32 -0.002012    0.39    107.71   
    39. A(H  10,C   8,H  11)          108.97 -0.000135   -0.06    108.91   
    40. A(N   3,C   8,H  11)          110.91  0.000613   -0.13    110.79   
    41. D(H   6,C   1,C   0,H   5)      0.00 -0.000000    0.00      0.00   
    42. D(N   3,C   1,C   0,N   2)      0.00  0.000000   -0.00     -0.00   
    43. D(N   3,C   1,C   0,H   5)    180.00  0.000000   -0.00    180.00   
    44. D(H   6,C   1,C   0,N   2)    180.00 -0.000000    0.00    180.00   
    45. D(C   7,N   2,C   0,C   1)    180.00 -0.000000    0.00    180.00   
    46. D(C   4,N   2,C   0,H   5)    180.00 -0.000000    0.00    180.00   
    47. D(C   7,N   2,C   0,H   5)      0.00 -0.000000    0.00      0.00   
    48. D(C   4,N   2,C   0,C   1)      0.00 -0.000000    0.00      0.00   
    49. D(C   8,N   3,C   1,H   6)      0.00  0.000000   -0.00     -0.00   
    50. D(C   4,N   3,C   1,H   6)    180.00  0.000000   -0.00    180.00   
    51. D(C   8,N   3,C   1,C   0)    180.00 -0.000000    0.00    180.00   
    52. D(C   4,N   3,C   1,C   0)      0.00  0.000000   -0.00     -0.00   
    53. D(N   2,C   4,N   3,C   1)      0.00 -0.000000    0.00      0.00   
    54. D(N   3,C   4,N   2,C   7)    180.00  0.000000   -0.00    180.00   
    55. D(N   3,C   4,N   2,C   0)      0.00  0.000000   -0.00     -0.00   
    56. D(N   2,C   4,N   3,C   8)    180.00  0.000000   -0.00    180.00   
    57. D(H  13,C   7,N   2,C   4)      0.00  0.000000   -0.00     -0.00   
    58. D(H  13,C   7,N   2,C   0)    180.00  0.000000   -0.00    180.00   
    59. D(H  12,C   7,N   2,C   4)    119.38 -0.000330    0.12    119.51   
    60. D(H  12,C   7,N   2,C   0)    -60.62 -0.000330    0.12    -60.49   
    61. D(H   9,C   7,N   2,C   4)   -119.38  0.000330   -0.12   -119.51   
    62. D(H   9,C   7,N   2,C   0)     60.62  0.000330   -0.12     60.49   
    63. D(H  14,C   8,N   3,C   4)      0.00 -0.000000    0.00      0.00   
    64. D(H  14,C   8,N   3,C   1)    180.00  0.000000   -0.00    180.00   
    65. D(H  11,C   8,N   3,C   4)   -119.38  0.000330   -0.12   -119.51   
    66. D(H  11,C   8,N   3,C   1)     60.62  0.000330   -0.12     60.49   
    67. D(H  10,C   8,N   3,C   4)    119.38 -0.000330    0.12    119.51   
    68. D(H  10,C   8,N   3,C   1)    -60.62 -0.000330    0.12    -60.49   
    ----------------------------------------------------------------------------

         *************************************************************
         *                GEOMETRY OPTIMIZATION CYCLE   2            *
         *************************************************************
---------------------------------
CARTESIAN COORDINATES (ANGSTROEM)
---------------------------------
  C     -0.000000    0.677859   -1.204508
  C     -0.000000   -0.677859   -1.204508
  N     -0.000000    1.062945    0.125544
  N     -0.000000   -1.062945    0.125544
  C      0.000000    0.000000    0.977937
  H      0.000000    1.388065   -2.030663
  H      0.000000   -1.388065   -2.030663
  C     -0.000000    2.444521    0.571645
  C      0.000000   -2.444522    0.571646
  H     -0.895093    2.971681    0.209536
  H     -0.895093   -2.971681    0.209536
  H      0.895094   -2.971681    0.209536
  H      0.895094    2.971681    0.209536
  H     -0.000000    2.441006    1.668193
  H      0.000000   -2.441006    1.668193

----------------------------
CARTESIAN COORDINATES (A.U.)
----------------------------
  NO LB      ZA    FRAG     MASS         X           Y           Z
   0 C     6.0000    0    12.011   -0.000000    1.280967   -2.276190
   1 C     6.0000    0    12.011   -0.000000   -1.280967   -2.276190
   2 N     7.0000    0    14.007   -0.000000    2.008674    0.237244
   3 N     7.0000    0    14.007   -0.000000   -2.008674    0.237244
   4 C     6.0000    0    12.011    0.000000    0.000000    1.848032
   5 H     1.0000    0     1.008    0.000000    2.623062   -3.837396
   6 H     1.0000    0     1.008    0.000000   -2.623062   -3.837396
   7 C     6.0000    0    12.011   -0.000000    4.619476    1.080253
   8 C     6.0000    0    12.011    0.000000   -4.619476    1.080254
   9 H     1.0000    0     1.008   -1.691481    5.615663    0.395966
  10 H     1.0000    0     1.008   -1.691482   -5.615663    0.395966
  11 H     1.0000    0     1.008    1.691482   -5.615663    0.395966
  12 H     1.0000    0     1.008    1.691482    5.615663    0.395966
  13 H     1.0000    0     1.008   -0.000000    4.612832    3.152428
  14 H     1.0000    0     1.008    0.000000   -4.612832    3.152428

--------------------------------
INTERNAL COORDINATES (ANGSTROEM)
--------------------------------
 C      0   0   0     0.000000000000     0.00000000     0.00000000
 C      1   0   0     1.355717069307     0.00000000     0.00000000
 N      1   2   0     1.384676667518   106.14715940     0.00000000
 N      2   1   3     1.384676689293   106.14716269     0.00000000
 C      4   2   1     1.362506548760   112.57952853     0.00000000
 H      1   2   3     1.089460787693   130.68408720   179.99998742
 H      2   1   3     1.089460768577   130.68408284   180.00001869
 C      3   1   2     1.451813035321   124.04205871   180.00000148
 C      4   2   1     1.451813083281   124.04205810   180.00000920
 H      8   3   1     1.100096545287   110.78542812    60.49258897
 H      9   4   2     1.100096542911   110.78542016   299.50740062
 H      9   4   2     1.100096548191   110.78541710    60.49258901
 H      8   3   1     1.100096531584   110.78542500   299.50739260
 H      8   3   1     1.096553086048   107.71118537   179.99999204
 H      9   4   2     1.096553066405   107.71118638   179.99999317

---------------------------
INTERNAL COORDINATES (A.U.)
---------------------------
 C      0   0   0     0.000000000000     0.00000000     0.00000000
 C      1   0   0     2.561933976073     0.00000000     0.00000000
 N      1   2   0     2.616659685640   106.14715940     0.00000000
 N      2   1   3     2.616659726789   106.14716269     0.00000000
 C      4   2   1     2.574764232831   112.57952853     0.00000000
 H      1   2   3     2.058782522386   130.68408720   179.99998742
 H      2   1   3     2.058782486262   130.68408284   180.00001869
 C      3   1   2     2.743529034413   124.04205871   180.00000148
 C      4   2   1     2.743529125044   124.04205810   180.00000920
 H      8   3   1     2.078881191465   110.78542812    60.49258897
 H      9   4   2     2.078881186976   110.78542016   299.50740062
 H      9   4   2     2.078881196952   110.78541710    60.49258901
 H      8   3   1     2.078881165571   110.78542500   299.50739260
 H      8   3   1     2.072185023937   107.71118537   179.99999204
 H      9   4   2     2.072184986817   107.71118638   179.99999317



           ************************************************************
           *        Program running with 4 parallel MPI-processes     *
           *              working on a common directory               *
           ************************************************************
------------------------------------------------------------------------------
                   ___                                                        
                  /   \      - P O W E R E D   B Y -                         
                 /     \                                                     
                 |  |  |   _    _      __       _____    __    __             
                 |  |  |  | |  | |    /  \     |  _  \  |  |  /  |          
                  \  \/   | |  | |   /    \    | | | |  |  | /  /          
                 / \  \   | |__| |  /  /\  \   | |_| |  |  |/  /          
[...]
      2       0.037090   0.000000   0.000000  -0.045738   0.027426   0.128823
      3      -0.000000   0.001396   0.001036   0.000000  -0.000000  -0.000000
      4       0.133780   0.000001   0.000001  -0.017735  -0.033933   0.100483
      5       0.037090   0.000000   0.000000   0.045739   0.027425  -0.128823
      6       0.000000   0.012418  -0.012995   0.000000  -0.000000  -0.000000
      7      -0.309392  -0.000001  -0.000002   0.010706   0.027059  -0.242934
      8      -0.016633  -0.000000   0.000000   0.062465  -0.076588  -0.042618
      9       0.000001  -0.012420  -0.012994  -0.000000  -0.000000   0.000000
     10       0.309391   0.000001   0.000002   0.010705  -0.027058  -0.242935
     11      -0.016634   0.000000   0.000000  -0.062468  -0.076586   0.042616
     12      -0.000000   0.000000   0.000605  -0.000000  -0.000000   0.000000
     13       0.000001  -0.000000   0.000000   0.010243  -0.000001   0.226786
     14      -0.128198  -0.000000  -0.000001   0.000001   0.077203   0.000001
     15      -0.000000   0.001372   0.000336   0.000000  -0.000000  -0.000000
     16      -0.140990  -0.000001  -0.000001   0.070161   0.000228  -0.354600
     17       0.076218   0.000000   0.000000   0.026538  -0.004121  -0.250568
     18       0.000000  -0.001372   0.000336   0.000000  -0.000000   0.000000
     19       0.140990   0.000000   0.000001   0.070161  -0.000229  -0.354600
     20       0.076218   0.000000   0.000000  -0.026538  -0.004121   0.250568
     21       0.000000   0.032657  -0.032323   0.000000  -0.000000   0.000000
     22       0.219452   0.000001   0.000001  -0.040178   0.024687   0.044746
     23       0.050166   0.000000   0.000000   0.008140  -0.006520   0.011742
     24       0.000002  -0.032661  -0.032320  -0.000000  -0.000000  -0.000000
     25      -0.219452  -0.000001  -0.000001  -0.040179  -0.024685   0.044746
     26       0.050166   0.000000   0.000000  -0.008140  -0.006519  -0.011742
     27      -0.189900  -0.027437   0.027276   0.282357  -0.274625   0.117823
     28      -0.220075   0.145841  -0.147033   0.315996  -0.330047   0.278282
     29      -0.094341   0.323125  -0.323414  -0.197177   0.182945   0.049412
     30      -0.189900   0.027438   0.027273  -0.282366  -0.274614  -0.117825
     31       0.220069   0.145858   0.147018   0.316007   0.330034   0.278284
     32      -0.094328  -0.323160  -0.323380   0.197184   0.182939  -0.049410
     33       0.189898   0.027438   0.027274   0.282366   0.274613   0.117825
     34       0.220082  -0.145858  -0.147017   0.316006   0.330033   0.278284
     35      -0.094357   0.323158   0.323378   0.197186   0.182941  -0.049410
     36       0.189900  -0.027433   0.027276  -0.282357   0.274624  -0.117823
     37      -0.220077  -0.145845   0.147033   0.315995  -0.330046   0.278282
     38      -0.094344  -0.323124   0.323412  -0.197180   0.182948   0.049411
     39      -0.000002  -0.495840   0.494895  -0.000002   0.000002  -0.000000
     40      -0.329814  -0.000000  -0.000003  -0.221872   0.228445   0.092149
     41       0.067672  -0.000000   0.000001   0.007574  -0.006601   0.008461
     42      -0.000022   0.495893   0.494842   0.000002   0.000001   0.000000
     43       0.329812   0.000002   0.000002  -0.221880  -0.228438   0.092146
     44       0.067672   0.000000   0.000000  -0.007575  -0.006601  -0.008461
                 36         37         38         39         40         41    
      0       0.000000  -0.000000  -0.000000  -0.000169   0.000171   0.000000
      1       0.410128  -0.000214  -0.000775   0.000000  -0.000000   0.000080
      2       0.057355  -0.000225  -0.000437  -0.000000   0.000000  -0.000344
      3      -0.000000   0.000000  -0.000000  -0.000165  -0.000175   0.000000
      4      -0.410128  -0.000214   0.000775  -0.000000   0.000000  -0.000080
      5       0.057355   0.000224  -0.000437   0.000000   0.000000  -0.000344
      6      -0.000000  -0.000000  -0.000000  -0.000352   0.000290  -0.000000
      7      -0.143114  -0.000020  -0.000485   0.000000   0.000000  -0.000266
      8       0.020005  -0.000202   0.000266   0.000000  -0.000000  -0.000038
      9      -0.000000   0.000000  -0.000000  -0.000344  -0.000299   0.000000
     10       0.143114  -0.000020   0.000485  -0.000000   0.000000   0.000266
     11       0.020005   0.000202   0.000266  -0.000000  -0.000000  -0.000038
     12      -0.000000  -0.000000  -0.000000   0.000296   0.000004   0.000000
     13      -0.000000  -0.001513   0.000000   0.000000   0.000000   0.000000
     14      -0.049657   0.000000   0.000435  -0.000000   0.000000   0.000018
     15       0.000000   0.000000  -0.000000   0.000962  -0.000293   0.000000
     16      -0.117101   0.004048   0.000931  -0.000000   0.000000  -0.002209
     17      -0.506849  -0.003298  -0.000644   0.000000  -0.000000   0.001751
     18      -0.000000   0.000000  -0.000000   0.000954   0.000318  -0.000000
     19       0.117101   0.004047  -0.000931  -0.000000  -0.000000   0.002209
     20      -0.506849   0.003298  -0.000645  -0.000000  -0.000000   0.001751
     21       0.000000   0.000000   0.000000   0.068354  -0.066575   0.000000
     22       0.026225   0.035537   0.035668  -0.000000   0.000000  -0.015123
     23      -0.016821   0.001167   0.001277  -0.000000   0.000000   0.065129
     24      -0.000000  -0.000000   0.000000   0.066612   0.068318   0.000000
     25      -0.026225   0.035535  -0.035670   0.000000   0.000000   0.015132
     26      -0.016821  -0.001167   0.001277  -0.000000  -0.000000   0.065168
     27       0.035715   0.366502   0.366369  -0.408889   0.398433  -0.181193
     28       0.118246  -0.205013  -0.205583   0.235983  -0.230051   0.099448
     29       0.029381   0.150734   0.150554  -0.176671   0.172135  -0.070543
     30       0.035716  -0.366480   0.366392  -0.398465  -0.408857  -0.181301
     31      -0.118246  -0.205000   0.205596  -0.229964  -0.236067  -0.099507
     32       0.029381  -0.150724   0.150564  -0.172167  -0.176639  -0.070585
     33      -0.035716   0.366481  -0.366392  -0.398465  -0.408857   0.181300
     34      -0.118246  -0.205000   0.205596   0.229964   0.236067  -0.099506
     35       0.029381  -0.150725   0.150564   0.172167   0.176639  -0.070584
     36      -0.035715  -0.366503  -0.366371  -0.408889   0.398433   0.181191
     37       0.118246  -0.205013  -0.205584  -0.235983   0.230051   0.099446
     38       0.029380   0.150734   0.150554   0.176670  -0.172135  -0.070542
     39      -0.000000   0.000000   0.000000   0.007452  -0.007224   0.000000
     40      -0.047744  -0.005628  -0.005811   0.000000  -0.000000  -0.011338
     41      -0.017030  -0.317105  -0.316769   0.000002  -0.000002  -0.632220
     42      -0.000000  -0.000000   0.000000   0.007263   0.007414   0.000000
     43       0.047743  -0.005628   0.005811  -0.000000   0.000000   0.011345
     44      -0.017030   0.317087  -0.316789   0.000000   0.000000  -0.632596
                 42         43         44    
      0       0.000000   0.000000   0.000000
      1      -0.000294   0.039390   0.050422
      2      -0.000153  -0.047759  -0.047694
      3      -0.000000   0.000000  -0.000000
      4      -0.000294   0.039391  -0.050421
      5       0.000153   0.047760  -0.047693
      6       0.000000   0.000000   0.000000
      7      -0.000152   0.000296   0.000811
      8       0.000304   0.000786   0.002855
      9       0.000000  -0.000000   0.000000
     10      -0.000151   0.000296  -0.000811
     11      -0.000304  -0.000786   0.002855
     12      -0.000000  -0.000000   0.000000
     13      -0.000208  -0.001867  -0.000000
     14       0.000000  -0.000000   0.000995
     15      -0.000000  -0.000000  -0.000000
     16      -0.000738  -0.461811  -0.465923
     17       0.000361   0.531846   0.527340
     18      -0.000000  -0.000000   0.000000
     19      -0.000737  -0.461820   0.465914
     20      -0.000359  -0.531856   0.527330
     21       0.000000  -0.000000  -0.000000
     22      -0.015134   0.000366   0.000098
     23       0.065132  -0.000228  -0.000543
     24      -0.000000  -0.000000  -0.000000
     25      -0.015125   0.000366  -0.000097
     26      -0.065093   0.000228  -0.000543
     27      -0.181413   0.002535   0.001345
     28       0.099626  -0.001927  -0.001107
     29      -0.070654   0.000673   0.000088
     30       0.181304  -0.002535   0.001345
     31       0.099567  -0.001927   0.001107
     32       0.070612  -0.000673   0.000088
     33      -0.181304   0.002535  -0.001345
     34       0.099567  -0.001927   0.001107
     35       0.070612  -0.000673   0.000088
     36       0.181411  -0.002535  -0.001345
     37       0.099625  -0.001927  -0.001107
     38      -0.070653   0.000673   0.000088
     39       0.000000   0.000000  -0.000000
     40      -0.011341  -0.001044  -0.001441
     41      -0.632489  -0.001807   0.001658
     42      -0.000000   0.000000   0.000000
     43      -0.011334  -0.001044   0.001441
     44       0.632112   0.001808   0.001658


-----------
IR SPECTRUM
-----------

 Mode   freq       eps      Int      T**2         TX        TY        TZ
       cm**-1   L/(mol*cm) km/mol    a.u.
----------------------------------------------------------------------------
  6:     59.78   0.000000    0.00  0.000000  ( 0.000010 -0.000000  0.000000)
  7:     61.90   0.000016    0.08  0.000082  (-0.009073 -0.000000  0.000000)
  8:    188.91   0.006310   31.89  0.010423  (-0.102093  0.000000  0.000000)
  9:    275.03   0.000000    0.00  0.000000  ( 0.000000 -0.000000  0.000000)
 10:    289.91   0.001332    6.73  0.001434  (-0.000000 -0.000000 -0.037872)
 11:    442.39   0.003073   15.53  0.002168  ( 0.000000  0.046560  0.000000)
 12:    630.77   0.000580    2.93  0.000287  (-0.000000  0.000000 -0.016942)
 13:    638.13   0.000000    0.00  0.000000  (-0.000000  0.000000 -0.000000)
 14:    641.67   0.000097    0.49  0.000047  ( 0.006872  0.000000 -0.000000)
 15:    746.39   0.015702   79.35  0.006565  ( 0.081024  0.000000  0.000000)
 16:    763.75   0.005187   26.21  0.002119  ( 0.000000 -0.046035  0.000000)
 17:    879.41   0.000000    0.00  0.000000  ( 0.000000  0.000000  0.000000)
 18:   1023.47   0.000442    2.23  0.000135  ( 0.000000 -0.011609 -0.000000)
 19:   1036.49   0.000033    0.17  0.000010  ( 0.000000 -0.000000 -0.003151)
 20:   1077.81   0.001963    9.92  0.000568  (-0.000000  0.000000 -0.023841)
 21:   1089.91   0.000066    0.33  0.000019  ( 0.000000  0.004357 -0.000000)
 22:   1098.03   0.002110   10.66  0.000600  (-0.000000  0.000000 -0.024489)
 23:   1144.15   0.000013    0.07  0.000004  (-0.001883  0.000000 -0.000000)
 24:   1144.27   0.000000    0.00  0.000000  ( 0.000001  0.000000 -0.000000)
 25:   1237.82   0.013710   69.29  0.003457  ( 0.000000 -0.058792  0.000000)
 26:   1381.24   0.000649    3.28  0.000147  (-0.000000  0.012105 -0.000000)
 27:   1409.06   0.000008    0.04  0.000002  (-0.000000  0.000000  0.001303)
 28:   1421.16   0.005599   28.29  0.001229  ( 0.000000  0.035063  0.000001)
 29:   1422.85   0.001476    7.46  0.000324  ( 0.000000  0.000001 -0.017994)
 30:   1449.55   0.000130    0.66  0.000028  (-0.000000  0.000000  0.005300)
 31:   1449.96   0.000000    0.00  0.000000  ( 0.000002  0.000000  0.000000)
 32:   1450.64   0.006210   31.38  0.001336  ( 0.036551 -0.000000 -0.000000)
 33:   1475.85   0.002770   14.00  0.000586  (-0.000000 -0.024201  0.000001)
 34:   1481.67   0.008403   42.46  0.001770  ( 0.000000  0.000000  0.042068)
 35:   1512.57   0.016491   83.34  0.003402  (-0.000000  0.058330  0.000000)
 36:   1661.04   0.000014    0.07  0.000003  ( 0.000000 -0.000000  0.001641)
 37:   3076.57   0.021003  106.14  0.002130  ( 0.000000  0.046156  0.000000)
 38:   3077.55   0.000108    0.55  0.000011  ( 0.000000 -0.000001  0.003312)
 39:   3174.95   0.006523   32.97  0.000641  ( 0.025321 -0.000000 -0.000000)
 40:   3174.96   0.000001    0.01  0.000000  ( 0.000327  0.000000  0.000000)
 41:   3215.12   0.001405    7.10  0.000136  ( 0.000000  0.000001  0.011680)
 42:   3215.27   0.000166    0.84  0.000016  ( 0.000000 -0.004008  0.000003)
 43:   3281.08   0.001481    7.49  0.000141  ( 0.000000 -0.011869 -0.000000)
 44:   3302.15   0.000149    0.75  0.000014  (-0.000000 -0.000000  0.003752)

* The epsilon (eps) is given for a Dirac delta lineshape.
** The dipole moment derivative (T) already includes vibrational overlap.

The first frequency considered to be a vibration is 6
The total number of vibrations considered is 39


--------------------------
THERMOCHEMISTRY AT 298.15K
--------------------------

Temperature         ... 298.15 K
Pressure            ... 1.00 atm
Total Mass          ... 96.13 AMU

Throughout the following assumptions are being made:
  (1) The electronic state is orbitally nondegenerate
  (2) There are no thermally accessible electronically excited states
  (3) Hindered rotations indicated by low frequency modes are not
      treated as such but are treated as vibrations and this may
      cause some error
  (4) All equations used are the standard statistical mechanics
      equations for an ideal gas
  (5) All vibrations are strictly harmonic

freq.      59.78  E(vib)   ...       0.51 
freq.      61.90  E(vib)   ...       0.51 
freq.     188.91  E(vib)   ...       0.36 
freq.     275.03  E(vib)   ...       0.28 
freq.     289.91  E(vib)   ...       0.27 
freq.     442.39  E(vib)   ...       0.17 
freq.     630.77  E(vib)   ...       0.09 
freq.     638.13  E(vib)   ...       0.09 
freq.     641.67  E(vib)   ...       0.09 
freq.     746.39  E(vib)   ...       0.06 
freq.     763.75  E(vib)   ...       0.06 
freq.     879.41  E(vib)   ...       0.04 
freq.    1023.47  E(vib)   ...       0.02 
freq.    1036.49  E(vib)   ...       0.02 
freq.    1077.81  E(vib)   ...       0.02 
freq.    1089.91  E(vib)   ...       0.02 
freq.    1098.03  E(vib)   ...       0.02 
freq.    1144.15  E(vib)   ...       0.01 
freq.    1144.27  E(vib)   ...       0.01 
freq.    1237.82  E(vib)   ...       0.01 
freq.    1381.24  E(vib)   ...       0.01 
freq.    1409.06  E(vib)   ...       0.00 
freq.    1421.16  E(vib)   ...       0.00 
freq.    1422.85  E(vib)   ...       0.00 
freq.    1449.55  E(vib)   ...       0.00 
freq.    1449.96  E(vib)   ...       0.00 
freq.    1450.64  E(vib)   ...       0.00 
freq.    1475.85  E(vib)   ...       0.00 
freq.    1481.67  E(vib)   ...       0.00 
freq.    1512.57  E(vib)   ...       0.00 
freq.    1661.04  E(vib)   ...       0.00 
freq.    3076.57  E(vib)   ...       0.00 
freq.    3077.55  E(vib)   ...       0.00 
freq.    3174.95  E(vib)   ...       0.00 
freq.    3174.96  E(vib)   ...       0.00 
freq.    3215.12  E(vib)   ...       0.00 
freq.    3215.27  E(vib)   ...       0.00 
freq.    3281.08  E(vib)   ...       0.00 
freq.    3302.15  E(vib)   ...       0.00 

------------
INNER ENERGY
------------

The inner energy is: U= E(el) + E(ZPE) + E(vib) + E(rot) + E(trans)
    E(el)   - is the total energy from the electronic structure calculation
              = E(kin-el) + E(nuc-el) + E(el-el) + E(nuc-nuc)
    E(ZPE)  - the the zero temperature vibrational energy from the frequency calculation
    E(vib)  - the the finite temperature correction to E(ZPE) due to population
              of excited vibrational states
    E(rot)  - is the rotational thermal energy
    E(trans)- is the translational thermal energy

Summary of contributions to the inner energy U:
Electronic energy                ...   -304.51281373 Eh
Zero point energy                ...      0.12781255 Eh      80.20 kcal/mol
Thermal vibrational correction   ...      0.00428946 Eh       2.69 kcal/mol
Thermal rotational correction    ...      0.00141627 Eh       0.89 kcal/mol
Thermal translational correction ...      0.00141627 Eh       0.89 kcal/mol
-----------------------------------------------------------------------
Total thermal energy                   -304.37787918 Eh


Summary of corrections to the electronic energy:
(perhaps to be used in another calculation)
Total thermal correction                  0.00712200 Eh       4.47 kcal/mol
Non-thermal (ZPE) correction              0.12781255 Eh      80.20 kcal/mol
-----------------------------------------------------------------------
Total correction                          0.13493455 Eh      84.67 kcal/mol


--------
ENTHALPY
--------

The enthalpy is H = U + kB*T
                kB is Boltzmann's constant
Total free energy                 ...   -304.37787918 Eh 
Thermal Enthalpy correction       ...      0.00094421 Eh       0.59 kcal/mol
-----------------------------------------------------------------------
Total Enthalpy                    ...   -304.37693498 Eh


Note: Rotational entropy computed according to Herzberg 
Infrared and Raman Spectra, Chapter V,1, Van Nostrand Reinhold, 1945 
Point Group:  C2v, Symmetry Number:   2  
Rotational constants in cm-1:     0.236516     0.069833     0.055051 

Vibrational entropy computed according to the QRRHO of S. Grimme
Chem.Eur.J. 2012 18 9955


-------
ENTROPY
-------

The entropy contributions are T*S = T*(S(el)+S(vib)+S(rot)+S(trans))
     S(el)   - electronic entropy
     S(vib)  - vibrational entropy
     S(rot)  - rotational entropy
     S(trans)- translational entropy
The entropies will be listed as multiplied by the temperature to get
units of energy

Electronic entropy                ...      0.00000000 Eh      0.00 kcal/mol
Vibrational entropy               ...      0.00738452 Eh      4.63 kcal/mol
Rotational entropy                ...      0.01216235 Eh      7.63 kcal/mol
Translational entropy             ...      0.01881539 Eh     11.81 kcal/mol
-----------------------------------------------------------------------
Final entropy term                ...      0.03836226 Eh     24.07 kcal/mol

In case the symmetry of your molecule has not been determined correctly
or in case you have a reason to use a different symmetry number we print 
out the resulting rotational entropy values for sn=1,12 :
 --------------------------------------------------------
|  sn= 1 | S(rot)=       0.01281681 Eh      8.04 kcal/mol|
|  sn= 2 | S(rot)=       0.01216235 Eh      7.63 kcal/mol|
|  sn= 3 | S(rot)=       0.01177952 Eh      7.39 kcal/mol|
|  sn= 4 | S(rot)=       0.01150790 Eh      7.22 kcal/mol|
|  sn= 5 | S(rot)=       0.01129721 Eh      7.09 kcal/mol|
|  sn= 6 | S(rot)=       0.01112506 Eh      6.98 kcal/mol|
|  sn= 7 | S(rot)=       0.01097952 Eh      6.89 kcal/mol|
|  sn= 8 | S(rot)=       0.01085344 Eh      6.81 kcal/mol|
|  sn= 9 | S(rot)=       0.01074223 Eh      6.74 kcal/mol|
|  sn=10 | S(rot)=       0.01064275 Eh      6.68 kcal/mol|
|  sn=11 | S(rot)=       0.01055276 Eh      6.62 kcal/mol|
|  sn=12 | S(rot)=       0.01047061 Eh      6.57 kcal/mol|
 --------------------------------------------------------


-------------------
GIBBS FREE ENERGY
-------------------

The Gibbs free energy is G = H - T*S

Total enthalpy                    ...   -304.37693498 Eh 
Total entropy correction          ...     -0.03836226 Eh    -24.07 kcal/mol
-----------------------------------------------------------------------
Final Gibbs free energy         ...   -304.41529723 Eh

For completeness - the Gibbs free energy minus the electronic energy
G-E(el)                           ...      0.09751650 Eh     61.19 kcal/mol


Timings for individual modules:

Sum of individual times         ...      254.835 sec (=   4.247 min)
GTO integral calculation        ...        2.817 sec (=   0.047 min)   1.1 %
SCF iterations                  ...      122.955 sec (=   2.049 min)  48.2 %
SCF Gradient evaluation         ...       32.752 sec (=   0.546 min)  12.9 %
Geometry relaxation             ...        0.203 sec (=   0.003 min)   0.1 %
Analytical frequency calculation...       96.110 sec (=   1.602 min)  37.7 %
                             ****ORCA TERMINATED NORMALLY****
TOTAL RUN TIME: 0 days 0 hours 4 minutes 16 seconds 936 msec
