
                                 *****************
                                 * O   R   C   A *
                                 *****************

                                            #,                                       
                                            ###                                      
                                            ####                                     
                                            #####                                    
                                            ######                                   
                                           ########,                                 
                                     ,,################,,,,,                         
                               ,,#################################,,                 
                          ,,##########################################,,             
                       ,#########################################, ''#####,          
                    ,#############################################,,   '####,        
                  ,##################################################,,,,####,       
                ,###########''''           ''''###############################       
              ,#####''   ,,,,##########,,,,          '''####'''          '####       
            ,##' ,,,,###########################,,,                        '##       
           ' ,,###''''                  '''############,,,                           
         ,,##''                                '''############,,,,        ,,,,,,###''
      ,#''                                            '''#######################'''  
     '                                                          ''''####''''         
             ,#######,   #######,   ,#######,      ##                                
            ,#'     '#,  ##    ##  ,#'     '#,    #''#        ######   ,####,        
            ##       ##  ##   ,#'  ##            #'  '#       #        #'  '#        
            ##       ##  #######   ##           ,######,      #####,   #    #        
            '#,     ,#'  ##    ##  '#,     ,#' ,#      #,         ##   #,  ,#        
             '#######'   ##     ##  '#######'  #'      '#     #####' # '####'        



                  #######################################################
                  #                        -***-                        #
                  #          Department of theory and spectroscopy      #
                  #    Directorship and core code : Frank Neese         #
                  #        Max Planck Institute fuer Kohlenforschung    #
                  #                Kaiser Wilhelm Platz 1               #
                  #                 D-45470 Muelheim/Ruhr               #
                  #                      Germany                        #
                  #                                                     #
                  #                  All rights reserved                #
                  #                        -***-                        #
                  #######################################################


                         Program Version 5.0.3 -  RELEASE  -


 With contributions from (in alphabetic order):
   Daniel Aravena         : Magnetic Suceptibility
   Michael Atanasov       : Ab Initio Ligand Field Theory (pilot matlab implementation)
   Alexander A. Auer      : GIAO ZORA, VPT2 properties, NMR spectrum
   Ute Becker             : Parallelization
   Giovanni Bistoni       : ED, misc. LED, open-shell LED, HFLD
   Martin Brehm           : Molecular dynamics
   Dmytro Bykov           : SCF Hessian
   Vijay G. Chilkuri      : MRCI spin determinant printing, contributions to CSF-ICE
   Dipayan Datta          : RHF DLPNO-CCSD density
   Achintya Kumar Dutta   : EOM-CC, STEOM-CC
   Dmitry Ganyushin       : Spin-Orbit,Spin-Spin,Magnetic field MRCI
   Miquel Garcia          : C-PCM and meta-GGA Hessian, CC/C-PCM, Gaussian charge scheme
   Yang Guo               : DLPNO-NEVPT2, F12-NEVPT2, CIM, IAO-localization
   Andreas Hansen         : Spin unrestricted coupled pair/coupled cluster methods
   Benjamin Helmich-Paris : MC-RPA, TRAH-SCF, COSX integrals
   Lee Huntington         : MR-EOM, pCC
   Robert Izsak           : Overlap fitted RIJCOSX, COSX-SCS-MP3, EOM
   Marcus Kettner         : VPT2
   Christian Kollmar      : KDIIS, OOCD, Brueckner-CCSD(T), CCSD density, CASPT2, CASPT2-K
   Simone Kossmann        : Meta GGA functionals, TD-DFT gradient, OOMP2, MP2 Hessian
   Martin Krupicka        : Initial AUTO-CI
   Lucas Lang             : DCDCAS
   Marvin Lechner         : AUTO-CI (C++ implementation), FIC-MRCC
   Dagmar Lenk            : GEPOL surface, SMD
   Dimitrios Liakos       : Extrapolation schemes; Compound Job, initial MDCI parallelization
   Dimitrios Manganas     : Further ROCIS development; embedding schemes
   Dimitrios Pantazis     : SARC Basis sets
   Anastasios Papadopoulos: AUTO-CI, single reference methods and gradients
   Taras Petrenko         : DFT Hessian,TD-DFT gradient, ASA, ECA, R-Raman, ABS, FL, XAS/XES, NRVS
   Peter Pinski           : DLPNO-MP2, DLPNO-MP2 Gradient
   Christoph Reimann      : Effective Core Potentials
   Marius Retegan         : Local ZFS, SOC
   Christoph Riplinger    : Optimizer, TS searches, QM/MM, DLPNO-CCSD(T), (RO)-DLPNO pert. Triples
   Tobias Risthaus        : Range-separated hybrids, TD-DFT gradient, RPA, STAB
   Michael Roemelt        : Original ROCIS implementation
   Masaaki Saitow         : Open-shell DLPNO-CCSD energy and density
   Barbara Sandhoefer     : DKH picture change effects
   Avijit Sen             : IP-ROCIS
   Kantharuban Sivalingam : CASSCF convergence, NEVPT2, FIC-MRCI
   Bernardo de Souza      : ESD, SOC TD-DFT
   Georgi Stoychev        : AutoAux, RI-MP2 NMR, DLPNO-MP2 response
   Willem Van den Heuvel  : Paramagnetic NMR
   Boris Wezisla          : Elementary symmetry handling
   Frank Wennmohs         : Technical directorship


 We gratefully acknowledge several colleagues who have allowed us to
 interface, adapt or use parts of their codes:
   Stefan Grimme, W. Hujo, H. Kruse, P. Pracht,  : VdW corrections, initial TS optimization,
                  C. Bannwarth, S. Ehlert          DFT functionals, gCP, sTDA/sTD-DF
   Ed Valeev, F. Pavosevic, A. Kumar             : LibInt (2-el integral package), F12 methods
   Garnet Chan, S. Sharma, J. Yang, R. Olivares  : DMRG
   Ulf Ekstrom                                   : XCFun DFT Library
   Mihaly Kallay                                 : mrcc  (arbitrary order and MRCC methods)
   Jiri Pittner, Ondrej Demel                    : Mk-CCSD
   Frank Weinhold                                : gennbo (NPA and NBO analysis)
   Christopher J. Cramer and Donald G. Truhlar   : smd solvation model
   Lars Goerigk                                  : TD-DFT with DH, B97 family of functionals
   V. Asgeirsson, H. Jonsson                     : NEB implementation
   FAccTs GmbH                                   : IRC, NEB, NEB-TS, DLPNO-Multilevel, CI-OPT
                                                   MM, QMMM, 2- and 3-layer-ONIOM, Crystal-QMMM,
                                                   LR-CPCM, SF, NACMEs, symmetry and pop. for TD-DFT,
                                                   nearIR, NL-DFT gradient (VV10), updates on ESD,
                                                   ML-optimized integration grids
   S Lehtola, MJT Oliveira, MAL Marques          : LibXC Library
   Liviu Ungur et al                             : ANISO software


 Your calculation uses the libint2 library for the computation of 2-el integrals
 For citations please refer to: http://libint.valeyev.net

 Your ORCA version has been built with support for libXC version: 5.1.0
 For citations please refer to: https://tddft.org/programs/libxc/

 This ORCA versions uses:
   CBLAS   interface :  Fast vector & matrix operations
   LAPACKE interface :  Fast linear algebra routines
   SCALAPACK package :  Parallel linear algebra routines
   Shared memory     :  Shared parallel matrices
   BLAS/LAPACK       :  OpenBLAS 0.3.15  USE64BITINT DYNAMIC_ARCH NO_AFFINITY SkylakeX SINGLE_THREADED
        Core in use  :  SkylakeX
   Copyright (c) 2011-2014, The OpenBLAS Project




***************************************
The coordinates will be read from file: iPrMe.xyz
***************************************


Your calculation utilizes the atom-pairwise dispersion correction
based on tight binding partial charges (D4)
Cite in your paper:
E.Caldeweyher, C.Bannwarth, S.Grimme, J.Chem.Phys., (2017), 147, 034112.
E.Caldeweyher, S.Ehlert, A.Hansen, H.Neugebauer, S.Grimme, J.Chem.Phys., (2018), in progress.
   

XCFun DFT library Copyright 2009-2010 Ulf Ekstrom and contributors.
See http://admol.org/xcfun for more information.
This is free software; see the source code for copying conditions.
There is ABSOLUTELY NO WARRANTY; not even for MERCHANTABILITY or FITNESS FOR A PARTICULAR PURPOSE.
For details see the documentation.
Scientific users of this library should cite U. Ekstrom, L. Visscher, R. Bast, A. J. Thorvaldsen and K. Ruud;
J.Chem.Theor.Comp. 2010, DOI: 10.1021/ct100117s
XCFun Version 0.99 

================================================================================

----- Orbital basis set information -----
Your calculation utilizes the basis: def2-SVP
   F. Weigend and R. Ahlrichs, Phys. Chem. Chem. Phys. 7, 3297 (2005).

----- AuxJ basis set information -----
Your calculation utilizes the auxiliary basis: def2/J
   F. Weigend, Phys. Chem. Chem. Phys. 8, 1057 (2006).

================================================================================
                                        WARNINGS
                       Please study these warnings very carefully!
================================================================================


WARNING: Geometry Optimization
  ===> : Switching off AutoStart
         For restart on a previous wavefunction, please use MOREAD

INFO   : the flag for use of the SHARK integral package has been found!

================================================================================
                                       INPUT FILE
================================================================================
NAME = iPrMe_Water.inp
|  1> # ORCAForces - ../2023_02/pKa_prediction/Yates_carbene_xyzs/Our_level/Uncharged/Water/2/iPrMe_Water.inp
|  2> # Basic Mode
|  3> #
|  4> ! Opt FREQ wB97X D4 Def2-SVP SlowConv TightSCF DEFGRID2 Def2/J RIJCOSX CPCM(Water)
|  5> 
|  6> %maxcore 4500
|  7> 
|  8> %PAL NPROCS 4 END
|  9> 
| 10> %geom 
| 11> Maxiter 150
| 12> END
| 13> 
| 14> * xyzfile 0 1 iPrMe.xyz
| 15> 
| 16>                          ****END OF INPUT****
================================================================================

                       *****************************
                       * Geometry Optimization Run *
                       *****************************

Geometry optimization settings:
Update method            Update   .... BFGS
Choice of coordinates    CoordSys .... Z-matrix Internals
Initial Hessian          InHess   .... Almoef's Model

Convergence Tolerances:
Energy Change            TolE     ....  5.0000e-06 Eh
Max. Gradient            TolMAXG  ....  3.0000e-04 Eh/bohr
RMS Gradient             TolRMSG  ....  1.0000e-04 Eh/bohr
Max. Displacement        TolMAXD  ....  4.0000e-03 bohr
RMS Displacement         TolRMSD  ....  2.0000e-03 bohr
Strict Convergence                ....  False
------------------------------------------------------------------------------
                        ORCA OPTIMIZATION COORDINATE SETUP
------------------------------------------------------------------------------

The optimization will be done in new redundant internal coordinates
Making redundant internal coordinates   ...  (new redundants) done
Evaluating the initial hessian          ...  (Almloef) done
Evaluating the coordinates              ...  done
Calculating the B-matrix                .... done
Calculating the G-matrix                .... done
Diagonalizing the G-matrix              .... done
Small eigenvalue found = 1.155e-02
Small eigenvalue found = 2.079e-02
Small eigenvalue found = 2.275e-02
The first mode is                       ....   77
The number of degrees of freedom        ....   93

    -----------------------------------------------------------------
                    Redundant Internal Coordinates


    -----------------------------------------------------------------
         Definition                    Initial Value    Approx d2E/dq
    -----------------------------------------------------------------
      1. B(C   1,C   0)                  1.3620         0.692414   
      2. B(N   3,C   2)                  1.3610         0.622600   
      3. B(N   3,C   0)                  1.4025         0.534485   
      4. B(N   4,C   1)                  1.4025         0.534485   
      5. B(N   4,C   2)                  1.3610         0.622600   
      6. B(C   5,C   0)                  1.4936         0.427027   
      7. B(C   6,C   1)                  1.4936         0.427027   
      8. B(H   7,C   5)                  1.0953         0.353123   
      9. B(H   8,C   6)                  1.0953         0.353123   
     10. B(H   9,C   6)                  1.0953         0.353123   
     11. B(H  10,C   5)                  1.0953         0.353123   
     12. B(H  11,C   5)                  1.0910         0.358719   
     13. B(H  12,C   6)                  1.0910         0.358719   
     14. B(C  17,C  13)                  1.5316         0.371364   
     15. B(C  17,N   3)                  1.4757         0.408403   
     16. B(C  17,C  16)                  1.5316         0.371364   
     17. B(C  18,C  15)                  1.5316         0.371364   
     18. B(C  18,C  14)                  1.5316         0.371364   
     19. B(C  18,N   4)                  1.4757         0.408403   
     20. B(H  19,C  13)                  1.0930         0.356102   
     21. B(H  20,C  14)                  1.0930         0.356102   
     22. B(H  21,C  15)                  1.0930         0.356102   
     23. B(H  22,C  16)                  1.0930         0.356102   
     24. B(H  23,C  13)                  1.0913         0.358378   
     25. B(H  24,C  14)                  1.0913         0.358378   
     26. B(H  25,C  15)                  1.0913         0.358378   
     27. B(H  26,C  16)                  1.0913         0.358378   
     28. B(H  27,C  13)                  1.0937         0.355215   
     29. B(H  28,C  14)                  1.0937         0.355215   
     30. B(H  29,C  15)                  1.0937         0.355215   
     31. B(H  30,C  16)                  1.0937         0.355215   
     32. B(H  31,C  17)                  1.0924         0.356878   
     33. B(H  32,C  18)                  1.0924         0.356878   
     34. A(N   3,C   0,C   5)          124.1058         0.393140   
     35. A(C   1,C   0,C   5)          130.1048         0.414168   
     36. A(C   1,C   0,N   3)          105.7895         0.428300   
     37. A(C   0,C   1,N   4)          105.7895         0.428300   
     38. A(C   0,C   1,C   6)          130.1048         0.414168   
     39. A(N   4,C   1,C   6)          124.1058         0.393140   
     40. A(N   3,C   2,N   4)          102.6680         0.429054   
     41. A(C   2,N   3,C  17)          121.8201         0.398102   
     42. A(C   0,N   3,C  17)          125.3033         0.387608   
     43. A(C   0,N   3,C   2)          112.8766         0.417510   
     44. A(C   2,N   4,C  18)          121.8201         0.398102   
     45. A(C   1,N   4,C   2)          112.8766         0.417510   
     46. A(C   1,N   4,C  18)          125.3033         0.387608   
     47. A(C   0,C   5,H  10)          112.1654         0.330479   
     48. A(H  10,C   5,H  11)          107.2978         0.289773   
     49. A(H   7,C   5,H  10)          107.4319         0.289060   
     50. A(C   0,C   5,H   7)          112.1654         0.330479   
     51. A(H   7,C   5,H  11)          107.2978         0.289773   
     52. A(C   0,C   5,H  11)          110.2307         0.331339   
     53. A(H   8,C   6,H   9)          107.4319         0.289060   
     54. A(C   1,C   6,H   8)          112.1654         0.330479   
     55. A(H   9,C   6,H  12)          107.2978         0.289773   
     56. A(H   8,C   6,H  12)          107.2978         0.289773   
     57. A(C   1,C   6,H  12)          110.2307         0.331339   
     58. A(C   1,C   6,H   9)          112.1654         0.330479   
     59. A(H  19,C  13,H  27)          108.4134         0.289709   
     60. A(H  23,C  13,H  27)          109.0405         0.289998   
     61. A(C  17,C  13,H  27)          110.4030         0.323278   
     62. A(H  19,C  13,H  23)          108.1810         0.290112   
     63. A(C  17,C  13,H  23)          109.8682         0.323748   
     64. A(C  17,C  13,H  19)          110.8766         0.323410   
     65. A(H  20,C  14,H  28)          108.4134         0.289709   
     66. A(C  18,C  14,H  28)          110.4030         0.323278   
     67. A(H  24,C  14,H  28)          109.0405         0.289998   
     68. A(H  20,C  14,H  24)          108.1810         0.290112   
     69. A(C  18,C  14,H  24)          109.8682         0.323748   
     70. A(C  18,C  14,H  20)          110.8766         0.323410   
     71. A(H  25,C  15,H  29)          109.0405         0.289998   
     72. A(H  21,C  15,H  29)          108.4134         0.289709   
     73. A(C  18,C  15,H  29)          110.4030         0.323278   
     74. A(H  21,C  15,H  25)          108.1810         0.290112   
     75. A(C  18,C  15,H  25)          109.8682         0.323748   
     76. A(C  18,C  15,H  21)          110.8766         0.323410   
     77. A(H  22,C  16,H  30)          108.4134         0.289709   
     78. A(C  17,C  16,H  30)          110.4030         0.323278   
     79. A(H  26,C  16,H  30)          109.0405         0.289998   
     80. A(H  22,C  16,H  26)          108.1810         0.290112   
     81. A(C  17,C  16,H  26)          109.8682         0.323748   
     82. A(C  17,C  16,H  22)          110.8766         0.323410   
     83. A(C  16,C  17,H  31)          108.5146         0.323525   
     84. A(C  13,C  17,H  31)          108.5146         0.323525   
     85. A(N   3,C  17,H  31)          106.3070         0.326655   
     86. A(C  13,C  17,C  16)          112.2222         0.362615   
     87. A(N   3,C  17,C  16)          110.5318         0.366266   
     88. A(N   3,C  17,C  13)          110.5318         0.366266   
     89. A(C  14,C  18,C  15)          112.2222         0.362615   
     90. A(C  15,C  18,H  32)          108.5146         0.323525   
     91. A(C  14,C  18,H  32)          108.5146         0.323525   
     92. A(N   4,C  18,C  15)          110.5318         0.366266   
     93. A(N   4,C  18,H  32)          106.3070         0.326655   
     94. A(N   4,C  18,C  14)          110.5318         0.366266   
     95. D(N   4,C   1,C   0,N   3)      0.0000         0.033706   
     96. D(N   4,C   1,C   0,C   5)    180.0000         0.033706   
     97. D(C   6,C   1,C   0,N   3)    180.0000         0.033706   
     98. D(C   6,C   1,C   0,C   5)      0.0000         0.033706   
     99. D(C  17,N   3,C   0,C   1)    180.0000         0.022704   
    100. D(C   2,N   3,C   0,C   1)      0.0000         0.022704   
    101. D(C  17,N   3,C   0,C   5)      0.0000         0.022704   
    102. D(C   2,N   3,C   0,C   5)    180.0000         0.022704   
    103. D(C   0,N   3,C   2,N   4)      0.0000         0.028457   
    104. D(C  17,N   3,C   2,N   4)    180.0000         0.028457   
    105. D(C  18,N   4,C   1,C   6)      0.0000         0.022704   
    106. D(C  18,N   4,C   1,C   0)    180.0000         0.022704   
    107. D(C   2,N   4,C   1,C   6)    180.0000         0.022704   
    108. D(C   1,N   4,C   2,N   3)      0.0000         0.028457   
    109. D(C   2,N   4,C   1,C   0)      0.0000         0.022704   
    110. D(C  18,N   4,C   2,N   3)    180.0000         0.028457   
    111. D(H  10,C   5,C   0,N   3)     60.5073         0.013472   
    112. D(H  11,C   5,C   0,C   1)      0.0000         0.013472   
    113. D(H   7,C   5,C   0,C   1)    119.4927         0.013472   
    114. D(H  11,C   5,C   0,N   3)    180.0000         0.013472   
    115. D(H   7,C   5,C   0,N   3)    -60.5073         0.013472   
    116. D(H  10,C   5,C   0,C   1)   -119.4927         0.013472   
    117. D(H  12,C   6,C   1,N   4)    180.0000         0.013472   
    118. D(H  12,C   6,C   1,C   0)      0.0000         0.013472   
    119. D(H   9,C   6,C   1,N   4)    -60.5073         0.013472   
    120. D(H   8,C   6,C   1,N   4)     60.5073         0.013472   
    121. D(H   8,C   6,C   1,C   0)   -119.4927         0.013472   
    122. D(H   9,C   6,C   1,C   0)    119.4927         0.013472   
    123. D(C  13,C  17,N   3,C   0)    117.5722         0.014230   
    124. D(C  13,C  17,N   3,C   2)    -62.4278         0.014230   
    125. D(H  31,C  17,C  16,H  30)     62.2403         0.011020   
    126. D(H  31,C  17,C  16,H  22)    -57.9289         0.011020   
    127. D(C  13,C  17,C  16,H  30)    -57.6646         0.011020   
    128. D(C  13,C  17,C  16,H  26)     62.6347         0.011020   
    129. D(C  16,C  17,N   3,C   0)   -117.5722         0.014230   
    130. D(N   3,C  17,C  16,H  30)    178.4471         0.011020   
    131. D(N   3,C  17,C  16,H  26)    -61.2536         0.011020   
    132. D(N   3,C  17,C  16,H  22)     58.2779         0.011020   
    133. D(H  31,C  17,C  13,H  27)    -62.2403         0.011020   
    134. D(H  31,C  17,C  13,H  23)    177.4605         0.011020   
    135. D(H  31,C  17,C  13,H  19)     57.9289         0.011020   
    136. D(C  16,C  17,C  13,H  27)     57.6646         0.011020   
    137. D(C  16,C  17,C  13,H  23)    -62.6347         0.011020   
    138. D(C  16,C  17,C  13,H  19)    177.8338         0.011020   
    139. D(N   3,C  17,C  13,H  23)     61.2536         0.011020   
    140. D(C  13,C  17,C  16,H  22)   -177.8338         0.011020   
    141. D(N   3,C  17,C  13,H  19)    -58.2779         0.011020   
    142. D(H  31,C  17,N   3,C   2)    180.0000         0.014230   
    143. D(H  31,C  17,N   3,C   0)      0.0000         0.014230   
    144. D(H  31,C  17,C  16,H  26)   -177.4605         0.011020   
    145. D(C  16,C  17,N   3,C   2)     62.4278         0.014230   
    146. D(N   3,C  17,C  13,H  27)   -178.4471         0.011020   
    147. D(C  15,C  18,C  14,H  20)   -177.8338         0.011020   
    148. D(N   4,C  18,C  14,H  28)    178.4471         0.011020   
    149. D(N   4,C  18,C  14,H  24)    -61.2536         0.011020   
    150. D(N   4,C  18,C  14,H  20)     58.2779         0.011020   
    151. D(H  32,C  18,N   4,C   2)    180.0000         0.014230   
    152. D(H  32,C  18,N   4,C   1)      0.0000         0.014230   
    153. D(C  15,C  18,N   4,C   2)    -62.4278         0.014230   
    154. D(C  15,C  18,N   4,C   1)    117.5722         0.014230   
    155. D(C  14,C  18,N   4,C   2)     62.4278         0.014230   
    156. D(C  15,C  18,C  14,H  24)     62.6347         0.011020   
    157. D(C  14,C  18,N   4,C   1)   -117.5722         0.014230   
    158. D(H  32,C  18,C  15,H  29)    -62.2403         0.011020   
    159. D(H  32,C  18,C  15,H  21)     57.9289         0.011020   
    160. D(C  14,C  18,C  15,H  29)     57.6646         0.011020   
    161. D(C  14,C  18,C  15,H  25)    -62.6347         0.011020   
    162. D(C  14,C  18,C  15,H  21)    177.8338         0.011020   
    163. D(N   4,C  18,C  15,H  29)   -178.4471         0.011020   
    164. D(N   4,C  18,C  15,H  25)     61.2536         0.011020   
    165. D(N   4,C  18,C  15,H  21)    -58.2779         0.011020   
    166. D(H  32,C  18,C  14,H  28)     62.2403         0.011020   
    167. D(H  32,C  18,C  14,H  24)   -177.4605         0.011020   
    168. D(H  32,C  18,C  15,H  25)    177.4605         0.011020   
    169. D(H  32,C  18,C  14,H  20)    -57.9289         0.011020   
    170. D(C  15,C  18,C  14,H  28)    -57.6646         0.011020   
    -----------------------------------------------------------------

Number of atoms                         .... 33
Number of degrees of freedom            .... 170

         *************************************************************
         *                GEOMETRY OPTIMIZATION CYCLE   1            *
         *************************************************************
---------------------------------
CARTESIAN COORDINATES (ANGSTROEM)
---------------------------------
  C      0.000000    0.681014   -1.314068
  C      0.000000   -0.681014   -1.314068
  C      0.000000    0.000000    0.885810
  N      0.000000    1.062638    0.035511
  N      0.000000   -1.062638    0.035511
  C      0.000000    1.643171   -2.456472
  C      0.000000   -1.643171   -2.456472
  H     -0.882935    2.291348   -2.450848
  H     -0.882935   -2.291348   -2.450848
  H      0.882935   -2.291348   -2.450848
  H      0.882935    2.291348   -2.450848
  H      0.000000    1.103190   -3.404524
  H      0.000000   -1.103190   -3.404524
  C     -1.271425    2.738169    1.333660
  C     -1.271425   -2.738169    1.333660
  C      1.271425   -2.738169    1.333660
  C      1.271425    2.738169    1.333660
  C      0.000000    2.453609    0.528458
  C      0.000000   -2.453609    0.528458
  H     -2.163810    2.564647    0.726804
  H     -2.163810   -2.564647    0.726804
  H      2.163810   -2.564647    0.726804
  H      2.163810    2.564647    0.726804
  H     -1.316254    2.078166    2.201607
  H     -1.316254   -2.078166    2.201607
  H      1.316254   -2.078166    2.201607
  H      1.316254    2.078166    2.201607
  H     -1.282220    3.777315    1.674655
  H     -1.282220   -3.777315    1.674655
  H      1.282220   -3.777315    1.674655
  H      1.282220    3.777315    1.674655
  H      0.000000    3.092966   -0.357354
  H      0.000000   -3.092966   -0.357354

----------------------------
CARTESIAN COORDINATES (A.U.)
----------------------------
  NO LB      ZA    FRAG     MASS         X           Y           Z
   0 C     6.0000    0    12.011    0.000000    1.286930   -2.483229
   1 C     6.0000    0    12.011    0.000000   -1.286930   -2.483229
   2 C     6.0000    0    12.011    0.000000    0.000000    1.673938
   3 N     7.0000    0    14.007    0.000000    2.008095    0.067106
   4 N     7.0000    0    14.007    0.000000   -2.008095    0.067106
   5 C     6.0000    0    12.011    0.000000    3.105143   -4.642059
   6 C     6.0000    0    12.011    0.000000   -3.105143   -4.642059
   7 H     1.0000    0     1.008   -1.668505    4.330020   -4.631432
   8 H     1.0000    0     1.008   -1.668505   -4.330020   -4.631432
   9 H     1.0000    0     1.008    1.668505   -4.330020   -4.631432
  10 H     1.0000    0     1.008    1.668505    4.330020   -4.631432
  11 H     1.0000    0     1.008    0.000000    2.084727   -6.433618
  12 H     1.0000    0     1.008    0.000000   -2.084727   -6.433618
  13 C     6.0000    0    12.011   -2.402645    5.174390    2.520252
  14 C     6.0000    0    12.011   -2.402645   -5.174390    2.520252
  15 C     6.0000    0    12.011    2.402645   -5.174390    2.520252
  16 C     6.0000    0    12.011    2.402645    5.174390    2.520252
  17 C     6.0000    0    12.011    0.000000    4.636649    0.998641
  18 C     6.0000    0    12.011    0.000000   -4.636649    0.998641
  19 H     1.0000    0     1.008   -4.089008    4.846480    1.373461
  20 H     1.0000    0     1.008   -4.089008   -4.846480    1.373461
  21 H     1.0000    0     1.008    4.089008   -4.846480    1.373461
  22 H     1.0000    0     1.008    4.089008    4.846480    1.373461
  23 H     1.0000    0     1.008   -2.487360    3.927165    4.160434
  24 H     1.0000    0     1.008   -2.487360   -3.927165    4.160434
  25 H     1.0000    0     1.008    2.487360   -3.927165    4.160434
  26 H     1.0000    0     1.008    2.487360    3.927165    4.160434
  27 H     1.0000    0     1.008   -2.423045    7.138091    3.164639
  28 H     1.0000    0     1.008   -2.423045   -7.138091    3.164639
  29 H     1.0000    0     1.008    2.423045   -7.138091    3.164639
  30 H     1.0000    0     1.008    2.423045    7.138091    3.164639
  31 H     1.0000    0     1.008    0.000000    5.844859   -0.675301
  32 H     1.0000    0     1.008    0.000000   -5.844859   -0.675301

--------------------------------
INTERNAL COORDINATES (ANGSTROEM)
--------------------------------
 C      0   0   0     0.000000000000     0.00000000     0.00000000
 C      1   0   0     1.362028000000     0.00000000     0.00000000
 C      1   2   0     2.302877174988    72.79909673     0.00000000
 N      3   1   2     1.360958452138    34.13308840   180.00000085
 N      3   1   2     1.360958452138    68.53489493     0.00000000
 C      1   2   3     1.493597332572   130.10479777   180.00000000
 C      2   1   3     1.493597332572   130.10479777   180.00000000
 H      6   1   2     1.095326100725   112.16537965   119.49271536
 H      7   2   1     1.095326100725   112.16537965   240.50728464
 H      7   2   1     1.095326100725   112.16537965   119.49271536
 H      6   1   2     1.095326100725   112.16537965   240.50728464
 H      6   1   2     1.091046321228   110.23070561     0.00000000
 H      7   2   1     1.091046321228   110.23070561     0.00000000
 C      4   3   1     2.471662697212   101.60480128   148.32264804
 C      5   3   1     2.471662697212   101.60480128   211.67735196
 C      5   3   1     2.471662697212   101.60480128   148.32264804
 C      4   3   1     2.471662697212   101.60480128   211.67735196
 C      4   3   1     1.475736110438   121.82014526   180.00000000
 C      5   3   1     1.475736110438   121.82014526   180.00000000
 H     14   4   3     1.093039375981    91.18920370   257.09339863
 H     15   5   3     1.093039375981    91.18920370   102.90660137
 H     16   5   3     1.093039375981    91.18920370   257.09339863
 H     17   4   3     1.093039375981    91.18920370   102.90660137
 H     14   4   3     1.091304537725    91.65422395     5.32244204
 H     15   5   3     1.091304537725    91.65422395   354.67755796
 H     16   5   3     1.091304537725    91.65422395     5.32244204
 H     17   4   3     1.091304537725    91.65422395   354.67755796
 H     14   4   3     1.093717756721   144.38006261   132.24227871
 H     15   5   3     1.093717756721   144.38006261   227.75772129
 H     16   5   3     1.093717756721   144.38006261   132.24227871
 H     17   4   3     1.093717756721   144.38006261   227.75772129
 H     18   4   3     1.092446919897   106.30696475   180.00000000
 H     19   5   3     1.092446919897   106.30696475   180.00000000

---------------------------
INTERNAL COORDINATES (A.U.)
---------------------------
 C      0   0   0     0.000000000000     0.00000000     0.00000000
 C      1   0   0     2.573859906732     0.00000000     0.00000000
 C      1   2   0     4.351807180785    72.79909673     0.00000000
 N      3   1   2     2.571838754186    34.13308840   180.00000085
 N      3   1   2     2.571838754186    68.53489493     0.00000000
 C      1   2   3     2.822489912916   130.10479777   180.00000000
 C      2   1   3     2.822489912916   130.10479777   180.00000000
 H      6   1   2     2.069866357707   112.16537965   119.49271536
 H      7   2   1     2.069866357707   112.16537965   240.50728464
 H      7   2   1     2.069866357707   112.16537965   119.49271536
 H      6   1   2     2.069866357707   112.16537965   240.50728464
 H      6   1   2     2.061778746543   110.23070561     0.00000000
 H      7   2   1     2.061778746543   110.23070561     0.00000000
 C      4   3   1     4.670765593159   101.60480128   148.32264804
 C      5   3   1     4.670765593159   101.60480128   211.67735196
 C      5   3   1     4.670765593159   101.60480128   148.32264804
 C      4   3   1     4.670765593159   101.60480128   211.67735196
 C      4   3   1     2.788737094666   121.82014526   180.00000000
 C      5   3   1     2.788737094666   121.82014526   180.00000000
 H     14   4   3     2.065545074196    91.18920370   257.09339863
 H     15   5   3     2.065545074196    91.18920370   102.90660137
 H     16   5   3     2.065545074196    91.18920370   257.09339863
 H     17   4   3     2.065545074196    91.18920370   102.90660137
 H     14   4   3     2.062266705006    91.65422395     5.32244204
 H     15   5   3     2.062266705006    91.65422395   354.67755796
 H     16   5   3     2.062266705006    91.65422395     5.32244204
 H     17   4   3     2.062266705006    91.65422395   354.67755796
 H     14   4   3     2.066827028009   144.38006261   132.24227871
 H     15   5   3     2.066827028009   144.38006261   227.75772129
 H     16   5   3     2.066827028009   144.38006261   132.24227871
 H     17   4   3     2.066827028009   144.38006261   227.75772129
 H     18   4   3     2.064425494452   106.30696475   180.00000000
 H     19   5   3     2.064425494452   106.30696475   180.00000000

---------------------
BASIS SET INFORMATION
---------------------
There are 3 groups of distinct atoms

 Group   1 Type C   : 7s4p1d contracted to 3s2p1d pattern {511/31/1}
 Group   2 Type N   : 7s4p1d contracted to 3s2p1d pattern {511/31/1}
 Group   3 Type H   : 4s1p contracted to 2s1p pattern {31/1}

Atom   0C    basis set group =>   1
Atom   1C    basis set group =>   1
Atom   2C    basis set group =>   1
Atom   3N    basis set group =>   2
Atom   4N    basis set group =>   2
Atom   5C    basis set group =>   1
Atom   6C    basis set group =>   1
Atom   7H    basis set group =>   3
Atom   8H    basis set group =>   3
Atom   9H    basis set group =>   3
Atom  10H    basis set group =>   3
Atom  11H    basis set group =>   3
Atom  12H    basis set group =>   3
Atom  13C    basis set group =>   1
Atom  14C    basis set group =>   1
Atom  15C    basis set group =>   1
Atom  16C    basis set group =>   1
Atom  17C    basis set group =>   1
Atom  18C    basis set group =>   1
Atom  19H    basis set group =>   3
Atom  20H    basis set group =>   3
Atom  21H    basis set group =>   3
Atom  22H    basis set group =>   3
Atom  23H    basis set group =>   3
Atom  24H    basis set group =>   3
Atom  25H    basis set group =>   3
Atom  26H    basis set group =>   3
Atom  27H    basis set group =>   3
Atom  28H    basis set group =>   3
Atom  29H    basis set group =>   3
Atom  30H    basis set group =>   3
Atom  31H    basis set group =>   3
Atom  32H    basis set group =>   3
---------------------------------
AUXILIARY/J BASIS SET INFORMATION
---------------------------------
There are 3 groups of distinct atoms

 Group   1 Type C   : 12s5p4d2f1g contracted to 6s4p3d1f1g pattern {711111/2111/211/2/1}
 Group   2 Type N   : 12s5p4d2f1g contracted to 6s4p3d1f1g pattern {711111/2111/211/2/1}
 Group   3 Type H   : 5s2p1d contracted to 3s1p1d pattern {311/2/1}

Atom   0C    basis set group =>   1
Atom   1C    basis set group =>   1
Atom   2C    basis set group =>   1
Atom   3N    basis set group =>   2
Atom   4N    basis set group =>   2
Atom   5C    basis set group =>   1
Atom   6C    basis set group =>   1
Atom   7H    basis set group =>   3
Atom   8H    basis set group =>   3
Atom   9H    basis set group =>   3
Atom  10H    basis set group =>   3
Atom  11H    basis set group =>   3
Atom  12H    basis set group =>   3
Atom  13C    basis set group =>   1
Atom  14C    basis set group =>   1
Atom  15C    basis set group =>   1
Atom  16C    basis set group =>   1
Atom  17C    basis set group =>   1
Atom  18C    basis set group =>   1
Atom  19H    basis set group =>   3
Atom  20H    basis set group =>   3
Atom  21H    basis set group =>   3
Atom  22H    basis set group =>   3
Atom  23H    basis set group =>   3
Atom  24H    basis set group =>   3
Atom  25H    basis set group =>   3
Atom  26H    basis set group =>   3
Atom  27H    basis set group =>   3
Atom  28H    basis set group =>   3
Atom  29H    basis set group =>   3
Atom  30H    basis set group =>   3
Atom  31H    basis set group =>   3
Atom  32H    basis set group =>   3


           ************************************************************
           *        Program running with 4 parallel MPI-processes     *
           *              working on a common directory               *
           ************************************************************
------------------------------------------------------------------------------
                           ORCA GTO INTEGRAL CALCULATION
                           -- RI-GTO INTEGRALS CHOSEN --
------------------------------------------------------------------------------
------------------------------------------------------------------------------
                   ___                                                        
                  /   \      - P O W E R E D   B Y -                         
                 /     \                                                     
                 |  |  |   _    _      __       _____    __    __             
                 |  |  |  | |  | |    /  \     |  _  \  |  |  /  |          
                  \  \/   | |  | |   /    \    | | | |  |  | /  /          
                 / \  \   | |__| |  /  /\  \   | |_| |  |  |/  /          
                |  |  |   |  __  | /  /__\  \  |    /   |      \           
                |  |  |   | |  | | |   __   |  |    \   |  |\   \          
                \     /   | |  | | |  |  |  |  | |\  \  |  | \   \       
                 \___/    |_|  |_| |__|  |__|  |_| \__\ |__|  \__/        
                                                                              
                      - O R C A' S   B I G   F R I E N D -                    
                                      &                                       
                       - I N T E G R A L  F E E D E R -                       
                                                                              
 v1 FN, 2020, v2 2021                                                         
------------------------------------------------------------------------------


Reading SHARK input file iPrMe_Water.SHARKINP.tmp ... ok
----------------------
SHARK INTEGRAL PACKAGE
----------------------

Number of atoms                             ...     33
Number of basis functions                   ...    282
Number of shells                            ...    138
Maximum angular momentum                    ...      2
Integral batch strategy                     ... SHARK/LIBINT Hybrid
RI-J (if used) integral strategy            ... SPLIT-RIJ (Revised 2003 algorithm where possible)
Printlevel                                  ...      1
Contraction scheme used                     ... SEGMENTED contraction
Coulomb Range Separation                    ... NOT USED
Exchange Range Separation                   ... Long Range
   Mu parameter                             ...  0.300000
   Scaling (regular/separated)              ...  0.157706  0.842294
Finite Nucleus Model                        ... NOT USED
Auxiliary Coulomb fitting basis             ... AVAILABLE
   # of basis functions in Aux-J            ...    857
   # of shells in Aux-J                     ...    295
   Maximum angular momentum in Aux-J        ...      4
Auxiliary J/K fitting basis                 ... NOT available
Auxiliary Correlation fitting basis         ... NOT available
Auxiliary 'external' fitting basis          ... NOT available
Integral threshold                          ...     2.500000e-11
Primitive cut-off                           ...     2.500000e-12
Primitive pair pre-selection threshold      ...     2.500000e-12

Calculating pre-screening integrals         ... done (  0.0 sec) Dimension = 138
Organizing shell pair data                  ... done (  0.1 sec)
Shell pair information
Total number of shell pairs                 ...      9591
Shell pairs after pre-screening             ...      8211
Total number of primitive shell pairs       ...     33125
Primitive shell pairs kept                  ...     19582
          la=0 lb=0:   2804 shell pairs
          la=1 lb=0:   3102 shell pairs
          la=1 lb=1:    882 shell pairs
          la=2 lb=0:    867 shell pairs
          la=2 lb=1:    480 shell pairs
          la=2 lb=2:     76 shell pairs

Calculating one electron integrals          ... done (  0.0 sec)
Calculating RI/J V-Matrix + Cholesky decomp.... done (  0.0 sec)
Calculating Nuclear repulsion               ... done (  0.0 sec) ENN=    850.521114859548 Eh

SHARK setup successfully completed in   0.7 seconds

Maximum memory used throughout the entire GTOINT-calculation: 16.4 MB


           ************************************************************
           *        Program running with 4 parallel MPI-processes     *
           *              working on a common directory               *
           ************************************************************
-------------------------------------------------------------------------------
                                 ORCA SCF
-------------------------------------------------------------------------------

------------
SCF SETTINGS
------------
Hamiltonian:
 Density Functional     Method          .... DFT(GTOs)
 Exchange Functional    Exchange        .... WB97X
 Correlation Functional Correlation     .... WB97X
 Gradients option       PostSCFGGA      .... off
 Hybrid DFT is turned on
   Fraction HF Exchange ScalHFX         ....  0.157706
   Scaling of DF-GGA-X  ScalDFX         ....  0.000000
   Scaling of DF-GGA-C  ScalDFC         ....  1.000000
   Scaling of DF-LDA-C  ScalLDAC        ....  1.000000
   Perturbative correction              ....  0.000000
   Density functional embedding theory  .... OFF
 Long-range corrected/Screened/Range-Separated Hybrid DFT is turned on
   Amount of maximum screened exact exchange              ....  0.842294
   Range separation parameter mu (erf(mu*r12)/r12)        ....  0.300000
 RI-approximation to the Coulomb term is turned on
   Number of AuxJ basis functions       .... 857
   RIJ-COSX (HFX calculated with COS-X)).... on


General Settings:
 Integral files         IntName         .... iPrMe_Water
 Hartree-Fock type      HFTyp           .... RHF
 Total Charge           Charge          ....    0
 Multiplicity           Mult            ....    1
 Number of Electrons    NEL             ....  100
 Basis Dimension        Dim             ....  282
 Nuclear Repulsion      ENuc            ....    850.5211148595 Eh

Convergence Acceleration:
 DIIS                   CNVDIIS         .... on
   Start iteration      DIISMaxIt       ....     0
   Startup error        DIISStart       ....  0.200000
   # of expansion vecs  DIISMaxEq       ....     5
   Bias factor          DIISBfac        ....   1.050
   Max. coefficient     DIISMaxC        ....  10.000
 Trust-Rad. Augm. Hess. CNVTRAH         .... auto
   Auto Start mean grad. ratio tolernc. ....  1.125000
   Auto Start start iteration           ....    20
   Auto Start num. interpolation iter.  ....    10
   Max. Number of Micro iterations      ....    16
   Max. Number of Macro iterations      .... Maxiter - #DIIS iter
   Number of Davidson start vectors     ....     2
   Converg. threshold I  (grad. norm)   ....   1.000e-05
   Converg. threshold II (energy diff.) ....   1.000e-08
   Grad. Scal. Fac. for Micro threshold ....   0.100
   Minimum threshold for Micro iter.    ....   0.010
   NR start threshold (gradient norm)   ....   0.001
   Initial trust radius                 ....   0.400
   Minimum AH scaling param. (alpha)    ....   1.000
   Maximum AH scaling param. (alpha)    .... 1000.000
   Orbital update algorithm             .... Taylor
   White noise on init. David. guess    .... on
   Maximum white noise                  ....   0.010
   Quad. conv. algorithm                .... NR
 SOSCF                  CNVSOSCF        .... on
   Start iteration      SOSCFMaxIt      ....   150
   Startup grad/error   SOSCFStart      ....  0.001000
 Level Shifting         CNVShift        .... on
   Level shift para.    LevelShift      ....    0.2500
   Turn off err/grad.   ShiftErr        ....    0.0000
 Zerner damping         CNVZerner       .... off
 Static damping         CNVDamp         .... on
   Fraction old density DampFac         ....    0.8500
   Max. Damping (<1)    DampMax         ....    0.9800
   Min. Damping (>=0)   DampMin         ....    0.0000
   Turn off err/grad.   DampErr         ....    0.0300
 Fernandez-Rico         CNVRico         .... off

SCF Procedure:
 Maximum # iterations   MaxIter         ....   125
 SCF integral mode      SCFMode         .... Direct
   Integral package                     .... SHARK and LIBINT hybrid scheme
 Reset frequency        DirectResetFreq ....    20
 Integral Threshold     Thresh          ....  2.500e-11 Eh
 Primitive CutOff       TCut            ....  2.500e-12 Eh

Convergence Tolerance:
 Convergence Check Mode ConvCheckMode   .... Total+1el-Energy
 Convergence forced     ConvForced      .... 0
 Energy Change          TolE            ....  1.000e-08 Eh
 1-El. energy change                    ....  1.000e-05 Eh
 Orbital Gradient       TolG            ....  1.000e-05
 Orbital Rotation angle TolX            ....  1.000e-05
 DIIS Error             TolErr          ....  5.000e-07


Diagonalization of the overlap matrix:
Smallest eigenvalue                        ... 9.053e-04
Time for diagonalization                   ...    0.012 sec
Threshold for overlap eigenvalues          ... 1.000e-08
Number of eigenvalues below threshold      ... 0
Time for construction of square roots      ...    0.007 sec
Total time needed                          ...    0.020 sec

Time for model grid setup =    0.257 sec

------------------------------
INITIAL GUESS: MODEL POTENTIAL
------------------------------
Loading Hartree-Fock densities                     ... done
Calculating cut-offs                               ... done
Initializing the effective Hamiltonian             ... done
Setting up the integral package (SHARK)            ... done
Starting the Coulomb interaction                   ... done (   0.2 sec)
Reading the grid                                   ... done
Mapping shells                                     ... done
Starting the XC term evaluation                    ... done (   0.2 sec)
  promolecular density results
     # of electrons  =     99.993147323
     EX              =    -75.268546566
     EC              =     -3.301155828
     EX+EC           =    -78.569702394
Transforming the Hamiltonian                       ... done (   0.0 sec)
Diagonalizing the Hamiltonian                      ... done (   0.0 sec)
Back transforming the eigenvectors                 ... done (   0.0 sec)
Now organizing SCF variables                       ... done
                      ------------------
                      INITIAL GUESS DONE (   0.7 sec)
                      ------------------
-------------------
DFT GRID GENERATION
-------------------

General Integration Accuracy     IntAcc      ... 4.388
Radial Grid Type                 RadialGrid  ... OptM3 with GC (2021)
Angular Grid (max. ang.)         AngularGrid ... 4 (Lebedev-302)
Angular grid pruning method      GridPruning ... 4 (adaptive)
Weight generation scheme         WeightScheme... Becke
Basis function cutoff            BFCut       ... 1.0000e-11
Integration weight cutoff        WCut        ... 1.0000e-14
Angular grids for H and He will be reduced by one unit
Partially contracted basis set               ... off
Rotationally invariant grid construction     ... off

Total number of grid points                  ...   141337
Total number of batches                      ...     2225
Average number of points per batch           ...       63
Average number of grid points per atom       ...     4283
Time for grid setup =    1.064 sec

--------------------
COSX GRID GENERATION
--------------------

GRIDX 1
-------
General Integration Accuracy     IntAcc      ... 3.816
Radial Grid Type                 RadialGrid  ... OptM3 with GC (2021)
Angular Grid (max. ang.)         AngularGrid ... 1 (Lebedev-50)
Angular grid pruning method      GridPruning ... 4 (adaptive)
Weight generation scheme         WeightScheme... Becke
Basis function cutoff            BFCut       ... 1.0000e-11
Integration weight cutoff        WCut        ... 1.0000e-14
Angular grids for H and He will be reduced by one unit
Partially contracted basis set               ... on
Rotationally invariant grid construction     ... off

Total number of grid points                  ...    18073
Total number of batches                      ...      303
Average number of points per batch           ...       59
Average number of grid points per atom       ...      548
UseSFitting                                  ... on

GRIDX 2
-------
General Integration Accuracy     IntAcc      ... 4.020
Radial Grid Type                 RadialGrid  ... OptM3 with GC (2021)
Angular Grid (max. ang.)         AngularGrid ... 2 (Lebedev-110)
Angular grid pruning method      GridPruning ... 4 (adaptive)
Weight generation scheme         WeightScheme... Becke
Basis function cutoff            BFCut       ... 1.0000e-11
Integration weight cutoff        WCut        ... 1.0000e-14
Angular grids for H and He will be reduced by one unit
Partially contracted basis set               ... on
Rotationally invariant grid construction     ... off

Total number of grid points                  ...    37643
Total number of batches                      ...      610
Average number of points per batch           ...       61
Average number of grid points per atom       ...     1141
UseSFitting                                  ... on

GRIDX 3
-------
General Integration Accuracy     IntAcc      ... 4.338
Radial Grid Type                 RadialGrid  ... OptM3 with GC (2021)
Angular Grid (max. ang.)         AngularGrid ... 3 (Lebedev-194)
Angular grid pruning method      GridPruning ... 4 (adaptive)
Weight generation scheme         WeightScheme... Becke
Basis function cutoff            BFCut       ... 1.0000e-11
Integration weight cutoff        WCut        ... 1.0000e-14
Angular grids for H and He will be reduced by one unit
Partially contracted basis set               ... on
Rotationally invariant grid construction     ... off

Total number of grid points                  ...    81829
Total number of batches                      ...     1295
Average number of points per batch           ...       63
Average number of grid points per atom       ...     2480
UseSFitting                                  ... on

Time for X-Grid setup             =    1.230 sec


--------------------
CPCM SOLVATION MODEL
--------------------
CPCM parameters:
  Epsilon                                         ...      80.4000
  Refrac                                          ...       1.3300
  Rsolv                                           ...       1.3000
  Surface type                                    ... GAUSSIAN VDW
  Epsilon function type                           ...         CPCM
Radii:
 Radius for C  used is    3.8550 Bohr (=   2.0400 Ang.)
 Radius for N  used is    3.5149 Bohr (=   1.8600 Ang.)
 Radius for H  used is    2.4944 Bohr (=   1.3200 Ang.)
Calculating surface                               ...        done! (  0.0s)
GEPOL surface points                              ...         1743
GEPOL Volume                                      ...    1712.9851
GEPOL Surface-area                                ...     932.4168
Calculating surface distance matrix               ...        done! (  0.0s)
Performing Cholesky decomposition & store         ...        done! (  0.1s)
Overall time for CPCM initialization              ...                 0.1s
--------------
SCF ITERATIONS
--------------
ITER       Energy         Delta-E        Max-DP      RMS-DP      [F,P]     Damp
               ***  Starting incremental Fock matrix formation  ***
  0   -539.8735735462   0.000000000000 0.03394163  0.00067379  0.1534643 0.8500
  1   -539.9385065454  -0.064932999188 0.03528399  0.00063638  0.1236483 0.8500
                               ***Turning on DIIS***
  2   -539.9882285439  -0.049721998535 0.03047972  0.00052126  0.0949225 0.8500
  3   -540.0253260328  -0.037097488918 0.02407175  0.00037102  0.0723135 0.8500
  4   -540.0539693967  -0.028643363864 0.01949703  0.00028296  0.0579594 0.8500
  5   -540.0765282263  -0.022558829650 0.01625945  0.00023133  0.0479895 0.8500
  6   -540.0948395810  -0.018311354630 0.01374505  0.00019484  0.0403451 0.8500
  7   -540.1099678775  -0.015128296500 0.01174870  0.00016759  0.0341457 0.8500
  8   -540.1226000639  -0.012632186409 0.06715614  0.00096192  0.0288945 0.0000
  9   -540.1903899751  -0.067789911234 0.00151719  0.00003658  0.0012253 0.0000
                      *** Initiating the SOSCF procedure ***
                           *** Shutting down DIIS ***
                      *** Re-Reading the Fockian *** 
                      *** Removing any level shift *** 
ITER      Energy       Delta-E        Grad      Rot      Max-DP    RMS-DP
 10   -540.19041766  -0.0000276814  0.000377  0.000377  0.000633  0.000018
               *** Restarting incremental Fock matrix formation ***
 11   -540.19046010  -0.0000424410  0.000244  0.000569  0.000363  0.000013
 12   -540.19046116  -0.0000010642  0.000096  0.000462  0.000278  0.000009
 13   -540.19046137  -0.0000002107  0.000034  0.000031  0.000136  0.000003
 14   -540.19046143  -0.0000000560  0.000008  0.000009  0.000058  0.000001
 15   -540.19046144  -0.0000000119  0.000004  0.000015  0.000015  0.000000
                  ***Gradient check signals convergence***
              ***Rediagonalizing the Fockian in SOSCF/NRSCF***

               *****************************************************
               *                     SUCCESS                       *
               *           SCF CONVERGED AFTER  16 CYCLES          *
               *****************************************************

Old exchange energy                            =    -25.319660251 Eh
New exchange energy                            =    -25.319670142 Eh
Exchange energy change after final integration =     -0.000009891 Eh
Total energy after final integration           =   -540.190471332 Eh
Final COS-X integration done in                =    22.637 sec

----------------
TOTAL SCF ENERGY
----------------

Total Energy       :         -540.19047133 Eh          -14699.33002 eV

Components:
Nuclear Repulsion  :          850.52111486 Eh           23143.85615 eV
Electronic Energy  :        -1390.71158619 Eh          -37843.18617 eV
One Electron Energy:        -2416.64369175 Eh          -65760.21804 eV
Two Electron Energy:         1025.93210556 Eh           27917.03187 eV
Max COSX asymmetry :            0.00000203 Eh               0.00006 eV
CPCM Dielectric    :           -0.01461364 Eh              -0.39766 eV

Virial components:
Potential Energy   :        -1073.73541660 Eh          -29217.82609 eV
Kinetic Energy     :          533.54494526 Eh           14518.49607 eV
Virial Ratio       :            2.01245542


DFT components:
N(Alpha)           :       50.000159529780 electrons
N(Beta)            :       50.000159529780 electrons
N(Total)           :      100.000319059561 electrons
E(XC)              :      -55.476069573546 Eh       
DFET-embed. en.    :        0.000000000000 Eh       
CPCM Solvation Model Properties:
Surface-charge          :           -0.02895192
Charge-correction       :           -0.00051594 Eh              -0.01404 eV
Free-energy (cav+disp)  :  This term is not implemented in the current solvation scheme

---------------
SCF CONVERGENCE
---------------

  Last Energy change         ...   -8.2355e-10  Tolerance :   1.0000e-08
  Last MAX-Density change    ...    3.5527e-15  Tolerance :   1.0000e-07
  Last RMS-Density change    ...    4.3065e-17  Tolerance :   5.0000e-09
  Last Orbital Gradient      ...    8.5531e-07  Tolerance :   1.0000e-05
  Last Orbital Rotation      ...    3.6486e-06  Tolerance :   1.0000e-05

             **** THE GBW FILE WAS UPDATED (iPrMe_Water.gbw) ****
             **** DENSITY iPrMe_Water.scfp WAS UPDATED ****
             **** ENERGY FILE WAS UPDATED (iPrMe_Water.en.tmp) ****
             **** THE GBW FILE WAS UPDATED (iPrMe_Water.gbw) ****
             **** DENSITY iPrMe_Water.scfp WAS UPDATED ****
----------------
ORBITAL ENERGIES
----------------

  NO   OCC          E(Eh)            E(eV) 
   0   2.0000     -14.438527      -392.8923 
   1   2.0000     -14.438526      -392.8923 
   2   2.0000     -10.306486      -280.4538 
   3   2.0000     -10.306455      -280.4529 
   4   2.0000     -10.292186      -280.0646 
   5   2.0000     -10.291675      -280.0507 
   6   2.0000     -10.271225      -279.4942 
   7   2.0000     -10.271165      -279.4926 
   8   2.0000     -10.269870      -279.4574 
   9   2.0000     -10.256840      -279.1028 
  10   2.0000     -10.256836      -279.1027 
  11   2.0000     -10.256836      -279.1027 
  12   2.0000     -10.256823      -279.1024 
  13   2.0000      -1.135859       -30.9083 
  14   2.0000      -1.030900       -28.0522 
  15   2.0000      -0.933823       -25.4106 
  16   2.0000      -0.898361       -24.4457 
  17   2.0000      -0.885447       -24.0942 
  18   2.0000      -0.839065       -22.8321 
  19   2.0000      -0.805491       -21.9185 
  20   2.0000      -0.804918       -21.9029 
  21   2.0000      -0.785185       -21.3660 
  22   2.0000      -0.763685       -20.7809 
  23   2.0000      -0.696679       -18.9576 
  24   2.0000      -0.678799       -18.4711 
  25   2.0000      -0.644289       -17.5320 
  26   2.0000      -0.618006       -16.8168 
  27   2.0000      -0.579755       -15.7759 
  28   2.0000      -0.556102       -15.1323 
  29   2.0000      -0.554257       -15.0821 
  30   2.0000      -0.550106       -14.9691 
  31   2.0000      -0.534142       -14.5347 
  32   2.0000      -0.534020       -14.5314 
  33   2.0000      -0.519650       -14.1404 
  34   2.0000      -0.509608       -13.8671 
  35   2.0000      -0.508806       -13.8453 
  36   2.0000      -0.507214       -13.8020 
  37   2.0000      -0.494242       -13.4490 
  38   2.0000      -0.489095       -13.3090 
  39   2.0000      -0.486635       -13.2420 
  40   2.0000      -0.472936       -12.8692 
  41   2.0000      -0.466545       -12.6953 
  42   2.0000      -0.459900       -12.5145 
  43   2.0000      -0.453008       -12.3270 
  44   2.0000      -0.441223       -12.0063 
  45   2.0000      -0.439547       -11.9607 
  46   2.0000      -0.431946       -11.7538 
  47   2.0000      -0.359221        -9.7749 
  48   2.0000      -0.316515        -8.6128 
  49   2.0000      -0.302059        -8.2194 
  50   0.0000       0.125758         3.4221 
  51   0.0000       0.137482         3.7411 
  52   0.0000       0.140225         3.8157 
  53   0.0000       0.152777         4.1573 
  54   0.0000       0.169152         4.6029 
  55   0.0000       0.185961         5.0603 
  56   0.0000       0.192885         5.2487 
  57   0.0000       0.197607         5.3772 
  58   0.0000       0.202607         5.5132 
  59   0.0000       0.208118         5.6632 
  60   0.0000       0.216734         5.8976 
  61   0.0000       0.229203         6.2369 
  62   0.0000       0.234616         6.3842 
  63   0.0000       0.237095         6.4517 
  64   0.0000       0.238376         6.4865 
  65   0.0000       0.247950         6.7471 
  66   0.0000       0.249053         6.7771 
  67   0.0000       0.260660         7.0929 
  68   0.0000       0.270677         7.3655 
  69   0.0000       0.274953         7.4819 
  70   0.0000       0.277248         7.5443 
  71   0.0000       0.280162         7.6236 
  72   0.0000       0.289116         7.8672 
  73   0.0000       0.289500         7.8777 
  74   0.0000       0.292690         7.9645 
  75   0.0000       0.316041         8.5999 
  76   0.0000       0.326585         8.8868 
  77   0.0000       0.351337         9.5604 
  78   0.0000       0.353336         9.6148 
  79   0.0000       0.359386         9.7794 
  80   0.0000       0.369132        10.0446 
  81   0.0000       0.383809        10.4440 
  82   0.0000       0.392382        10.6773 
  83   0.0000       0.459628        12.5071 
  84   0.0000       0.479724        13.0540 
  85   0.0000       0.491176        13.3656 
  86   0.0000       0.503688        13.7060 
  87   0.0000       0.505720        13.7614 
  88   0.0000       0.506983        13.7957 
  89   0.0000       0.518161        14.0999 
  90   0.0000       0.530099        14.4247 
  91   0.0000       0.540115        14.6973 
  92   0.0000       0.563336        15.3291 
  93   0.0000       0.574194        15.6246 
  94   0.0000       0.575978        15.6732 
  95   0.0000       0.582112        15.8401 
  96   0.0000       0.622376        16.9357 
  97   0.0000       0.636603        17.3229 
  98   0.0000       0.640562        17.4306 
  99   0.0000       0.660005        17.9597 
 100   0.0000       0.672469        18.2988 
 101   0.0000       0.675718        18.3872 
 102   0.0000       0.693907        18.8822 
 103   0.0000       0.697256        18.9733 
 104   0.0000       0.705663        19.2021 
 105   0.0000       0.708758        19.2863 
 106   0.0000       0.715087        19.4585 
 107   0.0000       0.722310        19.6550 
 108   0.0000       0.736304        20.0358 
 109   0.0000       0.742123        20.1942 
 110   0.0000       0.752653        20.4807 
 111   0.0000       0.753755        20.5107 
 112   0.0000       0.758607        20.6427 
 113   0.0000       0.770856        20.9760 
 114   0.0000       0.771885        21.0040 
 115   0.0000       0.774425        21.0732 
 116   0.0000       0.781249        21.2589 
 117   0.0000       0.788318        21.4512 
 118   0.0000       0.794197        21.6112 
 119   0.0000       0.797374        21.6976 
 120   0.0000       0.801344        21.8057 
 121   0.0000       0.802046        21.8248 
 122   0.0000       0.804524        21.8922 
 123   0.0000       0.806618        21.9492 
 124   0.0000       0.812116        22.0988 
 125   0.0000       0.815666        22.1954 
 126   0.0000       0.816628        22.2216 
 127   0.0000       0.818912        22.2837 
 128   0.0000       0.825342        22.4587 
 129   0.0000       0.833341        22.6764 
 130   0.0000       0.835107        22.7244 
 131   0.0000       0.839536        22.8449 
 132   0.0000       0.846577        23.0365 
 133   0.0000       0.870867        23.6975 
 134   0.0000       0.873205        23.7611 
 135   0.0000       0.880266        23.9533 
 136   0.0000       0.884525        24.0692 
 137   0.0000       0.899508        24.4768 
 138   0.0000       0.901161        24.5218 
 139   0.0000       0.972008        26.4497 
 140   0.0000       0.980238        26.6736 
 141   0.0000       1.047269        28.4976 
 142   0.0000       1.049642        28.5622 
 143   0.0000       1.059409        28.8280 
 144   0.0000       1.092416        29.7261 
 145   0.0000       1.162283        31.6273 
 146   0.0000       1.163846        31.6699 
 147   0.0000       1.187957        32.3260 
 148   0.0000       1.193403        32.4741 
 149   0.0000       1.200174        32.6584 
 150   0.0000       1.215283        33.0695 
 151   0.0000       1.221708        33.2444 
 152   0.0000       1.250053        34.0157 
 153   0.0000       1.275820        34.7168 
 154   0.0000       1.280106        34.8335 
 155   0.0000       1.280459        34.8430 
 156   0.0000       1.340656        36.4811 
 157   0.0000       1.352471        36.8026 
 158   0.0000       1.415958        38.5302 
 159   0.0000       1.416585        38.5472 
 160   0.0000       1.417179        38.5634 
 161   0.0000       1.449046        39.4306 
 162   0.0000       1.503899        40.9232 
 163   0.0000       1.528807        41.6010 
 164   0.0000       1.546374        42.0790 
 165   0.0000       1.548286        42.1310 
 166   0.0000       1.578167        42.9441 
 167   0.0000       1.644416        44.7468 
 168   0.0000       1.646532        44.8044 
 169   0.0000       1.649842        44.8945 
 170   0.0000       1.656859        45.0854 
 171   0.0000       1.657283        45.0970 
 172   0.0000       1.659126        45.1471 
 173   0.0000       1.661295        45.2061 
 174   0.0000       1.664134        45.2834 
 175   0.0000       1.673225        45.5308 
 176   0.0000       1.674587        45.5678 
 177   0.0000       1.677785        45.6549 
 178   0.0000       1.684752        45.8444 
 179   0.0000       1.789215        48.6870 
 180   0.0000       1.808577        49.2139 
 181   0.0000       1.833019        49.8790 
 182   0.0000       1.835954        49.9588 
 183   0.0000       1.837303        49.9956 
 184   0.0000       1.844348        50.1873 
 185   0.0000       1.860170        50.6178 
 186   0.0000       1.882404        51.2228 
 187   0.0000       1.886770        51.3416 
 188   0.0000       1.894164        51.5428 
 189   0.0000       1.897710        51.6393 
 190   0.0000       1.899626        51.6915 
 191   0.0000       1.903434        51.7951 
 192   0.0000       1.921273        52.2805 
 193   0.0000       1.923005        52.3276 
 194   0.0000       1.925907        52.4066 
 195   0.0000       1.936148        52.6853 
 196   0.0000       1.938227        52.7418 
 197   0.0000       1.949004        53.0351 
 198   0.0000       1.952233        53.1229 
 199   0.0000       1.957568        53.2681 
 200   0.0000       1.973559        53.7033 
 201   0.0000       1.985128        54.0181 
 202   0.0000       2.002377        54.4875 
 203   0.0000       2.004874        54.5554 
 204   0.0000       2.005725        54.5785 
 205   0.0000       2.010897        54.7193 
 206   0.0000       2.011665        54.7402 
 207   0.0000       2.012709        54.7686 
 208   0.0000       2.048338        55.7381 
 209   0.0000       2.071799        56.3765 
 210   0.0000       2.081225        56.6330 
 211   0.0000       2.086387        56.7735 
 212   0.0000       2.102176        57.2031 
 213   0.0000       2.108406        57.3726 
 214   0.0000       2.126377        57.8616 
 215   0.0000       2.135571        58.1118 
 216   0.0000       2.160995        58.8037 
 217   0.0000       2.164299        58.8936 
 218   0.0000       2.177904        59.2638 
 219   0.0000       2.237882        60.8959 
 220   0.0000       2.252464        61.2927 
 221   0.0000       2.265313        61.6423 
 222   0.0000       2.282363        62.1063 
 223   0.0000       2.282741        62.1165 
 224   0.0000       2.300333        62.5952 
 225   0.0000       2.336643        63.5833 
 226   0.0000       2.347157        63.8694 
 227   0.0000       2.359721        64.2113 
 228   0.0000       2.375657        64.6449 
 229   0.0000       2.378513        64.7226 
 230   0.0000       2.389885        65.0321 
 231   0.0000       2.447460        66.5988 
 232   0.0000       2.467264        67.1377 
 233   0.0000       2.504729        68.1571 
 234   0.0000       2.507966        68.2452 
 235   0.0000       2.517000        68.4910 
 236   0.0000       2.520994        68.5997 
 237   0.0000       2.539170        69.0943 
 238   0.0000       2.548188        69.3397 
 239   0.0000       2.553011        69.4710 
 240   0.0000       2.576905        70.1211 
 241   0.0000       2.608066        70.9691 
 242   0.0000       2.608283        70.9750 
 243   0.0000       2.619387        71.2771 
 244   0.0000       2.636120        71.7325 
 245   0.0000       2.667884        72.5968 
 246   0.0000       2.686944        73.1155 
 247   0.0000       2.701736        73.5180 
 248   0.0000       2.710855        73.7661 
 249   0.0000       2.723399        74.1075 
 250   0.0000       2.727003        74.2055 
 251   0.0000       2.760868        75.1270 
 252   0.0000       2.822778        76.8117 
 253   0.0000       2.825011        76.8725 
 254   0.0000       2.830437        77.0201 
 255   0.0000       2.835780        77.1655 
 256   0.0000       2.843208        77.3676 
 257   0.0000       2.865125        77.9640 
 258   0.0000       2.904474        79.0348 
 259   0.0000       2.972570        80.8877 
 260   0.0000       2.981207        81.1228 
 261   0.0000       2.992192        81.4217 
 262   0.0000       2.996178        81.5302 
 263   0.0000       3.015960        82.0684 
 264   0.0000       3.018833        82.1466 
 265   0.0000       3.034281        82.5670 
 266   0.0000       3.041713        82.7692 
 267   0.0000       3.043466        82.8169 
 268   0.0000       3.077493        83.7428 
 269   0.0000       3.090450        84.0954 
 270   0.0000       3.108112        84.5760 
 271   0.0000       3.110990        84.6543 
 272   0.0000       3.133090        85.2557 
 273   0.0000       3.148702        85.6805 
 274   0.0000       3.150981        85.7426 
 275   0.0000       3.155690        85.8707 
 276   0.0000       3.173599        86.3580 
 277   0.0000       3.218151        87.5703 
 278   0.0000       3.321181        90.3739 
 279   0.0000       3.438162        93.5571 
 280   0.0000       3.455582        94.0312 
 281   0.0000       3.540848        96.3514 

                    ********************************
                    * MULLIKEN POPULATION ANALYSIS *
                    ********************************

-----------------------
MULLIKEN ATOMIC CHARGES
-----------------------
   0 C :   -0.117753
   1 C :   -0.117756
   2 C :   -0.183983
   3 N :   -0.236306
   4 N :   -0.236304
   5 C :    0.078775
   6 C :    0.078776
   7 H :    0.053772
   8 H :    0.053772
   9 H :    0.053772
  10 H :    0.053772
  11 H :    0.033244
  12 H :    0.033243
  13 C :    0.007238
  14 C :    0.007237
  15 C :    0.007237
  16 C :    0.007239
  17 C :    0.001479
  18 C :    0.001483
  19 H :    0.031158
  20 H :    0.031159
  21 H :    0.031159
  22 H :    0.031158
  23 H :    0.021045
  24 H :    0.021045
  25 H :    0.021045
  26 H :    0.021045
  27 H :    0.036903
  28 H :    0.036903
  29 H :    0.036903
  30 H :    0.036903
  31 H :    0.032320
  32 H :    0.032320
Sum of atomic charges:    0.0000000

--------------------------------
MULLIKEN REDUCED ORBITAL CHARGES
--------------------------------
  0 C s       :     3.104618  s :     3.104618
      pz      :     0.880673  p :     2.956978
      px      :     1.088025
      py      :     0.988281
      dz2     :     0.017704  d :     0.056157
      dxz     :     0.009251
      dyz     :     0.013381
      dx2y2   :     0.005608
      dxy     :     0.010212
  1 C s       :     3.104616  s :     3.104616
      pz      :     0.880676  p :     2.956984
      px      :     1.088026
      py      :     0.988281
      dz2     :     0.017704  d :     0.056157
      dxz     :     0.009251
      dyz     :     0.013381
      dx2y2   :     0.005608
      dxy     :     0.010212
  2 C s       :     3.599865  s :     3.599865
      pz      :     1.154873  p :     2.519507
      px      :     0.708148
      py      :     0.656486
      dz2     :     0.008259  d :     0.064611
      dxz     :     0.009501
      dyz     :     0.027661
      dx2y2   :     0.007152
      dxy     :     0.012038
  3 N s       :     3.409032  s :     3.409032
      pz      :     1.116618  p :     3.796543
      px      :     1.520784
      py      :     1.159141
      dz2     :     0.008083  d :     0.030731
      dxz     :     0.005475
      dyz     :     0.008589
      dx2y2   :     0.005010
      dxy     :     0.003573
  4 N s       :     3.409032  s :     3.409032
      pz      :     1.116617  p :     3.796541
      px      :     1.520783
      py      :     1.159141
      dz2     :     0.008083  d :     0.030731
      dxz     :     0.005475
      dyz     :     0.008589
      dx2y2   :     0.005010
      dxy     :     0.003573
  5 C s       :     2.893301  s :     2.893301
      pz      :     0.975292  p :     3.000546
      px      :     1.030851
      py      :     0.994403
      dz2     :     0.006322  d :     0.027379
      dxz     :     0.001947
      dyz     :     0.007731
      dx2y2   :     0.002279
      dxy     :     0.009100
  6 C s       :     2.893302  s :     2.893302
      pz      :     0.975290  p :     3.000544
      px      :     1.030850
      py      :     0.994404
      dz2     :     0.006322  d :     0.027379
      dxz     :     0.001947
      dyz     :     0.007731
      dx2y2   :     0.002279
      dxy     :     0.009100
  7 H s       :     0.921838  s :     0.921838
      pz      :     0.004272  p :     0.024390
      px      :     0.011800
      py      :     0.008318
  8 H s       :     0.921838  s :     0.921838
      pz      :     0.004272  p :     0.024390
      px      :     0.011800
      py      :     0.008318
  9 H s       :     0.921838  s :     0.921838
      pz      :     0.004272  p :     0.024390
      px      :     0.011800
      py      :     0.008318
 10 H s       :     0.921838  s :     0.921838
      pz      :     0.004272  p :     0.024390
      px      :     0.011800
      py      :     0.008318
 11 H s       :     0.941828  s :     0.941828
      pz      :     0.012659  p :     0.024928
      px      :     0.005048
      py      :     0.007221
 12 H s       :     0.941829  s :     0.941829
      pz      :     0.012659  p :     0.024928
      px      :     0.005048
      py      :     0.007221
 13 C s       :     2.993141  s :     2.993141
      pz      :     1.006289  p :     2.973123
      px      :     0.962648
      py      :     1.004186
      dz2     :     0.003497  d :     0.026498
      dxz     :     0.007333
      dyz     :     0.005962
      dx2y2   :     0.008063
      dxy     :     0.001644
 14 C s       :     2.993141  s :     2.993141
      pz      :     1.006289  p :     2.973124
      px      :     0.962648
      py      :     1.004187
      dz2     :     0.003497  d :     0.026498
      dxz     :     0.007333
      dyz     :     0.005962
      dx2y2   :     0.008063
      dxy     :     0.001644
 15 C s       :     2.993142  s :     2.993142
      pz      :     1.006289  p :     2.973123
      px      :     0.962648
      py      :     1.004186
      dz2     :     0.003497  d :     0.026498
      dxz     :     0.007333
      dyz     :     0.005962
      dx2y2   :     0.008063
      dxy     :     0.001644
 16 C s       :     2.993141  s :     2.993141
      pz      :     1.006289  p :     2.973122
      px      :     0.962648
      py      :     1.004186
      dz2     :     0.003497  d :     0.026498
      dxz     :     0.007333
      dyz     :     0.005962
      dx2y2   :     0.008063
      dxy     :     0.001644
 17 C s       :     3.081586  s :     3.081586
      pz      :     1.016315  p :     2.861331
      px      :     1.027141
      py      :     0.817875
      dz2     :     0.007769  d :     0.055604
      dxz     :     0.010286
      dyz     :     0.012482
      dx2y2   :     0.015617
      dxy     :     0.009450
 18 C s       :     3.081585  s :     3.081585
      pz      :     1.016316  p :     2.861328
      px      :     1.027139
      py      :     0.817873
      dz2     :     0.007769  d :     0.055604
      dxz     :     0.010286
      dyz     :     0.012482
      dx2y2   :     0.015617
      dxy     :     0.009450
 19 H s       :     0.944955  s :     0.944955
      pz      :     0.007704  p :     0.023887
      px      :     0.011014
      py      :     0.005168
 20 H s       :     0.944955  s :     0.944955
      pz      :     0.007704  p :     0.023887
      px      :     0.011014
      py      :     0.005168
 21 H s       :     0.944955  s :     0.944955
      pz      :     0.007704  p :     0.023887
      px      :     0.011014
      py      :     0.005168
 22 H s       :     0.944955  s :     0.944955
      pz      :     0.007704  p :     0.023887
      px      :     0.011014
      py      :     0.005168
 23 H s       :     0.954615  s :     0.954615
      pz      :     0.011126  p :     0.024340
      px      :     0.004124
      py      :     0.009090
 24 H s       :     0.954615  s :     0.954615
      pz      :     0.011126  p :     0.024340
      px      :     0.004124
      py      :     0.009090
 25 H s       :     0.954615  s :     0.954615
      pz      :     0.011126  p :     0.024340
      px      :     0.004124
      py      :     0.009090
 26 H s       :     0.954615  s :     0.954615
      pz      :     0.011126  p :     0.024340
      px      :     0.004124
      py      :     0.009090
 27 H s       :     0.939065  s :     0.939065
      pz      :     0.005717  p :     0.024031
      px      :     0.004097
      py      :     0.014217
 28 H s       :     0.939066  s :     0.939066
      pz      :     0.005717  p :     0.024032
      px      :     0.004097
      py      :     0.014217
 29 H s       :     0.939066  s :     0.939066
      pz      :     0.005717  p :     0.024032
      px      :     0.004097
      py      :     0.014217
 30 H s       :     0.939066  s :     0.939066
      pz      :     0.005717  p :     0.024032
      px      :     0.004097
      py      :     0.014217
 31 H s       :     0.946390  s :     0.946390
      pz      :     0.010974  p :     0.021290
      px      :     0.003557
      py      :     0.006759
 32 H s       :     0.946390  s :     0.946390
      pz      :     0.010974  p :     0.021290
      px      :     0.003557
      py      :     0.006759


                     *******************************
                     * LOEWDIN POPULATION ANALYSIS *
                     *******************************

----------------------
LOEWDIN ATOMIC CHARGES
----------------------
   0 C :   -0.046731
   1 C :   -0.046731
   2 C :   -0.302074
   3 N :    0.023905
   4 N :    0.023905
   5 C :   -0.058934
   6 C :   -0.058934
   7 H :    0.040505
   8 H :    0.040505
   9 H :    0.040505
  10 H :    0.040505
  11 H :    0.042278
  12 H :    0.042278
  13 C :   -0.057242
  14 C :   -0.057242
  15 C :   -0.057242
  16 C :   -0.057242
  17 C :    0.036441
  18 C :    0.036441
  19 H :    0.027329
  20 H :    0.027329
  21 H :    0.027329
  22 H :    0.027329
  23 H :    0.021316
  24 H :    0.021316
  25 H :    0.021316
  26 H :    0.021316
  27 H :    0.030969
  28 H :    0.030969
  29 H :    0.030969
  30 H :    0.030969
  31 H :    0.028325
  32 H :    0.028325

-------------------------------
LOEWDIN REDUCED ORBITAL CHARGES
-------------------------------
  0 C s       :     2.846356  s :     2.846356
      pz      :     0.941261  p :     3.064776
      px      :     1.067218
      py      :     1.056298
      dz2     :     0.045623  d :     0.135599
      dxz     :     0.018395
      dyz     :     0.036204
      dx2y2   :     0.015586
      dxy     :     0.019790
  1 C s       :     2.846356  s :     2.846356
      pz      :     0.941261  p :     3.064776
      px      :     1.067218
      py      :     1.056298
      dz2     :     0.045623  d :     0.135599
      dxz     :     0.018395
      dyz     :     0.036204
      dx2y2   :     0.015586
      dxy     :     0.019790
  2 C s       :     3.195529  s :     3.195529
      pz      :     1.380296  p :     2.966752
      px      :     0.755953
      py      :     0.830503
      dz2     :     0.013884  d :     0.139793
      dxz     :     0.013526
      dyz     :     0.064814
      dx2y2   :     0.021679
      dxy     :     0.025889
  3 N s       :     3.071098  s :     3.071098
      pz      :     1.189907  p :     3.832423
      px      :     1.447483
      py      :     1.195033
      dz2     :     0.021140  d :     0.072575
      dxz     :     0.010537
      dyz     :     0.023835
      dx2y2   :     0.010664
      dxy     :     0.006400
  4 N s       :     3.071098  s :     3.071098
      pz      :     1.189907  p :     3.832422
      px      :     1.447482
[...]
     42      -0.003004   0.000286  -0.000133
     43      -0.040842   0.002329  -0.000960
     44      -0.020303   0.001448  -0.000709
     45       0.003003  -0.000286   0.000133
     46      -0.040842   0.002329  -0.000961
     47      -0.020301   0.001448  -0.000709
     48       0.003002   0.000286   0.000133
     49       0.040828   0.002329   0.000961
     50      -0.020294  -0.001449  -0.000709
     51      -0.000000  -0.000000  -0.000000
     52       0.008021   0.001575   0.000903
     53      -0.011039  -0.002217  -0.001339
     54      -0.000000  -0.000000   0.000000
     55      -0.008023   0.001575  -0.000902
     56      -0.011042   0.002217  -0.001338
     57       0.044007   0.004076   0.002014
     58       0.014222   0.001140   0.000535
     59       0.027520   0.002566   0.001268
     60       0.044025  -0.004075   0.002013
     61      -0.014228   0.001139  -0.000535
     62       0.027532  -0.002566   0.001268
     63      -0.044016   0.004075  -0.002014
     64      -0.014225   0.001140  -0.000535
     65       0.027525  -0.002566   0.001268
     66      -0.044002  -0.004076  -0.002014
     67       0.014221   0.001140   0.000535
     68       0.027517   0.002566   0.001269
     69      -0.015277  -0.001231  -0.000642
     70      -0.204045  -0.013416  -0.006330
     71       0.304519   0.020072   0.009458
     72      -0.015283   0.001230  -0.000642
     73       0.204115  -0.013414   0.006329
     74       0.304624  -0.020069   0.009456
     75       0.015282  -0.001230   0.000642
     76       0.204106  -0.013414   0.006329
     77       0.304612  -0.020070   0.009457
     78       0.015277   0.001231   0.000643
     79      -0.204037  -0.013416  -0.006330
     80       0.304508   0.020072   0.009458
     81       0.003493   0.000216   0.000055
     82      -0.302008  -0.016033  -0.005969
     83      -0.086118  -0.004600  -0.001702
     84       0.003494  -0.000216   0.000055
     85       0.302106  -0.016031   0.005968
     86      -0.086146   0.004599  -0.001701
     87      -0.003493   0.000216  -0.000055
     88       0.302105  -0.016031   0.005968
     89      -0.086145   0.004599  -0.001701
     90      -0.003491  -0.000216  -0.000055
     91      -0.302002  -0.016033  -0.005969
     92      -0.086116  -0.004600  -0.001702
     93       0.000000   0.000000   0.000000
     94      -0.084073  -0.017940  -0.010922
     95       0.125130   0.025422   0.015074
     96      -0.000000   0.000000  -0.000000
     97       0.084101  -0.017938   0.010920
     98       0.125171  -0.025418   0.015070


-----------
IR SPECTRUM
-----------

 Mode   freq       eps      Int      T**2         TX        TY        TZ
       cm**-1   L/(mol*cm) km/mol    a.u.
----------------------------------------------------------------------------
  6:     32.99   0.000795    4.02  0.007516  ( 0.086697 -0.000000 -0.000000)
  7:     44.26   0.000000    0.00  0.000000  ( 0.000004 -0.000000  0.000000)
  8:     86.00   0.001038    5.25  0.003767  ( 0.061373 -0.000000 -0.000000)
  9:    113.13   0.000000    0.00  0.000000  ( 0.000000 -0.000000 -0.000000)
 10:    158.47   0.000378    1.91  0.000744  (-0.000000  0.000000 -0.027278)
 11:    212.73   0.000054    0.27  0.000080  ( 0.008918  0.000000 -0.000000)
 12:    214.33   0.000000    0.00  0.000000  ( 0.000002 -0.000000  0.000000)
 13:    226.94   0.000000    0.00  0.000000  (-0.000000  0.000002  0.000000)
 14:    233.41   0.000924    4.67  0.001235  (-0.000000  0.035141  0.000000)
 15:    261.48   0.000007    0.04  0.000009  (-0.002938 -0.000000 -0.000000)
 16:    264.06   0.000000    0.00  0.000000  ( 0.000000 -0.000000  0.000000)
 17:    278.64   0.000114    0.57  0.000127  (-0.011275 -0.000000 -0.000000)
 18:    280.07   0.000147    0.74  0.000163  (-0.000000  0.012777  0.000000)
 19:    283.60   0.000055    0.28  0.000060  ( 0.000001  0.000000 -0.007765)
 20:    287.18   0.000062    0.31  0.000067  (-0.000000  0.000000  0.008189)
 21:    325.03   0.000196    0.99  0.000188  (-0.000000  0.000032 -0.013704)
 22:    325.23   0.000515    2.60  0.000495  ( 0.000000 -0.022240 -0.000020)
 23:    405.12   0.004206   21.25  0.003240  (-0.056918  0.000000  0.000000)
 24:    424.05   0.000151    0.76  0.000111  (-0.000000 -0.010525  0.000000)
 25:    481.14   0.000094    0.47  0.000061  ( 0.000000  0.000000 -0.007800)
 26:    495.30   0.000000    0.00  0.000000  ( 0.000000 -0.000000  0.000000)
 27:    552.36   0.000610    3.08  0.000344  ( 0.000000 -0.018558 -0.000000)
 28:    617.99   0.001202    6.07  0.000607  (-0.000000  0.000000  0.024633)
 29:    637.51   0.000056    0.28  0.000028  ( 0.000000  0.005253 -0.000000)
 30:    686.03   0.000035    0.17  0.000016  (-0.003962  0.000000 -0.000000)
 31:    698.73   0.000000    0.00  0.000000  (-0.000000  0.000000 -0.000000)
 32:    748.31   0.001571    7.94  0.000655  (-0.000000  0.000000 -0.025599)
 33:    812.15   0.000590    2.98  0.000227  ( 0.000000  0.015055  0.000000)
 34:    914.89   0.000096    0.49  0.000033  (-0.000000  0.000000 -0.005730)
 35:    932.65   0.001599    8.08  0.000535  (-0.000000 -0.023133 -0.000000)
 36:    933.91   0.000000    0.00  0.000000  (-0.000001 -0.000001  0.000000)
 37:    934.16   0.001145    5.79  0.000383  ( 0.019561 -0.000001  0.000000)
 38:    963.09   0.000000    0.00  0.000000  ( 0.000000  0.000000 -0.000000)
 39:    963.78   0.000139    0.70  0.000045  ( 0.006718  0.000000 -0.000000)
 40:    970.91   0.000578    2.92  0.000186  ( 0.000000  0.000000  0.013634)
 41:   1047.36   0.000956    4.83  0.000285  (-0.016877 -0.000000 -0.000000)
 42:   1068.76   0.000000    0.00  0.000000  ( 0.000000 -0.000000  0.000000)
 43:   1071.21   0.002235   11.29  0.000651  ( 0.000000  0.025515 -0.000000)
 44:   1094.27   0.001358    6.86  0.000387  (-0.000000  0.000000 -0.019680)
 45:   1144.24   0.018065   91.29  0.004927  (-0.000000  0.070191  0.000000)
 46:   1148.91   0.001697    8.57  0.000461  (-0.000000  0.000001 -0.021468)
 47:   1174.32   0.000000    0.00  0.000000  ( 0.000002 -0.000000 -0.000000)
 48:   1174.49   0.003418   17.27  0.000908  ( 0.030135  0.000000 -0.000000)
 49:   1189.42   0.000055    0.28  0.000014  ( 0.000000  0.003790 -0.000000)
 50:   1219.93   0.000280    1.42  0.000072  (-0.000000 -0.000000  0.008464)
 51:   1228.62   0.002516   12.72  0.000639  ( 0.000000  0.025280  0.000000)
 52:   1349.66   0.001533    7.75  0.000354  (-0.000000  0.000000 -0.018826)
 53:   1350.51   0.000000    0.00  0.000000  (-0.000271 -0.000000  0.000002)
 54:   1350.52   0.000000    0.00  0.000000  ( 0.000005 -0.000000  0.000000)
 55:   1367.02   0.004392   22.20  0.001003  ( 0.000000  0.031664 -0.000000)
 56:   1394.27   0.000140    0.71  0.000031  (-0.000000 -0.005590 -0.000001)
 57:   1395.26   0.001288    6.51  0.000288  (-0.000000  0.000000 -0.016971)
 58:   1401.13   0.000000    0.00  0.000000  (-0.000063 -0.000000 -0.000001)
 59:   1401.26   0.008234   41.61  0.001834  (-0.042821  0.000000  0.000000)
 60:   1401.75   0.001302    6.58  0.000290  ( 0.000000  0.000000 -0.017025)
 61:   1415.15   0.025008  126.38  0.005515  ( 0.000000  0.074261 -0.000000)
 62:   1436.93   0.013407   67.76  0.002912  ( 0.000000  0.053960 -0.000041)
 63:   1437.03   0.011978   60.53  0.002601  ( 0.000000  0.000043  0.051002)
 64:   1443.39   0.005806   29.34  0.001255  (-0.035429  0.000000  0.000000)
 65:   1444.92   0.000000    0.00  0.000000  (-0.000002  0.000001  0.000000)
 66:   1447.03   0.000010    0.05  0.000002  (-0.001492  0.000000 -0.000000)
 67:   1447.20   0.000000    0.00  0.000000  (-0.000000 -0.000000  0.000000)
 68:   1453.56   0.000496    2.51  0.000106  (-0.000000 -0.010317  0.000002)
 69:   1454.41   0.007701   38.92  0.001652  (-0.000000 -0.000001 -0.040650)
 70:   1456.33   0.000000    0.00  0.000000  ( 0.000001 -0.000000  0.000000)
 71:   1456.40   0.000089    0.45  0.000019  (-0.004356 -0.000000 -0.000002)
 72:   1462.95   0.000764    3.86  0.000163  (-0.000000 -0.000000  0.012770)
 73:   1466.03   0.000042    0.21  0.000009  (-0.000000  0.002991  0.000000)
 74:   1470.23   0.000460    2.32  0.000098  (-0.000000 -0.000001 -0.009881)
 75:   1475.38   0.008240   41.64  0.001743  (-0.000000 -0.041749  0.000000)
 76:   1488.72   0.000795    4.02  0.000167  (-0.000000 -0.012912  0.000000)
 77:   1495.53   0.003123   15.78  0.000652  (-0.000000 -0.000001 -0.025528)
 78:   1753.64   0.000487    2.46  0.000087  ( 0.000000 -0.000000  0.009308)
 79:   3062.20   0.010138   51.23  0.001033  ( 0.000000  0.032143  0.000001)
 80:   3064.35   0.003761   19.01  0.000383  ( 0.000000  0.000002 -0.019571)
 81:   3064.96   0.012138   61.34  0.001236  ( 0.035154  0.000000  0.000000)
 82:   3064.97   0.000000    0.00  0.000000  (-0.000123 -0.000000  0.000000)
 83:   3067.74   0.001437    7.26  0.000146  ( 0.000000 -0.012090 -0.000013)
 84:   3067.81   0.003227   16.31  0.000328  ( 0.000000  0.000009 -0.018117)
 85:   3132.88   0.002774   14.02  0.000276  (-0.000000  0.016624  0.000010)
 86:   3133.07   0.001924    9.72  0.000192  ( 0.000000  0.000012 -0.013842)
 87:   3148.84   0.005313   26.85  0.000527  ( 0.022946 -0.000000  0.000000)
 88:   3149.04   0.000000    0.00  0.000000  ( 0.000017 -0.000000 -0.000000)
 89:   3168.90   0.007285   36.82  0.000717  ( 0.026784 -0.000001  0.000001)
 90:   3168.92   0.000000    0.00  0.000000  ( 0.000047 -0.000001  0.000002)
 91:   3170.16   0.003565   18.01  0.000351  ( 0.000001  0.018732  0.000086)
 92:   3170.18   0.011259   56.90  0.001108  (-0.000001 -0.000048  0.033292)
 93:   3173.20   0.000160    0.81  0.000016  (-0.003969  0.000000 -0.000000)
 94:   3173.23   0.000000    0.00  0.000000  (-0.000011  0.000001 -0.000000)
 95:   3177.13   0.018230   92.13  0.001791  ( 0.000000  0.042315 -0.000003)
 96:   3177.43   0.003830   19.35  0.000376  (-0.000000 -0.000007 -0.019394)
 97:   3182.86   0.003724   18.82  0.000365  ( 0.000000  0.019107 -0.000000)
 98:   3187.41   0.002360   11.93  0.000231  ( 0.000000  0.000000  0.015200)

* The epsilon (eps) is given for a Dirac delta lineshape.
** The dipole moment derivative (T) already includes vibrational overlap.

The first frequency considered to be a vibration is 6
The total number of vibrations considered is 93


--------------------------
THERMOCHEMISTRY AT 298.15K
--------------------------

Temperature         ... 298.15 K
Pressure            ... 1.00 atm
Total Mass          ... 180.29 AMU

Throughout the following assumptions are being made:
  (1) The electronic state is orbitally nondegenerate
  (2) There are no thermally accessible electronically excited states
  (3) Hindered rotations indicated by low frequency modes are not
      treated as such but are treated as vibrations and this may
      cause some error
  (4) All equations used are the standard statistical mechanics
      equations for an ideal gas
  (5) All vibrations are strictly harmonic

freq.      32.99  E(vib)   ...       0.55 
freq.      44.26  E(vib)   ...       0.53 
freq.      86.00  E(vib)   ...       0.48 
freq.     113.13  E(vib)   ...       0.45 
freq.     158.47  E(vib)   ...       0.39 
freq.     212.73  E(vib)   ...       0.34 
freq.     214.33  E(vib)   ...       0.34 
freq.     226.94  E(vib)   ...       0.33 
freq.     233.41  E(vib)   ...       0.32 
freq.     261.48  E(vib)   ...       0.30 
freq.     264.06  E(vib)   ...       0.29 
freq.     278.64  E(vib)   ...       0.28 
freq.     280.07  E(vib)   ...       0.28 
freq.     283.60  E(vib)   ...       0.28 
freq.     287.18  E(vib)   ...       0.27 
freq.     325.03  E(vib)   ...       0.24 
freq.     325.23  E(vib)   ...       0.24 
freq.     405.12  E(vib)   ...       0.19 
freq.     424.05  E(vib)   ...       0.18 
freq.     481.14  E(vib)   ...       0.15 
freq.     495.30  E(vib)   ...       0.14 
freq.     552.36  E(vib)   ...       0.12 
freq.     617.99  E(vib)   ...       0.09 
freq.     637.51  E(vib)   ...       0.09 
freq.     686.03  E(vib)   ...       0.07 
freq.     698.73  E(vib)   ...       0.07 
freq.     748.31  E(vib)   ...       0.06 
freq.     812.15  E(vib)   ...       0.05 
freq.     914.89  E(vib)   ...       0.03 
freq.     932.65  E(vib)   ...       0.03 
freq.     933.91  E(vib)   ...       0.03 
freq.     934.16  E(vib)   ...       0.03 
freq.     963.09  E(vib)   ...       0.03 
freq.     963.78  E(vib)   ...       0.03 
freq.     970.91  E(vib)   ...       0.03 
freq.    1047.36  E(vib)   ...       0.02 
freq.    1068.76  E(vib)   ...       0.02 
freq.    1071.21  E(vib)   ...       0.02 
freq.    1094.27  E(vib)   ...       0.02 
freq.    1144.24  E(vib)   ...       0.01 
freq.    1148.91  E(vib)   ...       0.01 
freq.    1174.32  E(vib)   ...       0.01 
freq.    1174.49  E(vib)   ...       0.01 
freq.    1189.42  E(vib)   ...       0.01 
freq.    1219.93  E(vib)   ...       0.01 
freq.    1228.62  E(vib)   ...       0.01 
freq.    1349.66  E(vib)   ...       0.01 
freq.    1350.51  E(vib)   ...       0.01 
freq.    1350.52  E(vib)   ...       0.01 
freq.    1367.02  E(vib)   ...       0.01 
freq.    1394.27  E(vib)   ...       0.00 
freq.    1395.26  E(vib)   ...       0.00 
freq.    1401.13  E(vib)   ...       0.00 
freq.    1401.26  E(vib)   ...       0.00 
freq.    1401.75  E(vib)   ...       0.00 
freq.    1415.15  E(vib)   ...       0.00 
freq.    1436.93  E(vib)   ...       0.00 
freq.    1437.03  E(vib)   ...       0.00 
freq.    1443.39  E(vib)   ...       0.00 
freq.    1444.92  E(vib)   ...       0.00 
freq.    1447.03  E(vib)   ...       0.00 
freq.    1447.20  E(vib)   ...       0.00 
freq.    1453.56  E(vib)   ...       0.00 
freq.    1454.41  E(vib)   ...       0.00 
freq.    1456.33  E(vib)   ...       0.00 
freq.    1456.40  E(vib)   ...       0.00 
freq.    1462.95  E(vib)   ...       0.00 
freq.    1466.03  E(vib)   ...       0.00 
freq.    1470.23  E(vib)   ...       0.00 
freq.    1475.38  E(vib)   ...       0.00 
freq.    1488.72  E(vib)   ...       0.00 
freq.    1495.53  E(vib)   ...       0.00 
freq.    1753.64  E(vib)   ...       0.00 
freq.    3062.20  E(vib)   ...       0.00 
freq.    3064.35  E(vib)   ...       0.00 
freq.    3064.96  E(vib)   ...       0.00 
freq.    3064.97  E(vib)   ...       0.00 
freq.    3067.74  E(vib)   ...       0.00 
freq.    3067.81  E(vib)   ...       0.00 
freq.    3132.88  E(vib)   ...       0.00 
freq.    3133.07  E(vib)   ...       0.00 
freq.    3148.84  E(vib)   ...       0.00 
freq.    3149.04  E(vib)   ...       0.00 
freq.    3168.90  E(vib)   ...       0.00 
freq.    3168.92  E(vib)   ...       0.00 
freq.    3170.16  E(vib)   ...       0.00 
freq.    3170.18  E(vib)   ...       0.00 
freq.    3173.20  E(vib)   ...       0.00 
freq.    3173.23  E(vib)   ...       0.00 
freq.    3177.13  E(vib)   ...       0.00 
freq.    3177.43  E(vib)   ...       0.00 
freq.    3182.86  E(vib)   ...       0.00 
freq.    3187.41  E(vib)   ...       0.00 

------------
INNER ENERGY
------------

The inner energy is: U= E(el) + E(ZPE) + E(vib) + E(rot) + E(trans)
    E(el)   - is the total energy from the electronic structure calculation
              = E(kin-el) + E(nuc-el) + E(el-el) + E(nuc-nuc)
    E(ZPE)  - the the zero temperature vibrational energy from the frequency calculation
    E(vib)  - the the finite temperature correction to E(ZPE) due to population
              of excited vibrational states
    E(rot)  - is the rotational thermal energy
    E(trans)- is the translational thermal energy

Summary of contributions to the inner energy U:
Electronic energy                ...   -540.19767213 Eh
Zero point energy                ...      0.29840046 Eh     187.25 kcal/mol
Thermal vibrational correction   ...      0.01208742 Eh       7.58 kcal/mol
Thermal rotational correction    ...      0.00141627 Eh       0.89 kcal/mol
Thermal translational correction ...      0.00141627 Eh       0.89 kcal/mol
-----------------------------------------------------------------------
Total thermal energy                   -539.88435170 Eh


Summary of corrections to the electronic energy:
(perhaps to be used in another calculation)
Total thermal correction                  0.01491996 Eh       9.36 kcal/mol
Non-thermal (ZPE) correction              0.29840046 Eh     187.25 kcal/mol
-----------------------------------------------------------------------
Total correction                          0.31332043 Eh     196.61 kcal/mol


--------
ENTHALPY
--------

The enthalpy is H = U + kB*T
                kB is Boltzmann's constant
Total free energy                 ...   -539.88435170 Eh 
Thermal Enthalpy correction       ...      0.00094421 Eh       0.59 kcal/mol
-----------------------------------------------------------------------
Total Enthalpy                    ...   -539.88340749 Eh


Note: Rotational entropy computed according to Herzberg 
Infrared and Raman Spectra, Chapter V,1, Van Nostrand Reinhold, 1945 
Point Group:  C2v, Symmetry Number:   2  
Rotational constants in cm-1:     0.035701     0.019180     0.014980 

Vibrational entropy computed according to the QRRHO of S. Grimme
Chem.Eur.J. 2012 18 9955


-------
ENTROPY
-------

The entropy contributions are T*S = T*(S(el)+S(vib)+S(rot)+S(trans))
     S(el)   - electronic entropy
     S(vib)  - vibrational entropy
     S(rot)  - rotational entropy
     S(trans)- translational entropy
The entropies will be listed as multiplied by the temperature to get
units of energy

Electronic entropy                ...      0.00000000 Eh      0.00 kcal/mol
Vibrational entropy               ...      0.02080371 Eh     13.05 kcal/mol
Rotational entropy                ...      0.01427948 Eh      8.96 kcal/mol
Translational entropy             ...      0.01970603 Eh     12.37 kcal/mol
-----------------------------------------------------------------------
Final entropy term                ...      0.05478922 Eh     34.38 kcal/mol

In case the symmetry of your molecule has not been determined correctly
or in case you have a reason to use a different symmetry number we print 
out the resulting rotational entropy values for sn=1,12 :
 --------------------------------------------------------
|  sn= 1 | S(rot)=       0.01493394 Eh      9.37 kcal/mol|
|  sn= 2 | S(rot)=       0.01427948 Eh      8.96 kcal/mol|
|  sn= 3 | S(rot)=       0.01389665 Eh      8.72 kcal/mol|
|  sn= 4 | S(rot)=       0.01362503 Eh      8.55 kcal/mol|
|  sn= 5 | S(rot)=       0.01341434 Eh      8.42 kcal/mol|
|  sn= 6 | S(rot)=       0.01324220 Eh      8.31 kcal/mol|
|  sn= 7 | S(rot)=       0.01309665 Eh      8.22 kcal/mol|
|  sn= 8 | S(rot)=       0.01297057 Eh      8.14 kcal/mol|
|  sn= 9 | S(rot)=       0.01285936 Eh      8.07 kcal/mol|
|  sn=10 | S(rot)=       0.01275988 Eh      8.01 kcal/mol|
|  sn=11 | S(rot)=       0.01266989 Eh      7.95 kcal/mol|
|  sn=12 | S(rot)=       0.01258774 Eh      7.90 kcal/mol|
 --------------------------------------------------------


-------------------
GIBBS FREE ENERGY
-------------------

The Gibbs free energy is G = H - T*S

Total enthalpy                    ...   -539.88340749 Eh 
Total entropy correction          ...     -0.05478922 Eh    -34.38 kcal/mol
-----------------------------------------------------------------------
Final Gibbs free energy         ...   -539.93819672 Eh

For completeness - the Gibbs free energy minus the electronic energy
G-E(el)                           ...      0.25947541 Eh    162.82 kcal/mol


Timings for individual modules:

Sum of individual times         ...     1355.791 sec (=  22.597 min)
GTO integral calculation        ...        4.629 sec (=   0.077 min)   0.3 %
SCF iterations                  ...      556.673 sec (=   9.278 min)  41.1 %
SCF Gradient evaluation         ...      131.217 sec (=   2.187 min)   9.7 %
Geometry relaxation             ...        0.349 sec (=   0.006 min)   0.0 %
Analytical frequency calculation...      662.923 sec (=  11.049 min)  48.9 %
                             ****ORCA TERMINATED NORMALLY****
TOTAL RUN TIME: 0 days 0 hours 22 minutes 38 seconds 349 msec
