
                                 *****************
                                 * O   R   C   A *
                                 *****************

                                            #,                                       
                                            ###                                      
                                            ####                                     
                                            #####                                    
                                            ######                                   
                                           ########,                                 
                                     ,,################,,,,,                         
                               ,,#################################,,                 
                          ,,##########################################,,             
                       ,#########################################, ''#####,          
                    ,#############################################,,   '####,        
                  ,##################################################,,,,####,       
                ,###########''''           ''''###############################       
              ,#####''   ,,,,##########,,,,          '''####'''          '####       
            ,##' ,,,,###########################,,,                        '##       
           ' ,,###''''                  '''############,,,                           
         ,,##''                                '''############,,,,        ,,,,,,###''
      ,#''                                            '''#######################'''  
     '                                                          ''''####''''         
             ,#######,   #######,   ,#######,      ##                                
            ,#'     '#,  ##    ##  ,#'     '#,    #''#        ######   ,####,        
            ##       ##  ##   ,#'  ##            #'  '#       #        #'  '#        
            ##       ##  #######   ##           ,######,      #####,   #    #        
            '#,     ,#'  ##    ##  '#,     ,#' ,#      #,         ##   #,  ,#        
             '#######'   ##     ##  '#######'  #'      '#     #####' # '####'        



                  #######################################################
                  #                        -***-                        #
                  #          Department of theory and spectroscopy      #
                  #    Directorship and core code : Frank Neese         #
                  #        Max Planck Institute fuer Kohlenforschung    #
                  #                Kaiser Wilhelm Platz 1               #
                  #                 D-45470 Muelheim/Ruhr               #
                  #                      Germany                        #
                  #                                                     #
                  #                  All rights reserved                #
                  #                        -***-                        #
                  #######################################################


                         Program Version 5.0.4 -  RELEASE  -


 With contributions from (in alphabetic order):
   Daniel Aravena         : Magnetic Suceptibility
   Michael Atanasov       : Ab Initio Ligand Field Theory (pilot matlab implementation)
   Alexander A. Auer      : GIAO ZORA, VPT2 properties, NMR spectrum
   Ute Becker             : Parallelization
   Giovanni Bistoni       : ED, misc. LED, open-shell LED, HFLD
   Martin Brehm           : Molecular dynamics
   Dmytro Bykov           : SCF Hessian
   Vijay G. Chilkuri      : MRCI spin determinant printing, contributions to CSF-ICE
   Dipayan Datta          : RHF DLPNO-CCSD density
   Achintya Kumar Dutta   : EOM-CC, STEOM-CC
   Dmitry Ganyushin       : Spin-Orbit,Spin-Spin,Magnetic field MRCI
   Miquel Garcia          : C-PCM and meta-GGA Hessian, CC/C-PCM, Gaussian charge scheme
   Yang Guo               : DLPNO-NEVPT2, F12-NEVPT2, CIM, IAO-localization
   Andreas Hansen         : Spin unrestricted coupled pair/coupled cluster methods
   Benjamin Helmich-Paris : MC-RPA, TRAH-SCF, COSX integrals
   Lee Huntington         : MR-EOM, pCC
   Robert Izsak           : Overlap fitted RIJCOSX, COSX-SCS-MP3, EOM
   Marcus Kettner         : VPT2
   Christian Kollmar      : KDIIS, OOCD, Brueckner-CCSD(T), CCSD density, CASPT2, CASPT2-K
   Simone Kossmann        : Meta GGA functionals, TD-DFT gradient, OOMP2, MP2 Hessian
   Martin Krupicka        : Initial AUTO-CI
   Lucas Lang             : DCDCAS
   Marvin Lechner         : AUTO-CI (C++ implementation), FIC-MRCC
   Dagmar Lenk            : GEPOL surface, SMD
   Dimitrios Liakos       : Extrapolation schemes; Compound Job, initial MDCI parallelization
   Dimitrios Manganas     : Further ROCIS development; embedding schemes
   Dimitrios Pantazis     : SARC Basis sets
   Anastasios Papadopoulos: AUTO-CI, single reference methods and gradients
   Taras Petrenko         : DFT Hessian,TD-DFT gradient, ASA, ECA, R-Raman, ABS, FL, XAS/XES, NRVS
   Peter Pinski           : DLPNO-MP2, DLPNO-MP2 Gradient
   Christoph Reimann      : Effective Core Potentials
   Marius Retegan         : Local ZFS, SOC
   Christoph Riplinger    : Optimizer, TS searches, QM/MM, DLPNO-CCSD(T), (RO)-DLPNO pert. Triples
   Tobias Risthaus        : Range-separated hybrids, TD-DFT gradient, RPA, STAB
   Michael Roemelt        : Original ROCIS implementation
   Masaaki Saitow         : Open-shell DLPNO-CCSD energy and density
   Barbara Sandhoefer     : DKH picture change effects
   Avijit Sen             : IP-ROCIS
   Kantharuban Sivalingam : CASSCF convergence, NEVPT2, FIC-MRCI
   Bernardo de Souza      : ESD, SOC TD-DFT
   Georgi Stoychev        : AutoAux, RI-MP2 NMR, DLPNO-MP2 response
   Willem Van den Heuvel  : Paramagnetic NMR
   Boris Wezisla          : Elementary symmetry handling
   Frank Wennmohs         : Technical directorship


 We gratefully acknowledge several colleagues who have allowed us to
 interface, adapt or use parts of their codes:
   Stefan Grimme, W. Hujo, H. Kruse, P. Pracht,  : VdW corrections, initial TS optimization,
                  C. Bannwarth, S. Ehlert          DFT functionals, gCP, sTDA/sTD-DF
   Ed Valeev, F. Pavosevic, A. Kumar             : LibInt (2-el integral package), F12 methods
   Garnet Chan, S. Sharma, J. Yang, R. Olivares  : DMRG
   Ulf Ekstrom                                   : XCFun DFT Library
   Mihaly Kallay                                 : mrcc  (arbitrary order and MRCC methods)
   Jiri Pittner, Ondrej Demel                    : Mk-CCSD
   Frank Weinhold                                : gennbo (NPA and NBO analysis)
   Christopher J. Cramer and Donald G. Truhlar   : smd solvation model
   Lars Goerigk                                  : TD-DFT with DH, B97 family of functionals
   V. Asgeirsson, H. Jonsson                     : NEB implementation
   FAccTs GmbH                                   : IRC, NEB, NEB-TS, DLPNO-Multilevel, CI-OPT
                                                   MM, QMMM, 2- and 3-layer-ONIOM, Crystal-QMMM,
                                                   LR-CPCM, SF, NACMEs, symmetry and pop. for TD-DFT,
                                                   nearIR, NL-DFT gradient (VV10), updates on ESD,
                                                   ML-optimized integration grids
   S Lehtola, MJT Oliveira, MAL Marques          : LibXC Library
   Liviu Ungur et al                             : ANISO software


 Your calculation uses the libint2 library for the computation of 2-el integrals
 For citations please refer to: http://libint.valeyev.net

 Your ORCA version has been built with support for libXC version: 5.1.0
 For citations please refer to: https://tddft.org/programs/libxc/

 This ORCA versions uses:
   CBLAS   interface :  Fast vector & matrix operations
   LAPACKE interface :  Fast linear algebra routines
   SCALAPACK package :  Parallel linear algebra routines
   Shared memory     :  Shared parallel matrices
   BLAS/LAPACK       :  OpenBLAS 0.3.15  USE64BITINT DYNAMIC_ARCH NO_AFFINITY SkylakeX SINGLE_THREADED
        Core in use  :  SkylakeX
   Copyright (c) 2011-2014, The OpenBLAS Project




***************************************
The coordinates will be read from file: lys_deprot_aq.xyz
***************************************


Your calculation utilizes the atom-pairwise dispersion correction
based on tight binding partial charges (D4)
Cite in your paper:
E.Caldeweyher, C.Bannwarth, S.Grimme, J.Chem.Phys., (2017), 147, 034112.
E.Caldeweyher, S.Ehlert, A.Hansen, H.Neugebauer, S.Grimme, J.Chem.Phys., (2018), in progress.
   

XCFun DFT library Copyright 2009-2010 Ulf Ekstrom and contributors.
See http://admol.org/xcfun for more information.
This is free software; see the source code for copying conditions.
There is ABSOLUTELY NO WARRANTY; not even for MERCHANTABILITY or FITNESS FOR A PARTICULAR PURPOSE.
For details see the documentation.
Scientific users of this library should cite U. Ekstrom, L. Visscher, R. Bast, A. J. Thorvaldsen and K. Ruud;
J.Chem.Theor.Comp. 2010, DOI: 10.1021/ct100117s
XCFun Version 0.99 

================================================================================

----- Orbital basis set information -----
Your calculation utilizes the basis: def2-SVP
   F. Weigend and R. Ahlrichs, Phys. Chem. Chem. Phys. 7, 3297 (2005).

----- AuxJ basis set information -----
Your calculation utilizes the auxiliary basis: def2/J
   F. Weigend, Phys. Chem. Chem. Phys. 8, 1057 (2006).

================================================================================
                                        WARNINGS
                       Please study these warnings very carefully!
================================================================================


WARNING: Geometry Optimization
  ===> : Switching off AutoStart
         For restart on a previous wavefunction, please use MOREAD

INFO   : the flag for use of the SHARK integral package has been found!

================================================================================
                                       INPUT FILE
================================================================================
NAME = lys_deprot_aq.inp
|  1> # ORCA 5.0.4 - /users/bwb16179/postgrad/2024_02/lysine/DFT/lys_deprot_aq.inp # write input file
|  2> # Basic Mode
|  3> #
|  4> ! Opt Freq wB97X Def2-SVP D4 SlowConv TightSCF Defgrid2 Def2/J RIJCOSX CPCM(Water)
|  5> 
|  6> 
|  7> 
|  8> %maxcore 4500
|  9> 
| 10> %geom
| 11> Maxiter 150
| 12> END
| 13> 
| 14> * xyzfile 0 1 lys_deprot_aq.xyz
| 15> 
| 16>                          ****END OF INPUT****
================================================================================

                       *****************************
                       * Geometry Optimization Run *
                       *****************************

Geometry optimization settings:
Update method            Update   .... BFGS
Choice of coordinates    CoordSys .... Z-matrix Internals
Initial Hessian          InHess   .... Almoef's Model

Convergence Tolerances:
Energy Change            TolE     ....  5.0000e-06 Eh
Max. Gradient            TolMAXG  ....  3.0000e-04 Eh/bohr
RMS Gradient             TolRMSG  ....  1.0000e-04 Eh/bohr
Max. Displacement        TolMAXD  ....  4.0000e-03 bohr
RMS Displacement         TolRMSD  ....  2.0000e-03 bohr
Strict Convergence                ....  False
------------------------------------------------------------------------------
                        ORCA OPTIMIZATION COORDINATE SETUP
------------------------------------------------------------------------------

The optimization will be done in new redundant internal coordinates
Making redundant internal coordinates   ...  (new redundants) done
Evaluating the initial hessian          ...  (Almloef) done
Evaluating the coordinates              ...  done
Calculating the B-matrix                .... done
Calculating the G-matrix                .... done
Diagonalizing the G-matrix              .... done
The first mode is                       ....   24
The number of degrees of freedom        ....   33

    -----------------------------------------------------------------
                    Redundant Internal Coordinates


    -----------------------------------------------------------------
         Definition                    Initial Value    Approx d2E/dq
    -----------------------------------------------------------------
      1. B(C   1,C   0)                  1.5255         0.379749   
      2. B(H   2,C   0)                  1.1101         0.334518   
      3. B(H   3,C   0)                  1.1107         0.333708   
      4. B(H   4,C   0)                  1.1105         0.333993   
      5. B(C   5,C   1)                  1.5311         0.372068   
      6. B(H   6,C   1)                  1.1116         0.332688   
      7. B(H   7,C   1)                  1.1119         0.332316   
      8. B(N   8,C   5)                  1.4590         0.434325   
      9. B(H   9,C   5)                  1.1133         0.330559   
     10. B(H  10,C   5)                  1.1120         0.332180   
     11. B(H  11,N   8)                  1.0457         0.379524   
     12. B(H  12,N   8)                  1.0458         0.379391   
     13. A(H   2,C   0,H   4)          108.7251         0.284148   
     14. A(C   1,C   0,H   4)          110.4742         0.321204   
     15. A(H   3,C   0,H   4)          109.1842         0.284041   
     16. A(H   2,C   0,H   3)          108.6059         0.284110   
     17. A(C   1,C   0,H   2)          109.5794         0.321287   
     18. A(C   1,C   0,H   3)          110.2315         0.321159   
     19. A(C   0,C   1,C   5)          111.2704         0.364120   
     20. A(H   6,C   1,H   7)          108.6966         0.283684   
     21. A(C   5,C   1,H   7)          109.4535         0.319870   
     22. A(C   0,C   1,H   7)          109.0464         0.320940   
     23. A(C   5,C   1,H   6)          109.4827         0.319928   
     24. A(C   0,C   1,H   6)          108.8471         0.320999   
     25. A(N   8,C   5,H   9)          109.6773         0.325846   
     26. A(C   1,C   5,H   9)          109.8807         0.319593   
     27. A(C   1,C   5,N   8)          110.3261         0.370276   
     28. A(H   9,C   5,H  10)          108.6358         0.283383   
     29. A(N   8,C   5,H  10)          108.8247         0.326108   
     30. A(C   1,C   5,H  10)          109.4642         0.319848   
     31. A(H  11,N   8,H  12)          107.8395         0.290892   
     32. A(C   5,N   8,H  12)          108.5236         0.330501   
     33. A(C   5,N   8,H  11)          109.4594         0.330520   
     34. D(H   7,C   1,C   0,H   2)    -58.7432         0.011494   
     35. D(C   5,C   1,C   0,H   3)     60.9559         0.011494   
     36. D(H   6,C   1,C   0,H   2)     59.6929         0.011494   
     37. D(H   7,C   1,C   0,H   3)   -178.2147         0.011494   
     38. D(C   5,C   1,C   0,H   2)   -179.5725         0.011494   
     39. D(C   5,C   1,C   0,H   4)    -59.8035         0.011494   
     40. D(H   6,C   1,C   0,H   3)    -59.7786         0.011494   
     41. D(H   7,C   1,C   0,H   4)     61.0258         0.011494   
     42. D(H   6,C   1,C   0,H   4)    179.4619         0.011494   
     43. D(H   9,C   5,C   1,H   6)   -178.7201         0.011059   
     44. D(H   9,C   5,C   1,C   0)     60.9196         0.011059   
     45. D(N   8,C   5,C   1,H   7)     61.3799         0.011059   
     46. D(N   8,C   5,C   1,H   6)    -57.6698         0.011059   
     47. D(H   9,C   5,C   1,H   7)    -59.6704         0.011059   
     48. D(N   8,C   5,C   1,C   0)   -178.0301         0.011059   
     49. D(H  10,C   5,C   1,H   7)   -178.8927         0.011059   
     50. D(H  10,C   5,C   1,H   6)     62.0576         0.011059   
     51. D(H  10,C   5,C   1,C   0)    -58.3027         0.011059   
     52. D(H  12,N   8,C   5,H  10)     60.2002         0.016083   
     53. D(H  12,N   8,C   5,H   9)    -58.5151         0.016083   
     54. D(H  12,N   8,C   5,C   1)   -179.6866         0.016083   
     55. D(H  11,N   8,C   5,H  10)    177.6547         0.016083   
     56. D(H  11,N   8,C   5,H   9)     58.9394         0.016083   
     57. D(H  11,N   8,C   5,C   1)    -62.2321         0.016083   
    -----------------------------------------------------------------

Number of atoms                         .... 13
Number of degrees of freedom            .... 57

         *************************************************************
         *                GEOMETRY OPTIMIZATION CYCLE   1            *
         *************************************************************
---------------------------------
CARTESIAN COORDINATES (ANGSTROEM)
---------------------------------
  C     -1.668650   -1.398180    0.027860
  C     -0.878570   -0.097940    0.139280
  H     -0.990390   -2.261030    0.194250
  H     -2.116850   -1.489760   -0.984280
  H     -2.476810   -1.428060    0.788890
  C     -1.781080    1.120400   -0.073770
  H     -0.072680   -0.100730   -0.626280
  H     -0.412510   -0.041800    1.147180
  N     -0.997230    2.349240   -0.009210
  H     -2.577320    1.142360    0.704020
  H     -2.262890    1.054270   -1.073750
  H     -0.571700    2.441460    0.941530
  H     -1.640270    3.161420   -0.152560

----------------------------
CARTESIAN COORDINATES (A.U.)
----------------------------
  NO LB      ZA    FRAG     MASS         X           Y           Z
   0 C     6.0000    0    12.011   -3.153292   -2.642177    0.052648
   1 C     6.0000    0    12.011   -1.660257   -0.185080    0.263201
   2 H     1.0000    0     1.008   -1.871566   -4.272727    0.367079
   3 H     1.0000    0     1.008   -4.000267   -2.815238   -1.860020
   4 H     1.0000    0     1.008   -4.680493   -2.698642    1.490786
   5 C     6.0000    0    12.011   -3.365753    2.117249   -0.139405
   6 H     1.0000    0     1.008   -0.137345   -0.190352   -1.183498
   7 H     1.0000    0     1.008   -0.779531   -0.078991    2.167856
   8 N     7.0000    0    14.007   -1.884492    4.439420   -0.017404
   9 H     1.0000    0     1.008   -4.870429    2.158748    1.330405
  10 H     1.0000    0     1.008   -4.276242    1.992282   -2.029093
  11 H     1.0000    0     1.008   -1.080356    4.613691    1.779234
  12 H     1.0000    0     1.008   -3.099661    5.974218   -0.288297

--------------------------------
INTERNAL COORDINATES (ANGSTROEM)
--------------------------------
 C      0   0   0     0.000000000000     0.00000000     0.00000000
 C      1   0   0     1.525537570957     0.00000000     0.00000000
 H      1   2   0     1.110059630020   109.57941929     0.00000000
 H      1   2   3     1.110719368698   110.23149227   240.52845870
 H      1   2   3     1.110487307852   110.47419970   119.76903813
 C      2   1   3     1.531099917772   111.27043738   180.42748036
 H      2   1   3     1.111552333361   108.84713833    59.69289301
 H      2   1   3     1.111857020124   109.04638899   301.25679926
 N      6   2   1     1.458984770894   110.32612562   181.96986976
 H      6   2   1     1.113300347301   109.88066156    60.91957639
 H      6   2   1     1.111968548746   109.46421060   301.69727662
 H      9   6   2     1.045699219135   109.45935132   297.76790703
 H      9   6   2     1.045794442756   108.52355541   180.31337578

---------------------------
INTERNAL COORDINATES (A.U.)
---------------------------
 C      0   0   0     0.000000000000     0.00000000     0.00000000
 C      1   0   0     2.882848216115     0.00000000     0.00000000
 H      1   2   0     2.097708693060   109.57941929     0.00000000
 H      1   2   3     2.098955418480   110.23149227   240.52845870
 H      1   2   3     2.098516887035   110.47419970   119.76903813
 C      2   1   3     2.893359528258   111.27043738   180.42748036
 H      2   1   3     2.100529493573   108.84713833    59.69289301
 H      2   1   3     2.101105268113   109.04638899   301.25679926
 N      6   2   1     2.757081650551   110.32612562   181.96986976
 H      6   2   1     2.103832761198   109.88066156    60.91957639
 H      6   2   1     2.101316026664   109.46421060   301.69727662
 H      9   6   2     1.976085142621   109.45935132   297.76790703
 H      9   6   2     1.976265089186   108.52355541   180.31337578

---------------------
BASIS SET INFORMATION
---------------------
There are 3 groups of distinct atoms

 Group   1 Type C   : 7s4p1d contracted to 3s2p1d pattern {511/31/1}
 Group   2 Type H   : 4s1p contracted to 2s1p pattern {31/1}
 Group   3 Type N   : 7s4p1d contracted to 3s2p1d pattern {511/31/1}

Atom   0C    basis set group =>   1
Atom   1C    basis set group =>   1
Atom   2H    basis set group =>   2
Atom   3H    basis set group =>   2
Atom   4H    basis set group =>   2
Atom   5C    basis set group =>   1
Atom   6H    basis set group =>   2
Atom   7H    basis set group =>   2
Atom   8N    basis set group =>   3
Atom   9H    basis set group =>   2
Atom  10H    basis set group =>   2
Atom  11H    basis set group =>   2
Atom  12H    basis set group =>   2
---------------------------------
AUXILIARY/J BASIS SET INFORMATION
---------------------------------
There are 3 groups of distinct atoms

 Group   1 Type C   : 12s5p4d2f1g contracted to 6s4p3d1f1g pattern {711111/2111/211/2/1}
 Group   2 Type H   : 5s2p1d contracted to 3s1p1d pattern {311/2/1}
 Group   3 Type N   : 12s5p4d2f1g contracted to 6s4p3d1f1g pattern {711111/2111/211/2/1}

Atom   0C    basis set group =>   1
Atom   1C    basis set group =>   1
Atom   2H    basis set group =>   2
Atom   3H    basis set group =>   2
Atom   4H    basis set group =>   2
Atom   5C    basis set group =>   1
Atom   6H    basis set group =>   2
Atom   7H    basis set group =>   2
Atom   8N    basis set group =>   3
Atom   9H    basis set group =>   2
Atom  10H    basis set group =>   2
Atom  11H    basis set group =>   2
Atom  12H    basis set group =>   2
------------------------------------------------------------------------------
                           ORCA GTO INTEGRAL CALCULATION
                           -- RI-GTO INTEGRALS CHOSEN --
------------------------------------------------------------------------------
------------------------------------------------------------------------------
                   ___                                                        
                  /   \      - P O W E R E D   B Y -                         
                 /     \                                                     
                 |  |  |   _    _      __       _____    __    __             
                 |  |  |  | |  | |    /  \     |  _  \  |  |  /  |          
                  \  \/   | |  | |   /    \    | | | |  |  | /  /          
                 / \  \   | |__| |  /  /\  \   | |_| |  |  |/  /          
                |  |  |   |  __  | /  /__\  \  |    /   |      \           
                |  |  |   | |  | | |   __   |  |    \   |  |\   \          
                \     /   | |  | | |  |  |  |  | |\  \  |  | \   \       
                 \___/    |_|  |_| |__|  |__|  |_| \__\ |__|  \__/        
                                                                              
                      - O R C A' S   B I G   F R I E N D -                    
                                      &                                       
                       - I N T E G R A L  F E E D E R -                       
                                                                              
 v1 FN, 2020, v2 2021                                                         
------------------------------------------------------------------------------


Reading SHARK input file lys_deprot_aq.SHARKINP.tmp ... ok
----------------------
SHARK INTEGRAL PACKAGE
----------------------

Number of atoms                             ...     13
Number of basis functions                   ...    101
Number of shells                            ...     51
Maximum angular momentum                    ...      2
Integral batch strategy                     ... SHARK/LIBINT Hybrid
RI-J (if used) integral strategy            ... SPLIT-RIJ (Revised 2003 algorithm where possible)
Printlevel                                  ...      1
Contraction scheme used                     ... SEGMENTED contraction
Coulomb Range Separation                    ... NOT USED
Exchange Range Separation                   ... Long Range
   Mu parameter                             ...  0.300000
   Scaling (regular/separated)              ...  0.157706  0.842294
Finite Nucleus Model                        ... NOT USED
Auxiliary Coulomb fitting basis             ... AVAILABLE
   # of basis functions in Aux-J            ...    295
   # of shells in Aux-J                     ...    105
   Maximum angular momentum in Aux-J        ...      4
Auxiliary J/K fitting basis                 ... NOT available
Auxiliary Correlation fitting basis         ... NOT available
Auxiliary 'external' fitting basis          ... NOT available
Integral threshold                          ...     2.500000e-11
Primitive cut-off                           ...     2.500000e-12
Primitive pair pre-selection threshold      ...     2.500000e-12

Calculating pre-screening integrals         ... done (  0.0 sec) Dimension = 51
Organizing shell pair data                  ... done (  0.0 sec)
Shell pair information
Total number of shell pairs                 ...      1326
Shell pairs after pre-screening             ...      1303
Total number of primitive shell pairs       ...      4450
Primitive shell pairs kept                  ...      3583
          la=0 lb=0:    459 shell pairs
          la=1 lb=0:    501 shell pairs
          la=1 lb=1:    148 shell pairs
          la=2 lb=0:    118 shell pairs
          la=2 lb=1:     67 shell pairs
          la=2 lb=2:     10 shell pairs

Calculating one electron integrals          ... done (  0.0 sec)
Calculating RI/J V-Matrix + Cholesky decomp.... done (  0.0 sec)
Calculating Nuclear repulsion               ... done (  0.0 sec) ENN=    130.839397099478 Eh

SHARK setup successfully completed in   0.2 seconds

Maximum memory used throughout the entire GTOINT-calculation: 10.2 MB
-------------------------------------------------------------------------------
                                 ORCA SCF
-------------------------------------------------------------------------------

------------
SCF SETTINGS
------------
Hamiltonian:
 Density Functional     Method          .... DFT(GTOs)
 Exchange Functional    Exchange        .... WB97X
 Correlation Functional Correlation     .... WB97X
 Gradients option       PostSCFGGA      .... off
 Hybrid DFT is turned on
   Fraction HF Exchange ScalHFX         ....  0.157706
   Scaling of DF-GGA-X  ScalDFX         ....  0.000000
   Scaling of DF-GGA-C  ScalDFC         ....  1.000000
   Scaling of DF-LDA-C  ScalLDAC        ....  1.000000
   Perturbative correction              ....  0.000000
   Density functional embedding theory  .... OFF
 Long-range corrected/Screened/Range-Separated Hybrid DFT is turned on
   Amount of maximum screened exact exchange              ....  0.842294
   Range separation parameter mu (erf(mu*r12)/r12)        ....  0.300000
 RI-approximation to the Coulomb term is turned on
   Number of AuxJ basis functions       .... 295
   RIJ-COSX (HFX calculated with COS-X)).... on


General Settings:
 Integral files         IntName         .... lys_deprot_aq
 Hartree-Fock type      HFTyp           .... RHF
 Total Charge           Charge          ....    0
 Multiplicity           Mult            ....    1
 Number of Electrons    NEL             ....   34
 Basis Dimension        Dim             ....  101
 Nuclear Repulsion      ENuc            ....    130.8393970995 Eh

Convergence Acceleration:
 DIIS                   CNVDIIS         .... on
   Start iteration      DIISMaxIt       ....     0
   Startup error        DIISStart       ....  0.200000
   # of expansion vecs  DIISMaxEq       ....     5
   Bias factor          DIISBfac        ....   1.050
   Max. coefficient     DIISMaxC        ....  10.000
 Trust-Rad. Augm. Hess. CNVTRAH         .... auto
   Auto Start mean grad. ratio tolernc. ....  1.125000
   Auto Start start iteration           ....    20
   Auto Start num. interpolation iter.  ....    10
   Max. Number of Micro iterations      ....    16
   Max. Number of Macro iterations      .... Maxiter - #DIIS iter
   Number of Davidson start vectors     ....     2
   Converg. threshold I  (grad. norm)   ....   1.000e-05
   Converg. threshold II (energy diff.) ....   1.000e-08
   Grad. Scal. Fac. for Micro threshold ....   0.100
   Minimum threshold for Micro iter.    ....   0.010
   NR start threshold (gradient norm)   ....   0.001
   Initial trust radius                 ....   0.400
   Minimum AH scaling param. (alpha)    ....   1.000
   Maximum AH scaling param. (alpha)    .... 1000.000
   Orbital update algorithm             .... Taylor
   White noise on init. David. guess    .... on
   Maximum white noise                  ....   0.010
   Quad. conv. algorithm                .... NR
 SOSCF                  CNVSOSCF        .... on
   Start iteration      SOSCFMaxIt      ....   150
   Startup grad/error   SOSCFStart      ....  0.001000
 Level Shifting         CNVShift        .... on
   Level shift para.    LevelShift      ....    0.2500
   Turn off err/grad.   ShiftErr        ....    0.0000
 Zerner damping         CNVZerner       .... off
 Static damping         CNVDamp         .... on
   Fraction old density DampFac         ....    0.8500
   Max. Damping (<1)    DampMax         ....    0.9800
   Min. Damping (>=0)   DampMin         ....    0.0000
   Turn off err/grad.   DampErr         ....    0.0300
 Fernandez-Rico         CNVRico         .... off

SCF Procedure:
 Maximum # iterations   MaxIter         ....   125
 SCF integral mode      SCFMode         .... Direct
   Integral package                     .... SHARK and LIBINT hybrid scheme
 Reset frequency        DirectResetFreq ....    20
 Integral Threshold     Thresh          ....  2.500e-11 Eh
 Primitive CutOff       TCut            ....  2.500e-12 Eh

Convergence Tolerance:
 Convergence Check Mode ConvCheckMode   .... Total+1el-Energy
 Convergence forced     ConvForced      .... 0
 Energy Change          TolE            ....  1.000e-08 Eh
 1-El. energy change                    ....  1.000e-05 Eh
 Orbital Gradient       TolG            ....  1.000e-05
 Orbital Rotation angle TolX            ....  1.000e-05
 DIIS Error             TolErr          ....  5.000e-07


Diagonalization of the overlap matrix:
Smallest eigenvalue                        ... 2.046e-03
Time for diagonalization                   ...    0.002 sec
Threshold for overlap eigenvalues          ... 1.000e-08
Number of eigenvalues below threshold      ... 0
Time for construction of square roots      ...    0.001 sec
Total time needed                          ...    0.003 sec

Time for model grid setup =    0.097 sec

------------------------------
INITIAL GUESS: MODEL POTENTIAL
------------------------------
Loading Hartree-Fock densities                     ... done
Calculating cut-offs                               ... done
Initializing the effective Hamiltonian             ... done
Setting up the integral package (SHARK)            ... done
Starting the Coulomb interaction                   ... done (   0.1 sec)
Reading the grid                                   ... done
Mapping shells                                     ... done
Starting the XC term evaluation                    ... done (   0.1 sec)
  promolecular density results
     # of electrons  =     34.000350667
     EX              =    -24.498733343
     EC              =     -1.088019393
     EX+EC           =    -25.586752736
Transforming the Hamiltonian                       ... done (   0.0 sec)
Diagonalizing the Hamiltonian                      ... done (   0.0 sec)
Back transforming the eigenvectors                 ... done (   0.0 sec)
Now organizing SCF variables                       ... done
                      ------------------
                      INITIAL GUESS DONE (   0.3 sec)
                      ------------------
-------------------
DFT GRID GENERATION
-------------------

General Integration Accuracy     IntAcc      ... 4.388
Radial Grid Type                 RadialGrid  ... OptM3 with GC (2021)
Angular Grid (max. ang.)         AngularGrid ... 4 (Lebedev-302)
Angular grid pruning method      GridPruning ... 4 (adaptive)
Weight generation scheme         WeightScheme... Becke
Basis function cutoff            BFCut       ... 1.0000e-11
Integration weight cutoff        WCut        ... 1.0000e-14
Angular grids for H and He will be reduced by one unit
Partially contracted basis set               ... off
Rotationally invariant grid construction     ... off

Total number of grid points                  ...    53257
Total number of batches                      ...      838
Average number of points per batch           ...       63
Average number of grid points per atom       ...     4097
Time for grid setup =    0.435 sec

--------------------
COSX GRID GENERATION
--------------------

GRIDX 1
-------
General Integration Accuracy     IntAcc      ... 3.816
Radial Grid Type                 RadialGrid  ... OptM3 with GC (2021)
Angular Grid (max. ang.)         AngularGrid ... 1 (Lebedev-50)
Angular grid pruning method      GridPruning ... 4 (adaptive)
Weight generation scheme         WeightScheme... Becke
Basis function cutoff            BFCut       ... 1.0000e-11
Integration weight cutoff        WCut        ... 1.0000e-14
Angular grids for H and He will be reduced by one unit
Partially contracted basis set               ... on
Rotationally invariant grid construction     ... off

Total number of grid points                  ...     6850
Total number of batches                      ...      116
Average number of points per batch           ...       59
Average number of grid points per atom       ...      527
UseSFitting                                  ... on

GRIDX 2
-------
General Integration Accuracy     IntAcc      ... 4.020
Radial Grid Type                 RadialGrid  ... OptM3 with GC (2021)
Angular Grid (max. ang.)         AngularGrid ... 2 (Lebedev-110)
Angular grid pruning method      GridPruning ... 4 (adaptive)
Weight generation scheme         WeightScheme... Becke
Basis function cutoff            BFCut       ... 1.0000e-11
Integration weight cutoff        WCut        ... 1.0000e-14
Angular grids for H and He will be reduced by one unit
Partially contracted basis set               ... on
Rotationally invariant grid construction     ... off

Total number of grid points                  ...    14206
Total number of batches                      ...      229
Average number of points per batch           ...       62
Average number of grid points per atom       ...     1093
UseSFitting                                  ... on

GRIDX 3
-------
General Integration Accuracy     IntAcc      ... 4.338
Radial Grid Type                 RadialGrid  ... OptM3 with GC (2021)
Angular Grid (max. ang.)         AngularGrid ... 3 (Lebedev-194)
Angular grid pruning method      GridPruning ... 4 (adaptive)
Weight generation scheme         WeightScheme... Becke
Basis function cutoff            BFCut       ... 1.0000e-11
Integration weight cutoff        WCut        ... 1.0000e-14
Angular grids for H and He will be reduced by one unit
Partially contracted basis set               ... on
Rotationally invariant grid construction     ... off

Total number of grid points                  ...    31112
Total number of batches                      ...      492
Average number of points per batch           ...       63
Average number of grid points per atom       ...     2393
UseSFitting                                  ... on

Time for X-Grid setup             =    0.502 sec


--------------------
CPCM SOLVATION MODEL
--------------------
CPCM parameters:
  Epsilon                                         ...      80.4000
  Refrac                                          ...       1.3300
  Rsolv                                           ...       1.3000
  Surface type                                    ... GAUSSIAN VDW
  Epsilon function type                           ...         CPCM
Radii:
 Radius for C  used is    3.8550 Bohr (=   2.0400 Ang.)
 Radius for H  used is    2.4944 Bohr (=   1.3200 Ang.)
 Radius for N  used is    3.5149 Bohr (=   1.8600 Ang.)
Calculating surface                               ...        done! (  0.0s)
GEPOL surface points                              ...          789
GEPOL Volume                                      ...     641.6773
GEPOL Surface-area                                ...     413.3879
Calculating surface distance matrix               ...        done! (  0.0s)
Performing Cholesky decomposition & store         ...        done! (  0.0s)
Overall time for CPCM initialization              ...                 0.0s
--------------
SCF ITERATIONS
--------------
ITER       Energy         Delta-E        Max-DP      RMS-DP      [F,P]     Damp
               ***  Starting incremental Fock matrix formation  ***
  0   -174.1531861445   0.000000000000 0.03912071  0.00126724  0.2315317 0.8500
  1   -174.1892829929  -0.036096848407 0.03382461  0.00119726  0.1792453 0.8500
                               ***Turning on DIIS***
  2   -174.2156783484  -0.026395355512 0.02533396  0.00095151  0.1311504 0.8500
  3   -174.2346307652  -0.018952416726 0.01397190  0.00060595  0.0944916 0.8500
  4   -174.2489409263  -0.014310161140 0.00929667  0.00042607  0.0739571 0.8500
  5   -174.2600564622  -0.011115535940 0.00691897  0.00033408  0.0610069 0.8500
  6   -174.2690338641  -0.008977401881 0.00548992  0.00027631  0.0513185 0.8500
  7   -174.2764365687  -0.007402704541 0.00475639  0.00023782  0.0434522 0.8500
  8   -174.2826160736  -0.006179504944 0.00406282  0.00020493  0.0366054 0.8500
  9   -174.2877877608  -0.005171687198 0.00340680  0.00017533  0.0307605 0.8500
 10   -174.2921224115  -0.004334650734 0.01903588  0.00099545  0.0258622 0.0000
 11   -174.3156792796  -0.023556868108 0.00110255  0.00004471  0.0014681 0.0000
                      *** Initiating the SOSCF procedure ***
                           *** Shutting down DIIS ***
                      *** Re-Reading the Fockian *** 
                      *** Removing any level shift *** 
ITER      Energy       Delta-E        Grad      Rot      Max-DP    RMS-DP
 12   -174.31568697  -0.0000076899  0.000101  0.000101  0.000338  0.000018
               *** Restarting incremental Fock matrix formation ***
 13   -174.31568485   0.0000021180  0.000065  0.000129  0.000299  0.000012
 14   -174.31568500  -0.0000001492  0.000026  0.000096  0.000146  0.000008
 15   -174.31568502  -0.0000000185  0.000011  0.000010  0.000038  0.000002
                  ***Gradient check signals convergence***
              ***Rediagonalizing the Fockian in SOSCF/NRSCF***

               *****************************************************
               *                     SUCCESS                       *
               *           SCF CONVERGED AFTER  16 CYCLES          *
               *****************************************************

Old exchange energy                            =     -8.448332366 Eh
New exchange energy                            =     -8.448302356 Eh
Exchange energy change after final integration =      0.000030009 Eh
Total energy after final integration           =   -174.315655018 Eh
Final COS-X integration done in                =     6.860 sec

----------------
TOTAL SCF ENERGY
----------------

Total Energy       :         -174.31565502 Eh           -4743.37012 eV

Components:
Nuclear Repulsion  :          130.83939710 Eh            3560.32100 eV
Electronic Energy  :         -305.15505212 Eh           -8303.69112 eV
One Electron Energy:         -492.80726436 Eh          -13409.96741 eV
Two Electron Energy:          187.65221224 Eh            5106.27629 eV
Max COSX asymmetry :            0.00000165 Eh               0.00004 eV
CPCM Dielectric    :           -0.00712183 Eh              -0.19379 eV

Virial components:
Potential Energy   :         -346.28411968 Eh           -9422.86995 eV
Kinetic Energy     :          171.96846466 Eh            4679.49982 eV
Virial Ratio       :            2.01364896


DFT components:
N(Alpha)           :       16.999969892576 electrons
N(Beta)            :       16.999969892576 electrons
N(Total)           :       33.999939785151 electrons
E(XC)              :      -17.999024138798 Eh       
DFET-embed. en.    :        0.000000000000 Eh       
CPCM Solvation Model Properties:
Surface-charge          :           -0.02040965
Charge-correction       :           -0.00020937 Eh              -0.00570 eV
Free-energy (cav+disp)  :  This term is not implemented in the current solvation scheme

---------------
SCF CONVERGENCE
---------------

  Last Energy change         ...   -8.0719e-09  Tolerance :   1.0000e-08
  Last MAX-Density change    ...    2.0053e-15  Tolerance :   1.0000e-07
  Last RMS-Density change    ...    4.5970e-17  Tolerance :   5.0000e-09
  Last Orbital Gradient      ...    1.9202e-06  Tolerance :   1.0000e-05
  Last Orbital Rotation      ...    2.5392e-06  Tolerance :   1.0000e-05

             **** THE GBW FILE WAS UPDATED (lys_deprot_aq.gbw) ****
             **** DENSITY lys_deprot_aq.scfp WAS UPDATED ****
             **** ENERGY FILE WAS UPDATED (lys_deprot_aq.en.tmp) ****
             **** THE GBW FILE WAS UPDATED (lys_deprot_aq.gbw) ****
             **** DENSITY lys_deprot_aq.scfp WAS UPDATED ****
----------------
ORBITAL ENERGIES
----------------

  NO   OCC          E(Eh)            E(eV) 
   0   2.0000     -14.377312      -391.2266 
   1   2.0000     -10.282532      -279.8019 
   2   2.0000     -10.260515      -279.2028 
   3   2.0000     -10.259010      -279.1619 
   4   2.0000      -0.987713       -26.8770 
   5   2.0000      -0.882008       -24.0007 
   6   2.0000      -0.762501       -20.7487 
   7   2.0000      -0.689135       -18.7523 
   8   2.0000      -0.588374       -16.0105 
   9   2.0000      -0.563057       -15.3216 
  10   2.0000      -0.543925       -14.8010 
  11   2.0000      -0.508177       -13.8282 
  12   2.0000      -0.477066       -12.9816 
  13   2.0000      -0.447201       -12.1690 
  14   2.0000      -0.430981       -11.7276 
  15   2.0000      -0.423975       -11.5369 
  16   2.0000      -0.333571        -9.0769 
  17   0.0000       0.151732         4.1288 
  18   0.0000       0.167052         4.5457 
  19   0.0000       0.190035         5.1711 
  20   0.0000       0.202152         5.5008 
  21   0.0000       0.233580         6.3560 
  22   0.0000       0.243726         6.6321 
  23   0.0000       0.256127         6.9696 
  24   0.0000       0.261859         7.1255 
  25   0.0000       0.270131         7.3506 
  26   0.0000       0.318952         8.6791 
  27   0.0000       0.339301         9.2329 
  28   0.0000       0.357653         9.7322 
  29   0.0000       0.533079        14.5058 
  30   0.0000       0.538158        14.6440 
  31   0.0000       0.556040        15.1306 
  32   0.0000       0.568462        15.4686 
  33   0.0000       0.583983        15.8910 
  34   0.0000       0.643464        17.5095 
  35   0.0000       0.710653        19.3378 
  36   0.0000       0.722272        19.6540 
  37   0.0000       0.741837        20.1864 
  38   0.0000       0.762126        20.7385 
  39   0.0000       0.765919        20.8417 
  40   0.0000       0.778852        21.1937 
  41   0.0000       0.792347        21.5609 
  42   0.0000       0.807921        21.9846 
  43   0.0000       0.808986        22.0136 
  44   0.0000       0.814450        22.1623 
  45   0.0000       0.827196        22.5091 
  46   0.0000       0.849040        23.1035 
  47   0.0000       0.869673        23.6650 
  48   0.0000       0.936273        25.4773 
  49   0.0000       1.015187        27.6246 
  50   0.0000       1.043537        28.3961 
  51   0.0000       1.103441        30.0262 
  52   0.0000       1.131195        30.7814 
  53   0.0000       1.233849        33.5747 
  54   0.0000       1.287917        35.0460 
  55   0.0000       1.348394        36.6917 
  56   0.0000       1.410876        38.3919 
  57   0.0000       1.472302        40.0634 
  58   0.0000       1.483779        40.3757 
  59   0.0000       1.604240        43.6536 
  60   0.0000       1.645792        44.7843 
  61   0.0000       1.667069        45.3632 
  62   0.0000       1.794894        48.8415 
  63   0.0000       1.829386        49.7801 
  64   0.0000       1.848287        50.2944 
  65   0.0000       1.872545        50.9545 
  66   0.0000       1.875804        51.0432 
  67   0.0000       1.877967        51.1021 
  68   0.0000       1.897854        51.6432 
  69   0.0000       1.928078        52.4657 
  70   0.0000       1.945862        52.9496 
  71   0.0000       1.963376        53.4262 
  72   0.0000       1.971190        53.6388 
  73   0.0000       2.013815        54.7987 
  74   0.0000       2.025813        55.1252 
  75   0.0000       2.063239        56.1436 
  76   0.0000       2.070966        56.3538 
  77   0.0000       2.160083        58.7788 
  78   0.0000       2.191205        59.6257 
  79   0.0000       2.216173        60.3051 
  80   0.0000       2.328831        63.3707 
  81   0.0000       2.375853        64.6502 
  82   0.0000       2.405170        65.4480 
  83   0.0000       2.490358        67.7661 
  84   0.0000       2.491396        67.7943 
  85   0.0000       2.523709        68.6736 
  86   0.0000       2.612865        71.0997 
  87   0.0000       2.673056        72.7376 
  88   0.0000       2.698044        73.4175 
  89   0.0000       2.761223        75.1367 
  90   0.0000       2.850502        77.5661 
  91   0.0000       2.871234        78.1303 
  92   0.0000       2.965338        80.6910 
  93   0.0000       2.991834        81.4119 
  94   0.0000       3.010243        81.9129 
  95   0.0000       3.050230        83.0010 
  96   0.0000       3.126630        85.0799 
  97   0.0000       3.141673        85.4893 
  98   0.0000       3.190688        86.8230 
  99   0.0000       3.331204        90.6467 
 100   0.0000       3.484698        94.8235 

                    ********************************
                    * MULLIKEN POPULATION ANALYSIS *
                    ********************************

-----------------------
MULLIKEN ATOMIC CHARGES
-----------------------
   0 C :   -0.067093
   1 C :   -0.093216
   2 H :    0.038062
   3 H :    0.033619
   4 H :    0.032649
   5 C :    0.052415
   6 H :    0.022201
   7 H :    0.027970
   8 N :   -0.329103
   9 H :    0.007646
  10 H :    0.021753
  11 H :    0.125523
  12 H :    0.127575
Sum of atomic charges:    0.0000000

--------------------------------
MULLIKEN REDUCED ORBITAL CHARGES
--------------------------------
  0 C s       :     3.032065  s :     3.032065
      pz      :     1.016612  p :     3.007477
      px      :     1.003001
      py      :     0.987864
      dz2     :     0.005677  d :     0.027552
      dxz     :     0.007573
      dyz     :     0.002273
      dx2y2   :     0.004391
      dxy     :     0.007638
  1 C s       :     3.063714  s :     3.063714
      pz      :     1.015569  p :     2.994238
      px      :     1.018010
      py      :     0.960659
      dz2     :     0.006441  d :     0.035264
      dxz     :     0.009295
      dyz     :     0.003902
      dx2y2   :     0.006368
      dxy     :     0.009258
  2 H s       :     0.939066  s :     0.939066
      pz      :     0.004741  p :     0.022872
      px      :     0.008063
      py      :     0.010068
  3 H s       :     0.943450  s :     0.943450
      pz      :     0.012971  p :     0.022932
      px      :     0.005968
      py      :     0.003993
  4 H s       :     0.944386  s :     0.944386
      pz      :     0.009319  p :     0.022965
      px      :     0.009708
      py      :     0.003938
  5 C s       :     3.025078  s :     3.025078
      pz      :     1.021388  p :     2.871391
      px      :     0.972137
      py      :     0.877867
      dz2     :     0.007885  d :     0.051116
      dxz     :     0.011732
      dyz     :     0.006542
      dx2y2   :     0.010871
      dxy     :     0.014085
  6 H s       :     0.956210  s :     0.956210
      pz      :     0.009146  p :     0.021590
      px      :     0.009090
      py      :     0.003354
  7 H s       :     0.950126  s :     0.950126
      pz      :     0.012791  p :     0.021904
      px      :     0.005595
      py      :     0.003517
  8 N s       :     3.448860  s :     3.448860
      pz      :     1.390016  p :     3.861962
      px      :     1.396018
      py      :     1.075927
      dz2     :     0.006252  d :     0.018282
      dxz     :     0.001703
      dyz     :     0.001258
      dx2y2   :     0.001682
      dxy     :     0.007387
  9 H s       :     0.971765  s :     0.971765
      pz      :     0.009314  p :     0.020589
      px      :     0.008708
      py      :     0.002567
 10 H s       :     0.957409  s :     0.957409
      pz      :     0.012894  p :     0.020838
      px      :     0.005498
      py      :     0.002446
 11 H s       :     0.832027  s :     0.832027
      pz      :     0.021417  p :     0.042451
      px      :     0.013888
      py      :     0.007145
 12 H s       :     0.830150  s :     0.830150
      pz      :     0.010898  p :     0.042274
      px      :     0.014204
      py      :     0.017173


                     *******************************
                     * LOEWDIN POPULATION ANALYSIS *
                     *******************************

----------------------
LOEWDIN ATOMIC CHARGES
----------------------
   0 C :   -0.070228
   1 C :   -0.057277
   2 H :    0.028387
   3 H :    0.026126
   4 H :    0.025440
   5 C :    0.009299
   6 H :    0.021749
   7 H :    0.023511
   8 N :   -0.172371
   9 H :    0.003983
  10 H :    0.018983
  11 H :    0.069850
  12 H :    0.072548

-------------------------------
LOEWDIN REDUCED ORBITAL CHARGES
-------------------------------
  0 C s       :     2.844046  s :     2.844046
      pz      :     1.063876  p :     3.155942
      px      :     1.055689
      py      :     1.036377
      dz2     :     0.015390  d :     0.070240
      dxz     :     0.019239
      dyz     :     0.004427
      dx2y2   :     0.010853
      dxy     :     0.020330
  1 C s       :     2.846397  s :     2.846397
      pz      :     1.058302  p :     3.124052
      px      :     1.045679
      py      :     1.020071
      dz2     :     0.017181  d :     0.086828
      dxz     :     0.023176
      dyz     :     0.007297
      dx2y2   :     0.014871
      dxy     :     0.024303
  2 H s       :     0.908329  s :     0.908329
      pz      :     0.012263  p :     0.063284
      px      :     0.022267
      py      :     0.028754
  3 H s       :     0.910806  s :     0.910806
      pz      :     0.034644  p :     0.063068
      px      :     0.016239
      py      :     0.012185
  4 H s       :     0.911332  s :     0.911332
      pz      :     0.024584  p :     0.063228
      px      :     0.026517
      py      :     0.012127
  5 C s       :     2.842357  s :     2.842357
      pz      :     1.064234  p :     3.030652
      px      :     1.019029
      py      :     0.947389
      dz2     :     0.019634  d :     0.117692
      dxz     :     0.029113
      dyz     :     0.012005
      dx2y2   :     0.022769
      dxy     :     0.034171
  6 H s       :     0.914766  s :     0.914766
      pz      :     0.024615  p :     0.063485
      px      :     0.026784
      py      :     0.012086
  7 H s       :     0.913210  s :     0.913210
      pz      :     0.034163  p :     0.063279
      px      :     0.016785
      py      :     0.012331
  8 N s       :     3.151287  s :     3.151287
      pz      :     1.417665  p :     3.980678
      px      :     1.428379
      py      :     1.134634
      dz2     :     0.012823  d :     0.040406
      dxz     :     0.004071
      dyz     :     0.002637
      dx2y2   :     0.004356
      dxy     :     0.016520
  9 H s       :     0.933074  s :     0.933074
      pz      :     0.025232  p :     0.062943
      px      :     0.026563
      py      :     0.011147
 10 H s       :     0.919708  s :     0.919708
      pz      :     0.034870  p :     0.061309
      px      :     0.016212
      py      :     0.010227
 11 H s       :     0.817172  s :     0.817172
      pz      :     0.060832  p :     0.112978
      px      :     0.035518
      py      :     0.016629
 12 H s       :     0.814285  s :     0.814285
      pz      :     0.027059  p :     0.113167
      px      :     0.041893
      py      :     0.044215


                      *****************************
                      * MAYER POPULATION ANALYSIS *
                      *****************************

  NA   - Mulliken gross atomic population
  ZA   - Total nuclear charge
  QA   - Mulliken gross atomic charge
  VA   - Mayer's total valence
  BVA  - Mayer's bonded valence
  FA   - Mayer's free valence

  ATOM       NA         ZA         QA         VA         BVA        FA
  0 C      6.0671     6.0000    -0.0671     4.0067     4.0067     0.0000
  1 C      6.0932     6.0000    -0.0932     4.0687     4.0687     0.0000
  2 H      0.9619     1.0000     0.0381     0.9843     0.9843     0.0000
  3 H      0.9664     1.0000     0.0336     0.9886     0.9886     0.0000
  4 H      0.9674     1.0000     0.0326     0.9893     0.9893     0.0000
  5 C      5.9476     6.0000     0.0524     4.0510     4.0510     0.0000
  6 H      0.9778     1.0000     0.0222     0.9872     0.9872     0.0000
  7 H      0.9720     1.0000     0.0280     0.9793     0.9793    -0.0000
  8 N      7.3291     7.0000    -0.3291     2.9961     2.9961     0.0000
  9 H      0.9924     1.0000     0.0076     0.9754     0.9754     0.0000
 10 H      0.9782     1.0000     0.0218     0.9826     0.9826     0.0000
 11 H      0.8745     1.0000     0.1255     0.9884     0.9884     0.0000
 12 H      0.8724     1.0000     0.1276     0.9854     0.9854     0.0000

  Mayer bond orders larger than 0.100000
B(  0-C ,  1-C ) :   1.0827 B(  0-C ,  2-H ) :   0.9742 B(  0-C ,  3-H ) :   0.9758 
B(  0-C ,  4-H ) :   0.9751 B(  1-C ,  5-C ) :   1.0647 B(  1-C ,  6-H ) :   0.9533 
B(  1-C ,  7-H ) :   0.9559 B(  5-C ,  8-N ) :   1.0541 B(  5-C ,  9-H ) :   0.9573 
B(  5-C , 10-H ) :   0.9575 B(  8-N , 11-H ) :   0.9646 B(  8-N , 12-H ) :   0.9629 


-------
TIMINGS
-------

Total SCF time: 0 days 0 hours 0 min 56 sec 

Total time                  ....      56.364 sec
Sum of individual times     ....      56.129 sec  ( 99.6%)

Fock matrix formation       ....      54.867 sec  ( 97.3%)
  Split-RI-J                ....       1.878 sec  (  3.4% of F)
  Chain of spheres X        ....      39.508 sec  ( 72.0% of F)
  XC integration            ....       9.212 sec  ( 16.8% of F)
    Basis function eval.    ....       3.507 sec  ( 38.1% of XC)
    Density eval.           ....       1.594 sec  ( 17.3% of XC)
    XC-Functional eval.     ....       1.844 sec  ( 20.0% of XC)
    XC-Potential eval.      ....       1.943 sec  ( 21.1% of XC)
Diagonalization             ....       0.025 sec  (  0.0%)
Density matrix formation    ....       0.002 sec  (  0.0%)
Population analysis         ....       0.004 sec  (  0.0%)
Initial guess               ....       0.181 sec  (  0.3%)
Orbital Transformation      ....       0.000 sec  (  0.0%)
Orbital Orthonormalization  ....       0.000 sec  (  0.0%)
DIIS solution               ....       0.010 sec  (  0.0%)
SOSCF solution              ....       0.006 sec  (  0.0%)
Grid generation             ....       1.034 sec  (  1.8%)

Maximum memory used throughout the entire SCF-calculation: 53.8 MB


-------------------------------------------------------------------------------
                          DFT DISPERSION CORRECTION                            
                                                                               
                                 DFTD4 V2.5                                    
-------------------------------------------------------------------------------
The WB97X functional is recognized
Active option DFTDOPT                   ...         5   

Starting D4
-------------------------   ----------------
Dispersion correction           -0.000932562
-------------------------   ----------------


-------------------------   --------------------
FINAL SINGLE POINT ENERGY      -174.316587580134
-------------------------   --------------------

------------------------------------------------------------------------------
                         ORCA SCF GRADIENT CALCULATION
------------------------------------------------------------------------------

 ... reading COSX grid (gridx3)
Gradient of the Kohn-Sham DFT energy:
Kohn-Sham wavefunction type      ... RKS
Hartree-Fock exchange scaling    ...    0.158
Number of operators              ...    1
Number of atoms                  ...   13
Basis set dimensions             ...  101
Integral neglect threshold       ... 2.5e-11
Integral primitive cutoff        ... 2.5e-12
SHARK Integral package           ... ON

Nuc. rep. gradient       (SHARK) ... done (  0.0 sec)
HCore & Overlap gradient (SHARK) ... done (  0.1 sec)
RI-J gradient            (SHARK) ... done (  0.4 sec)
COSX-gradient                    ... done (  7.6 sec)
Exchange-correlation gradient    ... done
Dispersion correction            ... Starting D4


------------------- 
Dispersion Gradient 
------------------- 
   1  :   -0.000005893   -0.000021638   -0.000000553
   2  :    0.000006628   -0.000005119    0.000002037
   3  :   -0.000000932   -0.000004143   -0.000000189
   4  :    0.000001046   -0.000004469    0.000002300
   5  :    0.000001773   -0.000004769   -0.000001720
   6  :   -0.000010730   -0.000000730   -0.000000237
   7  :   -0.000003614    0.000000115    0.000002052
   8  :   -0.000002293   -0.000000701   -0.000003806
   9  :    0.000005493    0.000024874   -0.000000042
  10  :    0.000004773    0.000003041   -0.000002518
  11  :    0.000004424    0.000003462    0.000003231
  12  :    0.000000047    0.000004062   -0.000000561
  13  :   -0.000000723    0.000006015    0.000000005

  |G| =    0.000039502

done

------------------
CARTESIAN GRADIENT
------------------

   1   C   :   -0.003531438    0.003038766   -0.001295700
   2   C   :    0.007528776    0.001395998    0.002210939
   3   H   :    0.006533971   -0.002223607    0.001252217
   4   H   :   -0.000800278    0.001335316   -0.006114466
   5   H   :   -0.003099685    0.001898399    0.005067727
   6   C   :   -0.007547846   -0.003888918   -0.006189878
   7   H   :    0.002267622   -0.003274326   -0.005809730
   8   H   :   -0.000320160   -0.001678187    0.005711600
   9   N   :    0.001849087   -0.017873596   -0.005013941
  10   H   :    0.001799534    0.007398432    0.004959936
  11   H   :   -0.000970833   -0.000027980   -0.005615373
  12   H   :    0.011960942   -0.000772161    0.018236580
  13   H   :   -0.015694567    0.014779018   -0.007335721

Difference to translation invariance:
           :   -0.0000248762    0.0001071518    0.0000641895

Difference to rotation invariance:
           :    0.0009114460    0.0005427238   -0.0001562264

Norm of the cartesian gradient     ...    0.0432231341
RMS gradient                       ...    0.0069212407
MAX gradient                       ...    0.0182365801

-------
TIMINGS
-------

Total SCF gradient time            ...       11.175 sec

One electron gradient       ....       0.075 sec  (  0.7%)
RI-J Coulomb gradient       ....       0.374 sec  (  3.3%)
COSX gradient               ....       7.641 sec  ( 68.4%)
XC gradient                 ....       2.349 sec  ( 21.0%)
CPCM gradient               ....       0.236 sec  (  2.1%)
   A-Matrix (El+Nuc)        ....       0.032 sec  (  0.3%)
   Potential                ....       0.204 sec  (  1.8%)

Maximum memory used throughout the entire SCFGRAD-calculation: 42.3 MB
------------------------------------------------------------------------------
                         ORCA GEOMETRY RELAXATION STEP
------------------------------------------------------------------------------

Reading the OPT-File                    .... done
Getting information on internals        .... done
Copying old internal coords+grads       .... done
Making the new internal coordinates     .... (new redundants).... done
Validating the new internal coordinates .... (new redundants).... done
Calculating the B-matrix                .... done
Calculating the G,G- and P matrices     .... done
Transforming gradient to internals      .... done
Projecting the internal gradient        .... done
Number of atoms                         ....  13
Number of internal coordinates          ....  57
Current Energy                          ....  -174.316587580 Eh
Current gradient norm                   ....     0.043223134 Eh/bohr
Maximum allowed component of the step   ....  0.300
Current trust radius                    ....  0.300
Evaluating the initial hessian          ....  (Almloef) done
Projecting the Hessian                  .... done
Forming the augmented Hessian           .... done
Diagonalizing the augmented Hessian     .... done
Last element of RFO vector              ....  0.989724178
Lowest eigenvalues of augmented Hessian:
 -0.004840226  0.011061701  0.011494505  0.016084842  0.078019934
Length of the computed step             ....  0.144474283
The final length of the internal step   ....  0.144474283
Converting the step to cartesian space:
 Initial RMS(Int)=    0.0191360863
Transforming coordinates:
 Iter   0:  RMS(Cart)=    0.0235657859 RMS(Int)=    0.0191797233
 Iter   1:  RMS(Cart)=    0.0002922519 RMS(Int)=    0.0002472244
 Iter   2:  RMS(Cart)=    0.0000072171 RMS(Int)=    0.0000067344
 Iter   3:  RMS(Cart)=    0.0000002151 RMS(Int)=    0.0000001816
 Iter   4:  RMS(Cart)=    0.0000000055 RMS(Int)=    0.0000000051
done
Storing new coordinates                 .... done

                                .--------------------.
          ----------------------|Geometry convergence|-------------------------
          Item                value                   Tolerance       Converged
          ---------------------------------------------------------------------
          RMS gradient        0.0051109070            0.0001000000      NO
          MAX gradient        0.0221240348            0.0003000000      NO
          RMS step            0.0191360863            0.0020000000      NO
          MAX step            0.0575799816            0.0040000000      NO
          ........................................................
          Max(Bonds)      0.0305      Max(Angles)    2.07
          Max(Dihed)        2.74      Max(Improp)    0.00
          ---------------------------------------------------------------------

The optimization has not yet converged - more geometry cycles are needed


    ---------------------------------------------------------------------------
                         Redundant Internal Coordinates
                            (Angstroem and degrees)

        Definition                    Value    dE/dq     Step     New-Value
    ----------------------------------------------------------------------------
     1. B(C   1,C   0)                1.5255 -0.002880  0.0040    1.5295   
     2. B(H   2,C   0)                1.1101  0.005916 -0.0092    1.1008   
     3. B(H   3,C   0)                1.1107  0.005775 -0.0090    1.1017   
     4. B(H   4,C   0)                1.1105  0.005687 -0.0089    1.1016   
     5. B(C   5,C   1)                1.5311  0.004863 -0.0068    1.5243   
     6. B(H   6,C   1)                1.1116  0.005648 -0.0089    1.1027   
     7. B(H   7,C   1)                1.1119  0.004966 -0.0078    1.1041   
     8. B(N   8,C   5)                1.4590 -0.004023  0.0048    1.4638   
     9. B(H   9,C   5)                1.1133  0.002306 -0.0036    1.1097   
    10. B(H  10,C   5)                1.1120  0.005488 -0.0086    1.1034   
    11. B(H  11,N   8)                1.0457  0.021361 -0.0294    1.0163   
    12. B(H  12,N   8)                1.0458  0.022124 -0.0305    1.0153   
    13. A(H   2,C   0,H   4)          108.73  0.003203   -0.51    108.21   
    14. A(C   1,C   0,H   4)          110.47 -0.002168    0.36    110.84   
    15. A(H   3,C   0,H   4)          109.18  0.002919   -0.73    108.45   
    16. A(H   2,C   0,H   3)          108.61  0.003012   -0.45    108.15   
    17. A(C   1,C   0,H   2)          109.58 -0.004748    0.95    110.53   
    18. A(C   1,C   0,H   3)          110.23 -0.002032    0.35    110.58   
    19. A(C   0,C   1,C   5)          111.27 -0.005105    1.19    112.46   
    20. A(H   6,C   1,H   7)          108.70  0.000729   -1.02    107.68   
    21. A(C   5,C   1,H   7)          109.45  0.002005   -0.45    109.01   
    22. A(C   0,C   1,H   7)          109.05  0.000324    0.28    109.32   
    23. A(C   5,C   1,H   6)          109.48  0.003136   -0.67    108.81   
    24. A(C   0,C   1,H   6)          108.85 -0.000998    0.63    109.47   
    25. A(N   8,C   5,H   9)          109.68 -0.005658    2.07    111.74   
    26. A(C   1,C   5,H   9)          109.88  0.004574   -0.76    109.12   
    27. A(C   1,C   5,N   8)          110.33 -0.002466    0.77    111.09   
    28. A(H   9,C   5,H  10)          108.64  0.001405   -1.14    107.50   
    29. A(N   8,C   5,H  10)          108.82  0.001880   -0.43    108.40   
    30. A(C   1,C   5,H  10)          109.46  0.000305   -0.54    108.92   
    31. A(H  11,N   8,H  12)          107.84  0.004303   -1.59    106.25   
    32. A(C   5,N   8,H  12)          108.52 -0.004914    0.52    109.05   
    33. A(C   5,N   8,H  11)          109.46  0.000885   -0.46    109.00   
    34. D(H   7,C   1,C   0,H   2)    -58.74 -0.000353    0.31    -58.44   
    35. D(C   5,C   1,C   0,H   3)     60.96  0.000681   -0.33     60.63   
    36. D(H   6,C   1,C   0,H   2)     59.69  0.000135   -0.40     59.30   
    37. D(H   7,C   1,C   0,H   3)   -178.21  0.000156    0.05   -178.16   
    38. D(C   5,C   1,C   0,H   2)   -179.57  0.000172   -0.07   -179.65   
    39. D(C   5,C   1,C   0,H   4)    -59.80 -0.000229    0.13    -59.68   
    40. D(H   6,C   1,C   0,H   3)    -59.78  0.000644   -0.65    -60.43   
    41. D(H   7,C   1,C   0,H   4)     61.03 -0.000754    0.51     61.53   
    42. D(H   6,C   1,C   0,H   4)    179.46 -0.000266   -0.20    179.26   
    43. D(H   9,C   5,C   1,H   6)   -178.72  0.001381   -0.83   -179.55   
    44. D(H   9,C   5,C   1,C   0)     60.92  0.003819   -1.93     58.99   
    45. D(N   8,C   5,C   1,H   7)     61.38 -0.000311   -0.16     61.22   
    46. D(N   8,C   5,C   1,H   6)    -57.67 -0.004288    1.75    -55.92   
    47. D(H   9,C   5,C   1,H   7)    -59.67  0.005358   -2.74    -62.41   
    48. D(N   8,C   5,C   1,C   0)   -178.03 -0.001850    0.65   -177.38   
    49. D(H  10,C   5,C   1,H   7)   -178.89  0.000673   -0.56   -179.45   
    50. D(H  10,C   5,C   1,H   6)     62.06 -0.003304    1.35     63.41   
    51. D(H  10,C   5,C   1,C   0)    -58.30 -0.000866    0.25    -58.05   
    52. D(H  12,N   8,C   5,H  10)     60.20 -0.001529    0.75     60.95   
    53. D(H  12,N   8,C   5,H   9)    -58.52 -0.001042    1.17    -57.35   
    54. D(H  12,N   8,C   5,C   1)   -179.69 -0.001479    0.28   -179.41   
    55. D(H  11,N   8,C   5,H  10)    177.65  0.001319   -1.12    176.53   
    56. D(H  11,N   8,C   5,H   9)     58.94  0.001806   -0.70     58.24   
    57. D(H  11,N   8,C   5,C   1)    -62.23  0.001369   -1.59    -63.82   
    ----------------------------------------------------------------------------

         *************************************************************
         *                GEOMETRY OPTIMIZATION CYCLE   2            *
         *************************************************************
---------------------------------
CARTESIAN COORDINATES (ANGSTROEM)
---------------------------------
  C     -1.667933   -1.406581    0.028041
  C     -0.888500   -0.095351    0.139978
  H     -1.000326   -2.267311    0.187037
  H     -2.120913   -1.503684   -0.971513
  H     -2.471225   -1.450388    0.780596
  C     -1.774556    1.127934   -0.064681
  H     -0.083248   -0.080833   -0.613217
  H     -0.416625   -0.034677    1.136274
  N     -0.988857    2.361954   -0.012918
  H     -2.582168    1.122562    0.696295
  H     -2.253109    1.061047   -1.056597
  H     -0.590442    2.461697    0.916685
  H     -1.609048    3.155283   -0.142823

----------------------------
CARTESIAN COORDINATES (A.U.)
----------------------------
  NO LB      ZA    FRAG     MASS         X           Y           Z
   0 C     6.0000    0    12.011   -3.151936   -2.658053    0.052991
   1 C     6.0000    0    12.011   -1.679022   -0.180187    0.264520
   2 H     1.0000    0     1.008   -1.890341   -4.284598    0.353450
   3 H     1.0000    0     1.008   -4.007945   -2.841552   -1.835893
   4 H     1.0000    0     1.008   -4.669938   -2.740837    1.475112
   5 C     6.0000    0    12.011   -3.353424    2.131487   -0.122229
   6 H     1.0000    0     1.008   -0.157317   -0.152753   -1.158812
   7 H     1.0000    0     1.008   -0.787308   -0.065531    2.147247
   8 N     7.0000    0    14.007   -1.868669    4.463446   -0.024411
   9 H     1.0000    0     1.008   -4.879590    2.121334    1.315807
  10 H     1.0000    0     1.008   -4.257759    2.005089   -1.996678
  11 H     1.0000    0     1.008   -1.115774    4.651933    1.732284
  12 H     1.0000    0     1.008   -3.040661    5.962620   -0.269897

--------------------------------
INTERNAL COORDINATES (ANGSTROEM)
--------------------------------
 C      0   0   0     0.000000000000     0.00000000     0.00000000
 C      1   0   0     1.529499926095     0.00000000     0.00000000
 H      1   2   0     1.100834236775   110.52942547     0.00000000
 H      1   2   3     1.101693317577   110.57862504   240.27298494
 H      1   2   3     1.101605576083   110.83614055   119.96842133
 C      2   1   3     1.524272373652   112.45480959   180.35646946
 H      2   1   3     1.102698039155   109.47747405    59.29289714
 H      2   1   3     1.104062398937   109.32680964   301.56738944
 N      6   2   1     1.463832613818   111.08728283   182.61926943
 H      6   2   1     1.109662538576   109.09324184    59.00108301
 H      6   2   1     1.103351280463   108.91582761   301.94742894
 H      9   6   2     1.016289836439   108.99581497   296.16667800
 H      9   6   2     1.015324428866   109.04464986   180.57887957

---------------------------
INTERNAL COORDINATES (A.U.)
---------------------------
 C      0   0   0     0.000000000000     0.00000000     0.00000000
 C      1   0   0     2.890335982172     0.00000000     0.00000000
 H      1   2   0     2.080275226349   110.52942547     0.00000000
 H      1   2   3     2.081898653792   110.57862504   240.27298494
 H      1   2   3     2.081732846398   110.83614055   119.96842133
 C      2   1   3     2.880457339704   112.45480959   180.35646946
 H      2   1   3     2.083797302416   109.47747405    59.29289714
 H      2   1   3     2.086375568750   109.32680964   301.56738944
 N      6   2   1     2.766242746017   111.08728283   182.61926943
 H      6   2   1     2.096958298981   109.09324184    59.00108301
 H      6   2   1     2.085031749587   108.91582761   301.94742894
 H      9   6   2     1.920509463557   108.99581497   296.16667800
 H      9   6   2     1.918685107637   109.04464986   180.57887957

------------------------------------------------------------------------------
                   ___                                                        
                  /   \      - P O W E R E D   B Y -                         
                 /     \                                                     
                 |  |  |   _    _      __       _____    __    __             
                 |  |  |  | |  | |    /  \     |  _  \  |  |  /  |          
                  \  \/   | |  | |   /    \    | | | |  |  | /  /          
                 / \  \   | |__| |  /  /\  \   | |_| |  |  |/  /          
                |  |  |   |  __  | /  /__\  \  |    /   |      \           
                |  |  |   | |  | | |   __   |  |    \   |  |\   \          
                \     /   | |  | | |  |  |  |  | |\  \  |  | \   \       
                 \___/    |_|  |_| |__|  |__|  |_| \__\ |__|  \__/        
                                                                              
                      - O R C A' S   B I G   F R I E N D -                    
                                      &                                       
                       - I N T E G R A L  F E E D E R -                       
                                                                              
 v1 FN, 2020, v2 2021                                                         
------------------------------------------------------------------------------


Reading SHARK input file lys_deprot_aq.SHARKINP.tmp ... ok
----------------------
SHARK INTEGRAL PACKAGE
----------------------

Number of atoms                             ...     13
Number of basis functions                   ...    101
Number of shells                            ...     51
Maximum angular momentum                    ...      2
Integral batch strategy                     ... SHARK/LIBINT Hybrid
RI-J (if used) integral strategy            ... SPLIT-RIJ (Revised 2003 algorithm where possible)
Printlevel                                  ...      1
Contraction scheme used                     ... SEGMENTED contraction
Coulomb Range Separation                    ... NOT USED
Exchange Range Separation                   ... Long Range
   Mu parameter                             ...  0.300000
   Scaling (regular/separated)              ...  0.157706  0.842294
Finite Nucleus Model                        ... NOT USED
Auxiliary Coulomb fitting basis             ... AVAILABLE
   # of basis functions in Aux-J            ...    295
   # of shells in Aux-J                     ...    105
   Maximum angular momentum in Aux-J        ...      4
Auxiliary J/K fitting basis                 ... NOT available
Auxiliary Correlation fitting basis         ... NOT available
Auxiliary 'external' fitting basis          ... NOT available
Integral threshold                          ...     2.500000e-11
Primitive cut-off                           ...     2.500000e-12
Primitive pair pre-selection threshold      ...     2.500000e-12

Calculating pre-screening integrals         ... done (  0.0 sec) Dimension = 51
Organizing shell pair data                  ... done (  0.0 sec)
Shell pair information
Total number of shell pairs                 ...      1326
Shell pairs after pre-screening             ...      1301
Total number of primitive shell pairs       ...      4450
Primitive shell pairs kept                  ...      3578
          la=0 lb=0:    458 shell pairs
          la=1 lb=0:    501 shell pairs
          la=1 lb=1:    147 shell pairs
          la=2 lb=0:    118 shell pairs
          la=2 lb=1:     67 shell pairs
          la=2 lb=2:     10 shell pairs

Calculating one electron integrals          ... done (  0.0 sec)
Calculating RI/J V-Matrix + Cholesky decomp.... done (  0.0 sec)
Calculating Nuclear repulsion               ... done (  0.0 sec) ENN=    131.111515185026 Eh

SHARK setup successfully completed in   0.1 seconds

Maximum memory used throughout the entire GTOINT-calculation: 10.2 MB

Diagonalization of the overlap matrix:
Smallest eigenvalue                        ... 2.086e-03
Time for diagonalization                   ...    0.002 sec
Threshold for overlap eigenvalues          ... 1.000e-08
Number of eigenvalues below threshold      ... 0
Time for construction of square roots      ...    0.001 sec
Total time needed                          ...    0.003 sec

-------------------
DFT GRID GENERATION
-------------------

General Integration Accuracy     IntAcc      ... 4.388
Radial Grid Type                 RadialGrid  ... OptM3 with GC (2021)
Angular Grid (max. ang.)         AngularGrid ... 4 (Lebedev-302)
Angular grid pruning method      GridPruning ... 4 (adaptive)
Weight generation scheme         WeightScheme... Becke
Basis function cutoff            BFCut       ... 1.0000e-11
Integration weight cutoff        WCut        ... 1.0000e-14
Angular grids for H and He will be reduced by one unit
Partially contracted basis set               ... off
Rotationally invariant grid construction     ... off

Total number of grid points                  ...    53245
Total number of batches                      ...      837
Average number of points per batch           ...       63
Average number of grid points per atom       ...     4096
Time for grid setup =    0.437 sec

--------------------
COSX GRID GENERATION
--------------------

GRIDX 1
-------
General Integration Accuracy     IntAcc      ... 3.816
Radial Grid Type                 RadialGrid  ... OptM3 with GC (2021)
Angular Grid (max. ang.)         AngularGrid ... 1 (Lebedev-50)
Angular grid pruning method      GridPruning ... 4 (adaptive)
Weight generation scheme         WeightScheme... Becke
Basis function cutoff            BFCut       ... 1.0000e-11
Integration weight cutoff        WCut        ... 1.0000e-14
Angular grids for H and He will be reduced by one unit
Partially contracted basis set               ... on
Rotationally invariant grid construction     ... off

Total number of grid points                  ...     6847
Total number of batches                      ...      116
Average number of points per batch           ...       59
Average number of grid points per atom       ...      527
UseSFitting                                  ... on

GRIDX 2
-------
General Integration Accuracy     IntAcc      ... 4.020
Radial Grid Type                 RadialGrid  ... OptM3 with GC (2021)
Angular Grid (max. ang.)         AngularGrid ... 2 (Lebedev-110)
Angular grid pruning method      GridPruning ... 4 (adaptive)
Weight generation scheme         WeightScheme... Becke
Basis function cutoff            BFCut       ... 1.0000e-11
Integration weight cutoff        WCut        ... 1.0000e-14
Angular grids for H and He will be reduced by one unit
Partially contracted basis set               ... on
Rotationally invariant grid construction     ... off

Total number of grid points                  ...    14201
Total number of batches                      ...      229
Average number of points per batch           ...       62
Average number of grid points per atom       ...     1092
UseSFitting                                  ... on

GRIDX 3
-------
General Integration Accuracy     IntAcc      ... 4.338
Radial Grid Type                 RadialGrid  ... OptM3 with GC (2021)
Angular Grid (max. ang.)         AngularGrid ... 3 (Lebedev-194)
Angular grid pruning method      GridPruning ... 4 (adaptive)
Weight generation scheme         WeightScheme... Becke
Basis function cutoff            BFCut       ... 1.0000e-11
Integration weight cutoff        WCut        ... 1.0000e-14
Angular grids for H and He will be reduced by one unit
Partially contracted basis set               ... on
Rotationally invariant grid construction     ... off

Total number of grid points                  ...    31108
Total number of batches                      ...      492
Average number of points per batch           ...       63
Average number of grid points per atom       ...     2393
UseSFitting                                  ... on

Time for X-Grid setup             =    0.499 sec


[...]
     19      -0.230032   0.207172  -0.700124   0.141022   0.341844  -0.090996
     20       0.133753   0.094198   0.024004  -0.029925  -0.022337   0.067394
     21      -0.100919  -0.307100  -0.036835   0.103080  -0.018227   0.107510
     22      -0.054484  -0.261680   0.338693  -0.500674   0.474860  -0.135611
     23       0.051662   0.013852  -0.021994   0.009551  -0.015375  -0.027893
     24       0.061511  -0.038321   0.000088   0.012650  -0.036682   0.018086
     25      -0.015444  -0.000729  -0.007976  -0.002753   0.012265  -0.012084
     26      -0.048700  -0.021068  -0.038834  -0.042412  -0.057318   0.014831
     27      -0.385761  -0.005978  -0.090900   0.053975  -0.051690   0.007256
     28      -0.059226   0.101500  -0.283465  -0.705592  -0.128429  -0.096743
     29      -0.187916  -0.013657  -0.030755   0.023997  -0.048629   0.013856
     30       0.188865   0.224206   0.250479   0.019204   0.145671  -0.049551
     31       0.360992  -0.461347  -0.201225   0.362390   0.390349  -0.164078
     32      -0.082800   0.019907  -0.006319  -0.031434  -0.005654   0.001393
     33      -0.118039  -0.157539  -0.167886  -0.133428  -0.223526   0.056919
     34       0.142511  -0.277294  -0.142591  -0.103378  -0.300096   0.107293
     35       0.019676   0.057700   0.050620   0.031988   0.059035  -0.015524
     36      -0.220654   0.202023   0.089954   0.026029   0.223751  -0.093146
     37      -0.172166   0.183310   0.085213   0.032210   0.233905  -0.099512
     38       0.160042   0.015160   0.074299   0.061131   0.069475  -0.010083
                 24         25         26         27         28         29    
      0       0.022964   0.021869   0.018017   0.029678  -0.008265  -0.001147
      1      -0.043045   0.021165   0.002224  -0.009304   0.004934   0.000991
      2       0.008559   0.025247  -0.036964   0.003205  -0.001174  -0.001115
      3      -0.002552  -0.051176  -0.024353   0.061448  -0.036873   0.004593
      4       0.101383  -0.061804  -0.021748  -0.051023   0.014034  -0.003012
      5      -0.003521   0.004327  -0.026624   0.013286  -0.006456  -0.000801
      6       0.187084   0.159755  -0.045701   0.246410  -0.060740   0.007647
      7       0.084675   0.076779   0.071373   0.176502  -0.038961   0.007600
      8      -0.025074  -0.315017   0.613903   0.075783  -0.016112   0.000451
      9      -0.325635  -0.195489  -0.274917  -0.422414   0.107883  -0.005027
     10       0.059295  -0.259324   0.432153   0.076609  -0.014657  -0.003553
     11       0.158766   0.149660   0.066908   0.205498  -0.053567   0.001223
     12      -0.267354  -0.270255   0.027224  -0.303542   0.078258  -0.002481
     13       0.126591   0.191996  -0.417226   0.013138  -0.002436   0.000772
     14      -0.280560  -0.273873  -0.040200  -0.337733   0.087743  -0.002415
     15       0.039758   0.000809   0.002692  -0.047050  -0.070191  -0.021172
     16      -0.163544   0.045258   0.010470   0.046979  -0.043060   0.001915
     17       0.028810  -0.005024   0.002275  -0.016273  -0.013571   0.017170
     18       0.048505   0.282546   0.206304  -0.216277   0.171282   0.006379
     19      -0.197693   0.134407   0.083186   0.080319  -0.027980  -0.012295
     20       0.045745   0.358692   0.214064  -0.277169   0.211581   0.001073
     21       0.053197   0.427362   0.200415  -0.294940   0.237107  -0.002049
     22      -0.167378   0.154541   0.022381   0.084980  -0.042085   0.017224
     23      -0.013436  -0.233906  -0.137171   0.174636  -0.133713   0.005826
     24      -0.025531   0.007934   0.002653   0.002719  -0.009729   0.022018
     25       0.030089  -0.005269  -0.000348  -0.011600   0.004193   0.071992
     26      -0.015328   0.002196   0.002714   0.003723  -0.001200   0.022805
     27      -0.104834  -0.052424  -0.046280   0.198025   0.391682  -0.021691
     28       0.434423  -0.148909  -0.005634  -0.059798   0.153448  -0.040461
     29      -0.121511  -0.059323  -0.051743   0.242236   0.471043   0.025613
     30      -0.072100  -0.089894  -0.054580   0.255347   0.541267   0.050184
     31       0.479639  -0.124338  -0.070222  -0.079966   0.139145   0.022612
     32       0.045874   0.045874   0.030308  -0.148214  -0.301534  -0.018186
     33      -0.049017   0.007983   0.008488   0.010783   0.000706   0.186529
     34      -0.157665   0.033574   0.011168   0.064582   0.015308  -0.685793
     35       0.016041  -0.002154  -0.001315  -0.007802  -0.006445   0.024963
     36       0.167968  -0.040264  -0.014391  -0.036364   0.041973  -0.314224
     37       0.173612  -0.040546  -0.014458  -0.036125   0.047034  -0.305228
     38      -0.016170   0.006994  -0.001897   0.018428   0.010305  -0.537198
                 30         31         32         33         34         35    
      0      -0.000277   0.021331   0.025600   0.000700   0.005079   0.016844
      1      -0.000755   0.030682   0.027237  -0.000233  -0.000757  -0.002738
      2       0.000159   0.002404   0.005044  -0.001875  -0.018986  -0.089944
      3      -0.000343   0.043734  -0.048310  -0.010921  -0.025758   0.004902
      4       0.001493   0.001891  -0.005215  -0.000547   0.001661  -0.000434
      5       0.002648   0.017671  -0.019942   0.020670   0.084587  -0.019544
      6      -0.006431   0.247024   0.192721  -0.003189  -0.004307   0.002179
      7       0.004471  -0.309567  -0.248740   0.004888   0.005628   0.000049
      8      -0.000666   0.055181   0.043985  -0.000517  -0.006465  -0.012150
      9       0.002943  -0.182898  -0.184026   0.008313   0.060481   0.299045
     10       0.000074  -0.034788  -0.037016   0.003025   0.009288   0.061613
     11       0.006778  -0.390595  -0.394921   0.015079   0.123731   0.614606
     12       0.005124  -0.318617  -0.300450  -0.012069  -0.114221  -0.502875
     13      -0.001927  -0.014150  -0.015334  -0.000763  -0.003745  -0.028955
     14      -0.005920   0.307278   0.291994   0.011178   0.107459   0.471527
     15       0.066938  -0.000947   0.002514  -0.020216   0.002804  -0.000074
     16      -0.000343   0.000763  -0.001474  -0.004082   0.000777  -0.000108
     17      -0.034857  -0.004011   0.003118  -0.083064   0.024150  -0.002851
     18       0.015510  -0.285553   0.304628   0.179584   0.554290  -0.115696
     19       0.001154  -0.006607   0.010209   0.007598   0.015720  -0.005192
     20      -0.013098   0.277832  -0.294483  -0.165664  -0.511677   0.108298
     21      -0.015381  -0.230931   0.252617  -0.045038  -0.250942   0.058778
     22      -0.003416  -0.031109   0.037024  -0.007596  -0.032371   0.009736
     23      -0.028518  -0.487699   0.529937  -0.085697  -0.498427   0.119803
     24       0.000659  -0.000126  -0.000096   0.000840  -0.000136  -0.000027
     25       0.001433  -0.000001   0.000316   0.000240  -0.000066  -0.000007
     26      -0.000116   0.000083  -0.000159   0.001338  -0.000516   0.000141
     27      -0.704282  -0.008928  -0.005725  -0.169646   0.069086  -0.011590
     28      -0.010065  -0.000459   0.002396  -0.000236  -0.001098   0.001861
     29       0.656118   0.006743   0.005426   0.141189  -0.062225   0.009755
     30      -0.095163   0.018847  -0.019970   0.398690  -0.101059   0.012083
     31      -0.016899   0.002726  -0.000896   0.047645  -0.009819  -0.000772
     32      -0.237784   0.040869  -0.042026   0.843902  -0.216143   0.024602
     33      -0.006867  -0.000572   0.000307  -0.002982   0.000436   0.000219
     34       0.003796  -0.002235   0.001815   0.001357  -0.003063   0.000997
     35      -0.000847  -0.002109   0.001686  -0.013993   0.003400  -0.000081
     36       0.005173  -0.000630   0.001894  -0.002661   0.001119  -0.000002
     37      -0.001803  -0.001010   0.001313  -0.001321   0.000344  -0.000156
     38       0.007441  -0.000068   0.000978   0.001741  -0.001928   0.000282
                 36         37         38    
      0       0.075838  -0.000118   0.000063
      1      -0.052315  -0.000019   0.000015
      2       0.016096  -0.000077  -0.000060
      3       0.004213   0.000060  -0.000302
      4       0.000308  -0.000087   0.000167
      5       0.000180  -0.000154  -0.000188
      6      -0.516775   0.000109  -0.000166
      7       0.676985   0.000217  -0.000116
      8      -0.117112  -0.000022  -0.000042
      9      -0.143913   0.000173  -0.000095
     10      -0.038419  -0.000240  -0.000241
     11      -0.323403   0.000483  -0.000022
     12      -0.246724   0.000286  -0.000315
     13      -0.020867   0.000042  -0.000025
     14       0.248334  -0.000224   0.000283
     15      -0.000353  -0.001949   0.001110
     16       0.000366  -0.001247   0.000055
     17      -0.000180   0.002296   0.000914
     18      -0.028935   0.000401   0.000313
     19      -0.001261  -0.000145   0.000207
     20       0.025673  -0.000370  -0.000223
     21      -0.013958   0.000124   0.000116
     22      -0.002199   0.001444   0.001430
     23      -0.026346   0.001726   0.000892
     24      -0.000029  -0.001728   0.049267
     25      -0.000012   0.040681  -0.040534
     26       0.000008   0.043290   0.048154
     27       0.000378   0.003624  -0.000556
     28       0.000996  -0.003061   0.000799
     29      -0.000784  -0.006146  -0.000184
     30       0.000681  -0.002599  -0.004204
     31       0.001061   0.000505  -0.000616
     32       0.001955  -0.008840  -0.008423
     33      -0.000018  -0.312440  -0.216755
     34      -0.000330  -0.071383  -0.069245
     35      -0.000218  -0.724959  -0.557164
     36       0.000002   0.358237  -0.473325
     37      -0.000452  -0.476556   0.628237
     38      -0.000006   0.112192  -0.112202


-----------
IR SPECTRUM
-----------

 Mode   freq       eps      Int      T**2         TX        TY        TZ
       cm**-1   L/(mol*cm) km/mol    a.u.
----------------------------------------------------------------------------
  6:    137.45   0.000738    3.73  0.001675  (-0.028136 -0.013529 -0.026460)
  7:    222.67   0.000943    4.77  0.001322  (-0.019206  0.019067 -0.024278)
  8:    258.11   0.004765   24.08  0.005761  (-0.047721  0.031162 -0.050128)
  9:    300.72   0.009062   45.80  0.009404  ( 0.044422 -0.062250  0.059631)
 10:    466.40   0.002330   11.78  0.001559  (-0.002159  0.034815 -0.018500)
 11:    759.76   0.001694    8.56  0.000696  ( 0.015893 -0.000896 -0.021035)
 12:    863.32   0.015059   76.10  0.005443  ( 0.059203  0.036717 -0.024297)
 13:    889.50   0.001072    5.42  0.000376  ( 0.008360 -0.013156  0.011538)
 14:    929.16   0.026001  131.40  0.008733  (-0.073900 -0.032765  0.046882)
 15:   1048.19   0.000589    2.98  0.000175  (-0.007350  0.011009  0.000246)
 16:   1073.62   0.000655    3.31  0.000190  ( 0.009348  0.009656 -0.003109)
 17:   1131.88   0.004805   24.28  0.001325  ( 0.018449  0.031210 -0.003213)
 18:   1167.70   0.002866   14.48  0.000766  (-0.020457 -0.006544  0.017452)
 19:   1233.30   0.000249    1.26  0.000063  ( 0.002334  0.007314 -0.002000)
 20:   1285.53   0.000490    2.48  0.000119  (-0.003042  0.008991  0.005382)
 21:   1320.80   0.000906    4.58  0.000214  (-0.004110  0.011967  0.007349)
 22:   1347.09   0.000142    0.72  0.000033  ( 0.002837  0.000178  0.004970)
 23:   1400.51   0.001078    5.45  0.000240  ( 0.005211  0.014590 -0.000403)
 24:   1442.19   0.001454    7.35  0.000315  (-0.008265 -0.014641 -0.005648)
 25:   1456.04   0.000878    4.44  0.000188  ( 0.002352  0.010872 -0.008032)
 26:   1457.78   0.001611    8.14  0.000345  (-0.003083  0.004489  0.017752)
 27:   1475.30   0.001310    6.62  0.000277  (-0.012105  0.011416  0.000387)
 28:   1493.38   0.001070    5.41  0.000224  ( 0.006760 -0.013051  0.002755)
 29:   1625.59   0.008505   42.98  0.001633  ( 0.001558 -0.032131 -0.024451)
 30:   2991.16   0.024548  124.05  0.002561  ( 0.046748  0.007869 -0.017713)
 31:   3053.74   0.014082   71.17  0.001439  ( 0.032133  0.018786  0.007323)
 32:   3058.30   0.002552   12.90  0.000260  (-0.010615  0.011046 -0.005071)
 33:   3083.59   0.009145   46.22  0.000925  (-0.012463 -0.001488 -0.027712)
 34:   3112.17   0.011397   57.60  0.001143  (-0.007340  0.001266  0.032975)
 35:   3147.91   0.012123   61.27  0.001202  ( 0.006623 -0.001269 -0.034006)
 36:   3159.67   0.007253   36.65  0.000716  ( 0.022106 -0.014425  0.004424)
 37:   3543.22   0.000581    2.94  0.000051  ( 0.002895 -0.003778 -0.005339)
 38:   3618.84   0.001464    7.40  0.000126  (-0.007258  0.005845 -0.006278)

* The epsilon (eps) is given for a Dirac delta lineshape.
** The dipole moment derivative (T) already includes vibrational overlap.

The first frequency considered to be a vibration is 6
The total number of vibrations considered is 33


--------------------------
THERMOCHEMISTRY AT 298.15K
--------------------------

Temperature         ... 298.15 K
Pressure            ... 1.00 atm
Total Mass          ... 59.11 AMU

Throughout the following assumptions are being made:
  (1) The electronic state is orbitally nondegenerate
  (2) There are no thermally accessible electronically excited states
  (3) Hindered rotations indicated by low frequency modes are not
      treated as such but are treated as vibrations and this may
      cause some error
  (4) All equations used are the standard statistical mechanics
      equations for an ideal gas
  (5) All vibrations are strictly harmonic

freq.     137.45  E(vib)   ...       0.42 
freq.     222.67  E(vib)   ...       0.33 
freq.     258.11  E(vib)   ...       0.30 
freq.     300.72  E(vib)   ...       0.26 
freq.     466.40  E(vib)   ...       0.16 
freq.     759.76  E(vib)   ...       0.06 
freq.     863.32  E(vib)   ...       0.04 
freq.     889.50  E(vib)   ...       0.04 
freq.     929.16  E(vib)   ...       0.03 
freq.    1048.19  E(vib)   ...       0.02 
freq.    1073.62  E(vib)   ...       0.02 
freq.    1131.88  E(vib)   ...       0.01 
freq.    1167.70  E(vib)   ...       0.01 
freq.    1233.30  E(vib)   ...       0.01 
freq.    1285.53  E(vib)   ...       0.01 
freq.    1320.80  E(vib)   ...       0.01 
freq.    1347.09  E(vib)   ...       0.01 
freq.    1400.51  E(vib)   ...       0.00 
freq.    1442.19  E(vib)   ...       0.00 
freq.    1456.04  E(vib)   ...       0.00 
freq.    1457.78  E(vib)   ...       0.00 
freq.    1475.30  E(vib)   ...       0.00 
freq.    1493.38  E(vib)   ...       0.00 
freq.    1625.59  E(vib)   ...       0.00 
freq.    2991.16  E(vib)   ...       0.00 
freq.    3053.74  E(vib)   ...       0.00 
freq.    3058.30  E(vib)   ...       0.00 
freq.    3083.59  E(vib)   ...       0.00 
freq.    3112.17  E(vib)   ...       0.00 
freq.    3147.91  E(vib)   ...       0.00 
freq.    3159.67  E(vib)   ...       0.00 
freq.    3543.22  E(vib)   ...       0.00 
freq.    3618.84  E(vib)   ...       0.00 

------------
INNER ENERGY
------------

The inner energy is: U= E(el) + E(ZPE) + E(vib) + E(rot) + E(trans)
    E(el)   - is the total energy from the electronic structure calculation
              = E(kin-el) + E(nuc-el) + E(el-el) + E(nuc-nuc)
    E(ZPE)  - the the zero temperature vibrational energy from the frequency calculation
    E(vib)  - the the finite temperature correction to E(ZPE) due to population
              of excited vibrational states
    E(rot)  - is the rotational thermal energy
    E(trans)- is the translational thermal energy

Summary of contributions to the inner energy U:
Electronic energy                ...   -174.31955641 Eh
Zero point energy                ...      0.12200635 Eh      76.56 kcal/mol
Thermal vibrational correction   ...      0.00277774 Eh       1.74 kcal/mol
Thermal rotational correction    ...      0.00141627 Eh       0.89 kcal/mol
Thermal translational correction ...      0.00141627 Eh       0.89 kcal/mol
-----------------------------------------------------------------------
Total thermal energy                   -174.19193978 Eh


Summary of corrections to the electronic energy:
(perhaps to be used in another calculation)
Total thermal correction                  0.00561028 Eh       3.52 kcal/mol
Non-thermal (ZPE) correction              0.12200635 Eh      76.56 kcal/mol
-----------------------------------------------------------------------
Total correction                          0.12761663 Eh      80.08 kcal/mol


--------
ENTHALPY
--------

The enthalpy is H = U + kB*T
                kB is Boltzmann's constant
Total free energy                 ...   -174.19193978 Eh 
Thermal Enthalpy correction       ...      0.00094421 Eh       0.59 kcal/mol
-----------------------------------------------------------------------
Total Enthalpy                    ...   -174.19099557 Eh


Note: Only C1 symmetry has been detected, increase convergence thresholds 
      if your molecule has a higher symmetry. Symmetry factor of 1.0 is   
      used for the rotational entropy correction. 
 

Note: Rotational entropy computed according to Herzberg 
Infrared and Raman Spectra, Chapter V,1, Van Nostrand Reinhold, 1945 
Point Group:  C1, Symmetry Number:   1  
Rotational constants in cm-1:     0.841993     0.124326     0.116442 

Vibrational entropy computed according to the QRRHO of S. Grimme
Chem.Eur.J. 2012 18 9955


-------
ENTROPY
-------

The entropy contributions are T*S = T*(S(el)+S(vib)+S(rot)+S(trans))
     S(el)   - electronic entropy
     S(vib)  - vibrational entropy
     S(rot)  - rotational entropy
     S(trans)- translational entropy
The entropies will be listed as multiplied by the temperature to get
units of energy

Electronic entropy                ...      0.00000000 Eh      0.00 kcal/mol
Vibrational entropy               ...      0.00460423 Eh      2.89 kcal/mol
Rotational entropy                ...      0.01159140 Eh      7.27 kcal/mol
Translational entropy             ...      0.01812666 Eh     11.37 kcal/mol
-----------------------------------------------------------------------
Final entropy term                ...      0.03432229 Eh     21.54 kcal/mol

In case the symmetry of your molecule has not been determined correctly
or in case you have a reason to use a different symmetry number we print 
out the resulting rotational entropy values for sn=1,12 :
 --------------------------------------------------------
|  sn= 1 | S(rot)=       0.01159140 Eh      7.27 kcal/mol|
|  sn= 2 | S(rot)=       0.01093695 Eh      6.86 kcal/mol|
|  sn= 3 | S(rot)=       0.01055412 Eh      6.62 kcal/mol|
|  sn= 4 | S(rot)=       0.01028249 Eh      6.45 kcal/mol|
|  sn= 5 | S(rot)=       0.01007180 Eh      6.32 kcal/mol|
|  sn= 6 | S(rot)=       0.00989966 Eh      6.21 kcal/mol|
|  sn= 7 | S(rot)=       0.00975411 Eh      6.12 kcal/mol|
|  sn= 8 | S(rot)=       0.00962804 Eh      6.04 kcal/mol|
|  sn= 9 | S(rot)=       0.00951683 Eh      5.97 kcal/mol|
|  sn=10 | S(rot)=       0.00941735 Eh      5.91 kcal/mol|
|  sn=11 | S(rot)=       0.00932736 Eh      5.85 kcal/mol|
|  sn=12 | S(rot)=       0.00924520 Eh      5.80 kcal/mol|
 --------------------------------------------------------


-------------------
GIBBS FREE ENERGY
-------------------

The Gibbs free energy is G = H - T*S

Total enthalpy                    ...   -174.19099557 Eh 
Total entropy correction          ...     -0.03432229 Eh    -21.54 kcal/mol
-----------------------------------------------------------------------
Final Gibbs free energy         ...   -174.22531787 Eh

For completeness - the Gibbs free energy minus the electronic energy
G-E(el)                           ...      0.09423854 Eh     59.14 kcal/mol


Timings for individual modules:

Sum of individual times         ...      434.748 sec (=   7.246 min)
GTO integral calculation        ...        1.007 sec (=   0.017 min)   0.2 %
SCF iterations                  ...      218.459 sec (=   3.641 min)  50.2 %
SCF Gradient evaluation         ...       56.109 sec (=   0.935 min)  12.9 %
Geometry relaxation             ...        0.196 sec (=   0.003 min)   0.0 %
Analytical frequency calculation...      158.977 sec (=   2.650 min)  36.6 %
                             ****ORCA TERMINATED NORMALLY****
TOTAL RUN TIME: 0 days 0 hours 7 minutes 15 seconds 420 msec
