
                                 *****************
                                 * O   R   C   A *
                                 *****************

                                            #,                                       
                                            ###                                      
                                            ####                                     
                                            #####                                    
                                            ######                                   
                                           ########,                                 
                                     ,,################,,,,,                         
                               ,,#################################,,                 
                          ,,##########################################,,             
                       ,#########################################, ''#####,          
                    ,#############################################,,   '####,        
                  ,##################################################,,,,####,       
                ,###########''''           ''''###############################       
              ,#####''   ,,,,##########,,,,          '''####'''          '####       
            ,##' ,,,,###########################,,,                        '##       
           ' ,,###''''                  '''############,,,                           
         ,,##''                                '''############,,,,        ,,,,,,###''
      ,#''                                            '''#######################'''  
     '                                                          ''''####''''         
             ,#######,   #######,   ,#######,      ##                                
            ,#'     '#,  ##    ##  ,#'     '#,    #''#        ######   ,####,        
            ##       ##  ##   ,#'  ##            #'  '#       #        #'  '#        
            ##       ##  #######   ##           ,######,      #####,   #    #        
            '#,     ,#'  ##    ##  '#,     ,#' ,#      #,         ##   #,  ,#        
             '#######'   ##     ##  '#######'  #'      '#     #####' # '####'        



                  #######################################################
                  #                        -***-                        #
                  #          Department of theory and spectroscopy      #
                  #    Directorship and core code : Frank Neese         #
                  #        Max Planck Institute fuer Kohlenforschung    #
                  #                Kaiser Wilhelm Platz 1               #
                  #                 D-45470 Muelheim/Ruhr               #
                  #                      Germany                        #
                  #                                                     #
                  #                  All rights reserved                #
                  #                        -***-                        #
                  #######################################################


                         Program Version 5.0.3 -  RELEASE  -


 With contributions from (in alphabetic order):
   Daniel Aravena         : Magnetic Suceptibility
   Michael Atanasov       : Ab Initio Ligand Field Theory (pilot matlab implementation)
   Alexander A. Auer      : GIAO ZORA, VPT2 properties, NMR spectrum
   Ute Becker             : Parallelization
   Giovanni Bistoni       : ED, misc. LED, open-shell LED, HFLD
   Martin Brehm           : Molecular dynamics
   Dmytro Bykov           : SCF Hessian
   Vijay G. Chilkuri      : MRCI spin determinant printing, contributions to CSF-ICE
   Dipayan Datta          : RHF DLPNO-CCSD density
   Achintya Kumar Dutta   : EOM-CC, STEOM-CC
   Dmitry Ganyushin       : Spin-Orbit,Spin-Spin,Magnetic field MRCI
   Miquel Garcia          : C-PCM and meta-GGA Hessian, CC/C-PCM, Gaussian charge scheme
   Yang Guo               : DLPNO-NEVPT2, F12-NEVPT2, CIM, IAO-localization
   Andreas Hansen         : Spin unrestricted coupled pair/coupled cluster methods
   Benjamin Helmich-Paris : MC-RPA, TRAH-SCF, COSX integrals
   Lee Huntington         : MR-EOM, pCC
   Robert Izsak           : Overlap fitted RIJCOSX, COSX-SCS-MP3, EOM
   Marcus Kettner         : VPT2
   Christian Kollmar      : KDIIS, OOCD, Brueckner-CCSD(T), CCSD density, CASPT2, CASPT2-K
   Simone Kossmann        : Meta GGA functionals, TD-DFT gradient, OOMP2, MP2 Hessian
   Martin Krupicka        : Initial AUTO-CI
   Lucas Lang             : DCDCAS
   Marvin Lechner         : AUTO-CI (C++ implementation), FIC-MRCC
   Dagmar Lenk            : GEPOL surface, SMD
   Dimitrios Liakos       : Extrapolation schemes; Compound Job, initial MDCI parallelization
   Dimitrios Manganas     : Further ROCIS development; embedding schemes
   Dimitrios Pantazis     : SARC Basis sets
   Anastasios Papadopoulos: AUTO-CI, single reference methods and gradients
   Taras Petrenko         : DFT Hessian,TD-DFT gradient, ASA, ECA, R-Raman, ABS, FL, XAS/XES, NRVS
   Peter Pinski           : DLPNO-MP2, DLPNO-MP2 Gradient
   Christoph Reimann      : Effective Core Potentials
   Marius Retegan         : Local ZFS, SOC
   Christoph Riplinger    : Optimizer, TS searches, QM/MM, DLPNO-CCSD(T), (RO)-DLPNO pert. Triples
   Tobias Risthaus        : Range-separated hybrids, TD-DFT gradient, RPA, STAB
   Michael Roemelt        : Original ROCIS implementation
   Masaaki Saitow         : Open-shell DLPNO-CCSD energy and density
   Barbara Sandhoefer     : DKH picture change effects
   Avijit Sen             : IP-ROCIS
   Kantharuban Sivalingam : CASSCF convergence, NEVPT2, FIC-MRCI
   Bernardo de Souza      : ESD, SOC TD-DFT
   Georgi Stoychev        : AutoAux, RI-MP2 NMR, DLPNO-MP2 response
   Willem Van den Heuvel  : Paramagnetic NMR
   Boris Wezisla          : Elementary symmetry handling
   Frank Wennmohs         : Technical directorship


 We gratefully acknowledge several colleagues who have allowed us to
 interface, adapt or use parts of their codes:
   Stefan Grimme, W. Hujo, H. Kruse, P. Pracht,  : VdW corrections, initial TS optimization,
                  C. Bannwarth, S. Ehlert          DFT functionals, gCP, sTDA/sTD-DF
   Ed Valeev, F. Pavosevic, A. Kumar             : LibInt (2-el integral package), F12 methods
   Garnet Chan, S. Sharma, J. Yang, R. Olivares  : DMRG
   Ulf Ekstrom                                   : XCFun DFT Library
   Mihaly Kallay                                 : mrcc  (arbitrary order and MRCC methods)
   Jiri Pittner, Ondrej Demel                    : Mk-CCSD
   Frank Weinhold                                : gennbo (NPA and NBO analysis)
   Christopher J. Cramer and Donald G. Truhlar   : smd solvation model
   Lars Goerigk                                  : TD-DFT with DH, B97 family of functionals
   V. Asgeirsson, H. Jonsson                     : NEB implementation
   FAccTs GmbH                                   : IRC, NEB, NEB-TS, DLPNO-Multilevel, CI-OPT
                                                   MM, QMMM, 2- and 3-layer-ONIOM, Crystal-QMMM,
                                                   LR-CPCM, SF, NACMEs, symmetry and pop. for TD-DFT,
                                                   nearIR, NL-DFT gradient (VV10), updates on ESD,
                                                   ML-optimized integration grids
   S Lehtola, MJT Oliveira, MAL Marques          : LibXC Library
   Liviu Ungur et al                             : ANISO software


 Your calculation uses the libint2 library for the computation of 2-el integrals
 For citations please refer to: http://libint.valeyev.net

 Your ORCA version has been built with support for libXC version: 5.1.0
 For citations please refer to: https://tddft.org/programs/libxc/

 This ORCA versions uses:
   CBLAS   interface :  Fast vector & matrix operations
   LAPACKE interface :  Fast linear algebra routines
   SCALAPACK package :  Parallel linear algebra routines
   Shared memory     :  Shared parallel matrices
   BLAS/LAPACK       :  OpenBLAS 0.3.15  USE64BITINT DYNAMIC_ARCH NO_AFFINITY SkylakeX SINGLE_THREADED
        Core in use  :  SkylakeX
   Copyright (c) 2011-2014, The OpenBLAS Project




***************************************
The coordinates will be read from file: PhH+.xyz
***************************************


Your calculation utilizes the atom-pairwise dispersion correction
based on tight binding partial charges (D4)
Cite in your paper:
E.Caldeweyher, C.Bannwarth, S.Grimme, J.Chem.Phys., (2017), 147, 034112.
E.Caldeweyher, S.Ehlert, A.Hansen, H.Neugebauer, S.Grimme, J.Chem.Phys., (2018), in progress.
   

XCFun DFT library Copyright 2009-2010 Ulf Ekstrom and contributors.
See http://admol.org/xcfun for more information.
This is free software; see the source code for copying conditions.
There is ABSOLUTELY NO WARRANTY; not even for MERCHANTABILITY or FITNESS FOR A PARTICULAR PURPOSE.
For details see the documentation.
Scientific users of this library should cite U. Ekstrom, L. Visscher, R. Bast, A. J. Thorvaldsen and K. Ruud;
J.Chem.Theor.Comp. 2010, DOI: 10.1021/ct100117s
XCFun Version 0.99 

================================================================================

----- Orbital basis set information -----
Your calculation utilizes the basis: def2-SVP
   F. Weigend and R. Ahlrichs, Phys. Chem. Chem. Phys. 7, 3297 (2005).

----- AuxJ basis set information -----
Your calculation utilizes the auxiliary basis: def2/J
   F. Weigend, Phys. Chem. Chem. Phys. 8, 1057 (2006).

================================================================================
                                        WARNINGS
                       Please study these warnings very carefully!
================================================================================


WARNING: Geometry Optimization
  ===> : Switching off AutoStart
         For restart on a previous wavefunction, please use MOREAD

INFO   : the flag for use of the SHARK integral package has been found!

================================================================================
                                       INPUT FILE
================================================================================
NAME = PhH+_Gas.inp
|  1> # ORCAForces - ../2023_02/pKa_prediction/Yates_carbene_xyzs/Our_level/Gas/PhH+_Gas.inp
|  2> # Basic Mode
|  3> #
|  4> ! Opt FREQ wB97X D4 Def2-SVP SlowConv TightSCF DEFGRID2 Def2/J RIJCOSX
|  5> 
|  6> %maxcore 4500
|  7> 
|  8> %PAL NPROCS 4 END
|  9> 
| 10> %geom 
| 11> Maxiter 150
| 12> END
| 13> 
| 14> * xyzfile 1 1 PhH+.xyz
| 15> 
| 16>                          ****END OF INPUT****
================================================================================

                       *****************************
                       * Geometry Optimization Run *
                       *****************************

Geometry optimization settings:
Update method            Update   .... BFGS
Choice of coordinates    CoordSys .... Z-matrix Internals
Initial Hessian          InHess   .... Almoef's Model

Convergence Tolerances:
Energy Change            TolE     ....  5.0000e-06 Eh
Max. Gradient            TolMAXG  ....  3.0000e-04 Eh/bohr
RMS Gradient             TolRMSG  ....  1.0000e-04 Eh/bohr
Max. Displacement        TolMAXD  ....  4.0000e-03 bohr
RMS Displacement         TolRMSD  ....  2.0000e-03 bohr
Strict Convergence                ....  False
------------------------------------------------------------------------------
                        ORCA OPTIMIZATION COORDINATE SETUP
------------------------------------------------------------------------------

The optimization will be done in new redundant internal coordinates
Making redundant internal coordinates   ...  (new redundants) done
Evaluating the initial hessian          ...  (Almloef) done
Evaluating the coordinates              ...  done
Calculating the B-matrix                .... done
Calculating the G-matrix                .... done
Diagonalizing the G-matrix              .... done
Small eigenvalue found = 5.780e-03
Small eigenvalue found = 1.065e-02
The first mode is                       ....   75
The number of degrees of freedom        ....   84

    -----------------------------------------------------------------
                    Redundant Internal Coordinates


    -----------------------------------------------------------------
         Definition                    Initial Value    Approx d2E/dq
    -----------------------------------------------------------------
      1. B(C   1,C   0)                  1.3593         0.699364   
      2. B(H   2,C   0)                  1.0760         0.379122   
      3. B(H   3,C   1)                  1.0760         0.379122   
      4. B(C   5,C   4)                  1.3927         0.618586   
      5. B(C   6,C   4)                  1.3927         0.618662   
      6. B(C   7,C   5)                  1.3923         0.619636   
      7. B(H   8,C   5)                  1.0837         0.368549   
      8. B(C   9,C   6)                  1.3918         0.620707   
      9. B(H  10,C   6)                  1.0835         0.368780   
     10. B(C  11,C   9)                  1.3939         0.615825   
     11. B(C  11,C   7)                  1.3934         0.616938   
     12. B(H  12,C   7)                  1.0829         0.369576   
     13. B(H  13,C   9)                  1.0829         0.369578   
     14. B(H  14,C  11)                  1.0831         0.369358   
     15. B(C  16,C  15)                  1.3927         0.618586   
     16. B(C  17,C  15)                  1.3927         0.618662   
     17. B(C  18,C  16)                  1.3923         0.619636   
     18. B(H  19,C  16)                  1.0837         0.368549   
     19. B(C  20,C  17)                  1.3918         0.620707   
     20. B(H  21,C  17)                  1.0835         0.368780   
     21. B(C  22,C  20)                  1.3939         0.615825   
     22. B(C  22,C  18)                  1.3934         0.616938   
     23. B(H  23,C  18)                  1.0829         0.369576   
     24. B(H  24,C  20)                  1.0829         0.369578   
     25. B(H  25,C  22)                  1.0831         0.369358   
     26. B(H  27,C  26)                  1.0764         0.378520   
     27. B(N  28,C  26)                  1.3392         0.674359   
     28. B(N  28,C   4)                  1.4455         0.456453   
     29. B(N  28,C   0)                  1.3859         0.568012   
     30. B(N  29,C  15)                  1.4455         0.456453   
     31. B(N  29,C   1)                  1.3859         0.568012   
     32. B(N  29,C  26)                  1.3392         0.674359   
     33. A(C   1,C   0,N  28)          107.1715         0.433783   
     34. A(C   1,C   0,H   2)          131.0927         0.363381   
     35. A(H   2,C   0,N  28)          121.7294         0.348607   
     36. A(C   0,C   1,N  29)          107.1715         0.433783   
     37. A(H   3,C   1,N  29)          121.7294         0.348607   
     38. A(C   0,C   1,H   3)          131.0927         0.363381   
     39. A(C   5,C   4,N  28)          119.2504         0.408145   
     40. A(C   5,C   4,C   6)          121.8026         0.433719   
     41. A(C   6,C   4,N  28)          118.9467         0.408154   
     42. A(C   4,C   5,H   8)          120.5822         0.354161   
     43. A(C   4,C   5,C   7)          118.7675         0.433842   
     44. A(C   7,C   5,H   8)          120.6324         0.354263   
     45. A(C   4,C   6,H  10)          120.5661         0.354206   
     46. A(C   9,C   6,H  10)          120.6834         0.354404   
     47. A(C   4,C   6,C   9)          118.7398         0.433986   
     48. A(C  11,C   7,H  12)          120.2514         0.354168   
     49. A(C   5,C   7,H  12)          119.5515         0.354430   
     50. A(C   5,C   7,C  11)          120.1919         0.433634   
     51. A(C   6,C   9,H  13)          119.5448         0.354534   
     52. A(C   6,C   9,C  11)          120.2322         0.433628   
     53. A(C  11,C   9,H  13)          120.2203         0.354060   
     54. A(C   7,C  11,C   9)          120.2622         0.433153   
     55. A(C   9,C  11,H  14)          119.8686         0.354024   
     56. A(C   7,C  11,H  14)          119.8690         0.354132   
     57. A(C  17,C  15,N  29)          118.9467         0.408154   
     58. A(C  16,C  15,N  29)          119.2504         0.408145   
     59. A(C  16,C  15,C  17)          121.8026         0.433719   
     60. A(C  18,C  16,H  19)          120.6324         0.354263   
     61. A(C  15,C  16,H  19)          120.5822         0.354161   
     62. A(C  15,C  16,C  18)          118.7675         0.433842   
     63. A(C  20,C  17,H  21)          120.6834         0.354404   
     64. A(C  15,C  17,H  21)          120.5661         0.354206   
     65. A(C  15,C  17,C  20)          118.7398         0.433986   
     66. A(C  22,C  18,H  23)          120.2514         0.354168   
     67. A(C  16,C  18,H  23)          119.5515         0.354430   
     68. A(C  16,C  18,C  22)          120.1919         0.433634   
     69. A(C  17,C  20,H  24)          119.5448         0.354534   
     70. A(C  17,C  20,C  22)          120.2322         0.433628   
     71. A(C  22,C  20,H  24)          120.2203         0.354060   
     72. A(C  18,C  22,C  20)          120.2622         0.433153   
     73. A(C  20,C  22,H  25)          119.8686         0.354024   
     74. A(C  18,C  22,H  25)          119.8690         0.354132   
     75. A(N  28,C  26,N  29)          108.7865         0.441572   
     76. A(H  27,C  26,N  29)          125.6067         0.358793   
     77. A(H  27,C  26,N  28)          125.6067         0.358793   
     78. A(C   4,N  28,C  26)          125.4442         0.411764   
     79. A(C   0,N  28,C  26)          108.4352         0.428139   
     80. A(C   0,N  28,C   4)          126.1160         0.399467   
     81. A(C  15,N  29,C  26)          125.4442         0.411764   
     82. A(C   1,N  29,C  26)          108.4352         0.428139   
     83. A(C   1,N  29,C  15)          126.1160         0.399467   
     84. D(H   3,C   1,C   0,N  28)   -179.0180         0.034443   
     85. D(H   3,C   1,C   0,H   2)      1.9167         0.034443   
     86. D(N  29,C   1,C   0,H   2)   -179.0180         0.034443   
     87. D(N  29,C   1,C   0,N  28)      0.0474         0.034443   
     88. D(C   7,C   5,C   4,C   6)     -0.5382         0.026471   
     89. D(C   7,C   5,C   4,N  28)    179.6580         0.026471   
     90. D(H   8,C   5,C   4,N  28)     -1.8695         0.026471   
     91. D(H   8,C   5,C   4,C   6)    177.9343         0.026471   
     92. D(H  10,C   6,C   4,C   5)    178.8242         0.026478   
     93. D(H  10,C   6,C   4,N  28)     -1.3715         0.026478   
     94. D(C   9,C   6,C   4,N  28)    179.8131         0.026478   
     95. D(C   9,C   6,C   4,C   5)      0.0087         0.026478   
     96. D(H  12,C   7,C   5,C   4)    179.8081         0.026566   
     97. D(C  11,C   7,C   5,H   8)   -177.8284         0.026566   
     98. D(C  11,C   7,C   5,C   4)      0.6433         0.026566   
     99. D(H  12,C   7,C   5,H   8)      1.3364         0.026566   
    100. D(H  13,C   9,C   6,H  10)      1.0015         0.026664   
    101. D(C  11,C   9,C   6,C   4)      0.4181         0.026664   
    102. D(C  11,C   9,C   6,H  10)   -178.3960         0.026664   
    103. D(H  13,C   9,C   6,C   4)    179.8156         0.026664   
    104. D(H  14,C  11,C   9,H  13)      0.4382         0.026221   
    105. D(C   7,C  11,C   9,H  13)   -179.7046         0.026221   
    106. D(C   7,C  11,C   9,C   6)     -0.3113         0.026221   
    107. D(H  14,C  11,C   7,H  12)      0.4687         0.026322   
    108. D(H  14,C  11,C   7,C   5)    179.6276         0.026322   
    109. D(H  14,C  11,C   9,C   6)    179.8316         0.026221   
    110. D(C   9,C  11,C   7,H  12)   -179.3885         0.026322   
    111. D(C   9,C  11,C   7,C   5)     -0.2296         0.026322   
    112. D(C  18,C  16,C  15,C  17)     -0.5382         0.026471   
    113. D(C  18,C  16,C  15,N  29)    179.6580         0.026471   
    114. D(H  19,C  16,C  15,C  17)    177.9343         0.026471   
    115. D(H  19,C  16,C  15,N  29)     -1.8695         0.026471   
    116. D(H  21,C  17,C  15,N  29)     -1.3715         0.026478   
    117. D(H  21,C  17,C  15,C  16)    178.8242         0.026478   
    118. D(C  20,C  17,C  15,N  29)    179.8131         0.026478   
    119. D(C  20,C  17,C  15,C  16)      0.0087         0.026478   
    120. D(H  23,C  18,C  16,H  19)      1.3364         0.026566   
    121. D(H  23,C  18,C  16,C  15)    179.8081         0.026566   
    122. D(C  22,C  18,C  16,H  19)   -177.8284         0.026566   
    123. D(C  22,C  18,C  16,C  15)      0.6433         0.026566   
    124. D(H  24,C  20,C  17,H  21)      1.0015         0.026664   
    125. D(H  24,C  20,C  17,C  15)    179.8156         0.026664   
    126. D(C  22,C  20,C  17,H  21)   -178.3960         0.026664   
    127. D(C  22,C  20,C  17,C  15)      0.4181         0.026664   
    128. D(H  25,C  22,C  20,H  24)      0.4382         0.026221   
    129. D(H  25,C  22,C  20,C  17)    179.8316         0.026221   
    130. D(C  18,C  22,C  20,H  24)   -179.7046         0.026221   
    131. D(C  18,C  22,C  20,C  17)     -0.3113         0.026221   
    132. D(H  25,C  22,C  18,H  23)      0.4687         0.026322   
    133. D(H  25,C  22,C  18,C  16)    179.6276         0.026322   
    134. D(C  20,C  22,C  18,H  23)   -179.3885         0.026322   
    135. D(C  20,C  22,C  18,C  16)     -0.2296         0.026322   
    136. D(C   0,N  28,C  26,N  29)      0.0149         0.037361   
    137. D(C   0,N  28,C  26,H  27)   -179.9851         0.037361   
    138. D(C  26,N  28,C   4,C   6)    126.5135         0.016411   
    139. D(C  26,N  28,C   4,C   5)    -53.6771         0.016411   
    140. D(C   0,N  28,C   4,C   6)    -54.3619         0.016411   
    141. D(C   0,N  28,C   4,C   5)    125.4476         0.016411   
    142. D(C  26,N  28,C   0,H   2)    179.1326         0.025810   
    143. D(C  26,N  28,C   0,C   1)     -0.0392         0.025810   
    144. D(C   4,N  28,C   0,H   2)     -0.1157         0.025810   
    145. D(C   4,N  28,C  26,H  27)     -0.7305         0.037361   
    146. D(C   4,N  28,C   0,C   1)   -179.2875         0.025810   
    147. D(C   4,N  28,C  26,N  29)    179.2695         0.037361   
    148. D(C  15,N  29,C  26,N  28)    179.2695         0.037361   
    149. D(C   1,N  29,C  26,N  28)      0.0149         0.037361   
    150. D(C   1,N  29,C  26,H  27)   -179.9851         0.037361   
    151. D(C  26,N  29,C  15,C  17)    126.5135         0.016411   
    152. D(C  26,N  29,C  15,C  16)    -53.6771         0.016411   
    153. D(C   1,N  29,C  15,C  17)    -54.3619         0.016411   
    154. D(C   1,N  29,C  15,C  16)    125.4476         0.016411   
    155. D(C  26,N  29,C   1,H   3)    179.1326         0.025810   
    156. D(C  26,N  29,C   1,C   0)     -0.0392         0.025810   
    157. D(C  15,N  29,C  26,H  27)     -0.7305         0.037361   
    158. D(C  15,N  29,C   1,H   3)     -0.1157         0.025810   
    159. D(C  15,N  29,C   1,C   0)   -179.2875         0.025810   
    -----------------------------------------------------------------

Number of atoms                         .... 30
Number of degrees of freedom            .... 159

         *************************************************************
         *                GEOMETRY OPTIMIZATION CYCLE   1            *
         *************************************************************
---------------------------------
CARTESIAN COORDINATES (ANGSTROEM)
---------------------------------
  C      0.003813    0.679644   -1.861372
  C     -0.003813   -0.679644   -1.861372
  H     -0.005782    1.386933   -2.672174
  H      0.005782   -1.386933   -2.672174
  C      0.000000    2.455944   -0.067910
  C     -0.988856    2.864596    0.823625
  C      0.983131    3.330214   -0.524724
  C     -0.981498    4.181716    1.274759
  H     -1.763977    2.176727    1.140487
  C      0.970318    4.646633   -0.073117
  H      1.754283    2.986048   -1.203607
  C     -0.006673    5.070646    0.826195
  H     -1.746294    4.513884    1.965764
  H      1.730432    5.336775   -0.417593
  H     -0.009472    6.095721    1.175905
  C      0.000000   -2.455944   -0.067910
  C      0.988856   -2.864596    0.823625
  C     -0.983131   -3.330214   -0.524724
  C      0.981498   -4.181716    1.274759
  H      1.763977   -2.176727    1.140487
  C     -0.970318   -4.646633   -0.073117
  H     -1.754283   -2.986048   -1.203607
  C      0.006673   -5.070646    0.826195
  H      1.746294   -4.513884    1.965764
  H     -1.730432   -5.336775   -0.417593
  H      0.009472   -6.095721    1.175905
  C      0.000000    0.000000    0.242506
  H      0.000000    0.000000    1.318926
  N      0.006656    1.088809   -0.537213
  N     -0.006656   -1.088809   -0.537213

----------------------------
CARTESIAN COORDINATES (A.U.)
----------------------------
  NO LB      ZA    FRAG     MASS         X           Y           Z
   0 C     6.0000    0    12.011    0.007206    1.284341   -3.517483
   1 C     6.0000    0    12.011   -0.007206   -1.284341   -3.517483
   2 H     1.0000    0     1.008   -0.010926    2.620924   -5.049677
   3 H     1.0000    0     1.008    0.010926   -2.620924   -5.049677
   4 C     6.0000    0    12.011    0.000000    4.641062   -0.128331
   5 C     6.0000    0    12.011   -1.868667    5.413302    1.556426
   6 C     6.0000    0    12.011    1.857848    6.293192   -0.991585
   7 C     6.0000    0    12.011   -1.854762    7.902298    2.408945
   8 H     1.0000    0     1.008   -3.333433    4.113418    2.155208
   9 C     6.0000    0    12.011    1.833635    8.780864   -0.138171
  10 H     1.0000    0     1.008    3.315114    5.642813   -2.274488
  11 C     6.0000    0    12.011   -0.012610    9.582132    1.561282
  12 H     1.0000    0     1.008   -3.300017    8.530005    3.714756
  13 H     1.0000    0     1.008    3.270043   10.085043   -0.789136
  14 H     1.0000    0     1.008   -0.017899   11.519243    2.222138
  15 C     6.0000    0    12.011    0.000000   -4.641062   -0.128331
  16 C     6.0000    0    12.011    1.868667   -5.413302    1.556426
  17 C     6.0000    0    12.011   -1.857848   -6.293192   -0.991585
  18 C     6.0000    0    12.011    1.854762   -7.902298    2.408945
  19 H     1.0000    0     1.008    3.333433   -4.113418    2.155208
  20 C     6.0000    0    12.011   -1.833635   -8.780864   -0.138171
  21 H     1.0000    0     1.008   -3.315114   -5.642813   -2.274488
  22 C     6.0000    0    12.011    0.012610   -9.582132    1.561282
  23 H     1.0000    0     1.008    3.300017   -8.530005    3.714756
  24 H     1.0000    0     1.008   -3.270043  -10.085043   -0.789136
  25 H     1.0000    0     1.008    0.017899  -11.519243    2.222138
  26 C     6.0000    0    12.011    0.000000    0.000000    0.458270
  27 H     1.0000    0     1.008    0.000000    0.000000    2.492409
  28 N     7.0000    0    14.007    0.012578    2.057551   -1.015185
  29 N     7.0000    0    14.007   -0.012578   -2.057551   -1.015185

--------------------------------
INTERNAL COORDINATES (ANGSTROEM)
--------------------------------
 C      0   0   0     0.000000000000     0.00000000     0.00000000
 C      1   0   0     1.359309391868     0.00000000     0.00000000
 H      1   2   0     1.075987767937   131.09267372     0.00000000
 H      2   1   3     1.075987767937   131.09267372     1.91667876
 C      1   2   3     2.524234968146   134.72290556   178.60149223
 C      5   1   2     1.392719390999   131.48082371   289.38314134
 C      5   1   2     1.392685760198   101.98387257   134.32046285
 C      6   5   1     1.392257562565   118.76754933   208.49364448
 H      6   5   1     1.083687156354   120.58216393    26.96612046
 C      7   5   1     1.391787354081   118.73978675   158.18990129
 H      7   5   1     1.083516391361   120.56605196   337.00538357
 C      8   6   5     1.393445365854   120.19185207     0.64332091
 H      8   6   5     1.082929550740   119.55146007   179.80811428
 H     10   7   5     1.082927969782   119.54479867   179.81555320
 H     12   8   6     1.083089873522   119.86904908   179.62758820
 C      2   1   3     2.524234968146   134.72290556   180.51817099
 C     16   2   1     1.392719390999   131.48082371   289.38314134
 C     16   2   1     1.392685760198   101.98387257   134.32046285
 C     17  16   2     1.392257562565   118.76754933   208.49364448
 H     17  16   2     1.083687156354   120.58216393    26.96612046
 C     18  16   2     1.391787354081   118.73978675   158.18990129
 H     18  16   2     1.083516391361   120.56605196   337.00538357
 C     19  17  16     1.393445365854   120.19185207     0.64332091
 H     19  17  16     1.082929550740   119.55146007   179.80811428
 H     21  18  16     1.082927969782   119.54479867   179.81555320
 H     23  19  17     1.083089873522   119.86904908   179.62758820
 C      1   2   3     2.210934902838    72.09702554   179.04166062
 H     27   1   2     1.076420000000   162.09702554   180.00000000
 N     27   1   2     1.339220317863    36.49028854   179.96061484
 N     27   1   2     1.339220317863    72.29623252   359.97541381

---------------------------
INTERNAL COORDINATES (A.U.)
---------------------------
 C      0   0   0     0.000000000000     0.00000000     0.00000000
 C      1   0   0     2.568722481897     0.00000000     0.00000000
 H      1   2   0     2.033322204850   131.09267372     0.00000000
 H      2   1   3     2.033322204850   131.09267372     1.91667876
 C      1   2   3     4.770112787464   134.72290556   178.60149223
 C      5   1   2     2.631858230390   131.48082371   289.38314134
 C      5   1   2     2.631794677385   101.98387257   134.32046285
 C      6   5   1     2.630985501129   118.76754933   208.49364448
 H      6   5   1     2.047871940356   120.58216393    26.96612046
 C      7   5   1     2.630096935867   118.73978675   158.18990129
 H      7   5   1     2.047549241288   120.56605196   337.00538357
 C      8   6   5     2.633230124046   120.19185207     0.64332091
 H      8   6   5     2.046440273228   119.55146007   179.80811428
 H     10   7   5     2.046437285651   119.54479867   179.81555320
 H     12   8   6     2.046743239380   119.86904908   179.62758820
 C      2   1   3     4.770112787464   134.72290556   180.51817099
 C     16   2   1     2.631858230390   131.48082371   289.38314134
 C     16   2   1     2.631794677385   101.98387257   134.32046285
 C     17  16   2     2.630985501129   118.76754933   208.49364448
 H     17  16   2     2.047871940356   120.58216393    26.96612046
 C     18  16   2     2.630096935867   118.73978675   158.18990129
 H     18  16   2     2.047549241288   120.56605196   337.00538357
 C     19  17  16     2.633230124046   120.19185207     0.64332091
 H     19  17  16     2.046440273228   119.55146007   179.80811428
 H     21  18  16     2.046437285651   119.54479867   179.81555320
 H     23  19  17     2.046743239380   119.86904908   179.62758820
 C      1   2   3     4.178061466292    72.09702554   179.04166062
 H     27   1   2     2.034139005076   162.09702554   180.00000000
 N     27   1   2     2.530759633745    36.49028854   179.96061484
 N     27   1   2     2.530759633745    72.29623252   359.97541381

---------------------
BASIS SET INFORMATION
---------------------
There are 3 groups of distinct atoms

 Group   1 Type C   : 7s4p1d contracted to 3s2p1d pattern {511/31/1}
 Group   2 Type H   : 4s1p contracted to 2s1p pattern {31/1}
 Group   3 Type N   : 7s4p1d contracted to 3s2p1d pattern {511/31/1}

Atom   0C    basis set group =>   1
Atom   1C    basis set group =>   1
Atom   2H    basis set group =>   2
Atom   3H    basis set group =>   2
Atom   4C    basis set group =>   1
Atom   5C    basis set group =>   1
Atom   6C    basis set group =>   1
Atom   7C    basis set group =>   1
Atom   8H    basis set group =>   2
Atom   9C    basis set group =>   1
Atom  10H    basis set group =>   2
Atom  11C    basis set group =>   1
Atom  12H    basis set group =>   2
Atom  13H    basis set group =>   2
Atom  14H    basis set group =>   2
Atom  15C    basis set group =>   1
Atom  16C    basis set group =>   1
Atom  17C    basis set group =>   1
Atom  18C    basis set group =>   1
Atom  19H    basis set group =>   2
Atom  20C    basis set group =>   1
Atom  21H    basis set group =>   2
Atom  22C    basis set group =>   1
Atom  23H    basis set group =>   2
Atom  24H    basis set group =>   2
Atom  25H    basis set group =>   2
Atom  26C    basis set group =>   1
Atom  27H    basis set group =>   2
Atom  28N    basis set group =>   3
Atom  29N    basis set group =>   3
---------------------------------
AUXILIARY/J BASIS SET INFORMATION
---------------------------------
There are 3 groups of distinct atoms

 Group   1 Type C   : 12s5p4d2f1g contracted to 6s4p3d1f1g pattern {711111/2111/211/2/1}
 Group   2 Type H   : 5s2p1d contracted to 3s1p1d pattern {311/2/1}
 Group   3 Type N   : 12s5p4d2f1g contracted to 6s4p3d1f1g pattern {711111/2111/211/2/1}

Atom   0C    basis set group =>   1
Atom   1C    basis set group =>   1
Atom   2H    basis set group =>   2
Atom   3H    basis set group =>   2
Atom   4C    basis set group =>   1
Atom   5C    basis set group =>   1
Atom   6C    basis set group =>   1
Atom   7C    basis set group =>   1
Atom   8H    basis set group =>   2
Atom   9C    basis set group =>   1
Atom  10H    basis set group =>   2
Atom  11C    basis set group =>   1
Atom  12H    basis set group =>   2
Atom  13H    basis set group =>   2
Atom  14H    basis set group =>   2
Atom  15C    basis set group =>   1
Atom  16C    basis set group =>   1
Atom  17C    basis set group =>   1
Atom  18C    basis set group =>   1
Atom  19H    basis set group =>   2
Atom  20C    basis set group =>   1
Atom  21H    basis set group =>   2
Atom  22C    basis set group =>   1
Atom  23H    basis set group =>   2
Atom  24H    basis set group =>   2
Atom  25H    basis set group =>   2
Atom  26C    basis set group =>   1
Atom  27H    basis set group =>   2
Atom  28N    basis set group =>   3
Atom  29N    basis set group =>   3


           ************************************************************
           *        Program running with 4 parallel MPI-processes     *
           *              working on a common directory               *
           ************************************************************
------------------------------------------------------------------------------
                           ORCA GTO INTEGRAL CALCULATION
                           -- RI-GTO INTEGRALS CHOSEN --
------------------------------------------------------------------------------
------------------------------------------------------------------------------
                   ___                                                        
                  /   \      - P O W E R E D   B Y -                         
                 /     \                                                     
                 |  |  |   _    _      __       _____    __    __             
                 |  |  |  | |  | |    /  \     |  _  \  |  |  /  |          
                  \  \/   | |  | |   /    \    | | | |  |  | /  /          
                 / \  \   | |__| |  /  /\  \   | |_| |  |  |/  /          
                |  |  |   |  __  | /  /__\  \  |    /   |      \           
                |  |  |   | |  | | |   __   |  |    \   |  |\   \          
                \     /   | |  | | |  |  |  |  | |\  \  |  | \   \       
                 \___/    |_|  |_| |__|  |__|  |_| \__\ |__|  \__/        
                                                                              
                      - O R C A' S   B I G   F R I E N D -                    
                                      &                                       
                       - I N T E G R A L  F E E D E R -                       
                                                                              
 v1 FN, 2020, v2 2021                                                         
------------------------------------------------------------------------------


Reading SHARK input file PhH+_Gas.SHARKINP.tmp ... ok
----------------------
SHARK INTEGRAL PACKAGE
----------------------

Number of atoms                             ...     30
Number of basis functions                   ...    303
Number of shells                            ...    141
Maximum angular momentum                    ...      2
Integral batch strategy                     ... SHARK/LIBINT Hybrid
RI-J (if used) integral strategy            ... SPLIT-RIJ (Revised 2003 algorithm where possible)
Printlevel                                  ...      1
Contraction scheme used                     ... SEGMENTED contraction
Coulomb Range Separation                    ... NOT USED
Exchange Range Separation                   ... Long Range
   Mu parameter                             ...  0.300000
   Scaling (regular/separated)              ...  0.157706  0.842294
Finite Nucleus Model                        ... NOT USED
Auxiliary Coulomb fitting basis             ... AVAILABLE
   # of basis functions in Aux-J            ...    976
   # of shells in Aux-J                     ...    320
   Maximum angular momentum in Aux-J        ...      4
Auxiliary J/K fitting basis                 ... NOT available
Auxiliary Correlation fitting basis         ... NOT available
Auxiliary 'external' fitting basis          ... NOT available
Integral threshold                          ...     2.500000e-11
Primitive cut-off                           ...     2.500000e-12
Primitive pair pre-selection threshold      ...     2.500000e-12

Calculating pre-screening integrals         ... done (  0.0 sec) Dimension = 141
Organizing shell pair data                  ... done (  0.0 sec)
Shell pair information
Total number of shell pairs                 ...     10011
Shell pairs after pre-screening             ...      7556
Total number of primitive shell pairs       ...     36575
Primitive shell pairs kept                  ...     18296
          la=0 lb=0:   2308 shell pairs
          la=1 lb=0:   2783 shell pairs
          la=1 lb=1:    876 shell pairs
          la=2 lb=0:    919 shell pairs
          la=2 lb=1:    569 shell pairs
          la=2 lb=2:    101 shell pairs

Calculating one electron integrals          ... done (  0.0 sec)
Calculating RI/J V-Matrix + Cholesky decomp.... done (  0.1 sec)
Calculating Nuclear repulsion               ... done (  0.0 sec) ENN=   1054.981808414836 Eh

SHARK setup successfully completed in   0.5 seconds

Maximum memory used throughout the entire GTOINT-calculation: 15.9 MB


           ************************************************************
           *        Program running with 4 parallel MPI-processes     *
           *              working on a common directory               *
           ************************************************************
-------------------------------------------------------------------------------
                                 ORCA SCF
-------------------------------------------------------------------------------

------------
SCF SETTINGS
------------
Hamiltonian:
 Density Functional     Method          .... DFT(GTOs)
 Exchange Functional    Exchange        .... WB97X
 Correlation Functional Correlation     .... WB97X
 Gradients option       PostSCFGGA      .... off
 Hybrid DFT is turned on
   Fraction HF Exchange ScalHFX         ....  0.157706
   Scaling of DF-GGA-X  ScalDFX         ....  0.000000
   Scaling of DF-GGA-C  ScalDFC         ....  1.000000
   Scaling of DF-LDA-C  ScalLDAC        ....  1.000000
   Perturbative correction              ....  0.000000
   Density functional embedding theory  .... OFF
 Long-range corrected/Screened/Range-Separated Hybrid DFT is turned on
   Amount of maximum screened exact exchange              ....  0.842294
   Range separation parameter mu (erf(mu*r12)/r12)        ....  0.300000
 RI-approximation to the Coulomb term is turned on
   Number of AuxJ basis functions       .... 976
   RIJ-COSX (HFX calculated with COS-X)).... on


General Settings:
 Integral files         IntName         .... PhH+_Gas
 Hartree-Fock type      HFTyp           .... RHF
 Total Charge           Charge          ....    1
 Multiplicity           Mult            ....    1
 Number of Electrons    NEL             ....  116
 Basis Dimension        Dim             ....  303
 Nuclear Repulsion      ENuc            ....   1054.9818084148 Eh

Convergence Acceleration:
 DIIS                   CNVDIIS         .... on
   Start iteration      DIISMaxIt       ....     0
   Startup error        DIISStart       ....  0.200000
   # of expansion vecs  DIISMaxEq       ....     5
   Bias factor          DIISBfac        ....   1.050
   Max. coefficient     DIISMaxC        ....  10.000
 Trust-Rad. Augm. Hess. CNVTRAH         .... auto
   Auto Start mean grad. ratio tolernc. ....  1.125000
   Auto Start start iteration           ....    20
   Auto Start num. interpolation iter.  ....    10
   Max. Number of Micro iterations      ....    16
   Max. Number of Macro iterations      .... Maxiter - #DIIS iter
   Number of Davidson start vectors     ....     2
   Converg. threshold I  (grad. norm)   ....   1.000e-05
   Converg. threshold II (energy diff.) ....   1.000e-08
   Grad. Scal. Fac. for Micro threshold ....   0.100
   Minimum threshold for Micro iter.    ....   0.010
   NR start threshold (gradient norm)   ....   0.001
   Initial trust radius                 ....   0.400
   Minimum AH scaling param. (alpha)    ....   1.000
   Maximum AH scaling param. (alpha)    .... 1000.000
   Orbital update algorithm             .... Taylor
   White noise on init. David. guess    .... on
   Maximum white noise                  ....   0.010
   Quad. conv. algorithm                .... NR
 SOSCF                  CNVSOSCF        .... on
   Start iteration      SOSCFMaxIt      ....   150
   Startup grad/error   SOSCFStart      ....  0.001000
 Level Shifting         CNVShift        .... on
   Level shift para.    LevelShift      ....    0.2500
   Turn off err/grad.   ShiftErr        ....    0.0000
 Zerner damping         CNVZerner       .... off
 Static damping         CNVDamp         .... on
   Fraction old density DampFac         ....    0.8500
   Max. Damping (<1)    DampMax         ....    0.9800
   Min. Damping (>=0)   DampMin         ....    0.0000
   Turn off err/grad.   DampErr         ....    0.0300
 Fernandez-Rico         CNVRico         .... off

SCF Procedure:
 Maximum # iterations   MaxIter         ....   125
 SCF integral mode      SCFMode         .... Direct
   Integral package                     .... SHARK and LIBINT hybrid scheme
 Reset frequency        DirectResetFreq ....    20
 Integral Threshold     Thresh          ....  2.500e-11 Eh
 Primitive CutOff       TCut            ....  2.500e-12 Eh

Convergence Tolerance:
 Convergence Check Mode ConvCheckMode   .... Total+1el-Energy
 Convergence forced     ConvForced      .... 0
 Energy Change          TolE            ....  1.000e-08 Eh
 1-El. energy change                    ....  1.000e-05 Eh
 Orbital Gradient       TolG            ....  1.000e-05
 Orbital Rotation angle TolX            ....  1.000e-05
 DIIS Error             TolErr          ....  5.000e-07


Diagonalization of the overlap matrix:
Smallest eigenvalue                        ... 2.810e-04
Time for diagonalization                   ...    0.028 sec
Threshold for overlap eigenvalues          ... 1.000e-08
Number of eigenvalues below threshold      ... 0
Time for construction of square roots      ...    0.018 sec
Total time needed                          ...    0.048 sec

Time for model grid setup =    0.218 sec

------------------------------
INITIAL GUESS: MODEL POTENTIAL
------------------------------
Loading Hartree-Fock densities                     ... done
Calculating cut-offs                               ... done
Initializing the effective Hamiltonian             ... done
Setting up the integral package (SHARK)            ... done
Starting the Coulomb interaction                   ... done (   0.2 sec)
Reading the grid                                   ... done
Mapping shells                                     ... done
Starting the XC term evaluation                    ... done (   0.2 sec)
  promolecular density results
     # of electrons  =    116.994739204
     EX              =    -93.707372153
     EC              =     -3.911051603
     EX+EC           =    -97.618423756
Transforming the Hamiltonian                       ... done (   0.0 sec)
Diagonalizing the Hamiltonian                      ... done (   0.0 sec)
Back transforming the eigenvectors                 ... done (   0.0 sec)
Now organizing SCF variables                       ... done
                      ------------------
                      INITIAL GUESS DONE (   0.6 sec)
                      ------------------
-------------------
DFT GRID GENERATION
-------------------

General Integration Accuracy     IntAcc      ... 4.388
Radial Grid Type                 RadialGrid  ... OptM3 with GC (2021)
Angular Grid (max. ang.)         AngularGrid ... 4 (Lebedev-302)
Angular grid pruning method      GridPruning ... 4 (adaptive)
Weight generation scheme         WeightScheme... Becke
Basis function cutoff            BFCut       ... 1.0000e-11
Integration weight cutoff        WCut        ... 1.0000e-14
Angular grids for H and He will be reduced by one unit
Partially contracted basis set               ... off
Rotationally invariant grid construction     ... off

Total number of grid points                  ...   143503
Total number of batches                      ...     2258
Average number of points per batch           ...       63
Average number of grid points per atom       ...     4783
Time for grid setup =    0.932 sec

--------------------
COSX GRID GENERATION
--------------------

GRIDX 1
-------
General Integration Accuracy     IntAcc      ... 3.816
Radial Grid Type                 RadialGrid  ... OptM3 with GC (2021)
Angular Grid (max. ang.)         AngularGrid ... 1 (Lebedev-50)
Angular grid pruning method      GridPruning ... 4 (adaptive)
Weight generation scheme         WeightScheme... Becke
Basis function cutoff            BFCut       ... 1.0000e-11
Integration weight cutoff        WCut        ... 1.0000e-14
Angular grids for H and He will be reduced by one unit
Partially contracted basis set               ... on
Rotationally invariant grid construction     ... off

Total number of grid points                  ...    18296
Total number of batches                      ...      295
Average number of points per batch           ...       62
Average number of grid points per atom       ...      610
UseSFitting                                  ... on

GRIDX 2
-------
General Integration Accuracy     IntAcc      ... 4.020
Radial Grid Type                 RadialGrid  ... OptM3 with GC (2021)
Angular Grid (max. ang.)         AngularGrid ... 2 (Lebedev-110)
Angular grid pruning method      GridPruning ... 4 (adaptive)
Weight generation scheme         WeightScheme... Becke
Basis function cutoff            BFCut       ... 1.0000e-11
Integration weight cutoff        WCut        ... 1.0000e-14
Angular grids for H and He will be reduced by one unit
Partially contracted basis set               ... on
Rotationally invariant grid construction     ... off

Total number of grid points                  ...    39914
Total number of batches                      ...      635
Average number of points per batch           ...       62
Average number of grid points per atom       ...     1330
UseSFitting                                  ... on

GRIDX 3
-------
General Integration Accuracy     IntAcc      ... 4.338
Radial Grid Type                 RadialGrid  ... OptM3 with GC (2021)
Angular Grid (max. ang.)         AngularGrid ... 3 (Lebedev-194)
Angular grid pruning method      GridPruning ... 4 (adaptive)
Weight generation scheme         WeightScheme... Becke
Basis function cutoff            BFCut       ... 1.0000e-11
Integration weight cutoff        WCut        ... 1.0000e-14
Angular grids for H and He will be reduced by one unit
Partially contracted basis set               ... on
Rotationally invariant grid construction     ... off

Total number of grid points                  ...    87357
Total number of batches                      ...     1381
Average number of points per batch           ...       63
Average number of grid points per atom       ...     2912
UseSFitting                                  ... on

Time for X-Grid setup             =    1.006 sec

--------------
SCF ITERATIONS
--------------
ITER       Energy         Delta-E        Max-DP      RMS-DP      [F,P]     Damp
               ***  Starting incremental Fock matrix formation  ***
  0   -687.7881229816   0.000000000000 0.02142610  0.00078656  0.1016585 0.8500
  1   -687.8393263224  -0.051203340852 0.01970321  0.00075483  0.0795868 0.8500
                               ***Turning on DIIS***
  2   -687.8783764984  -0.039050175929 0.01551511  0.00062721  0.0601433 0.8500
  3   -687.9072723102  -0.028895811875 0.01244138  0.00047743  0.0475202 0.8500
  4   -687.9295957787  -0.022323468442 0.01026213  0.00037920  0.0386732 0.8500
  5   -687.9472267819  -0.017631003248 0.00855836  0.00031415  0.0321903 0.8500
  6   -687.9615980956  -0.014371313651 0.04825010  0.00177036  0.0271126 0.0000
  7   -688.0375858255  -0.075987729873 0.00202536  0.00005774  0.0011639 0.0000
                      *** Initiating the SOSCF procedure ***
                           *** Shutting down DIIS ***
                      *** Re-Reading the Fockian *** 
                      *** Removing any level shift *** 
ITER      Energy       Delta-E        Grad      Rot      Max-DP    RMS-DP
  8   -688.03764622  -0.0000603943  0.000490  0.000490  0.000971  0.000027
               *** Restarting incremental Fock matrix formation ***
  9   -688.03769689  -0.0000506682  0.000502  0.001155  0.000558  0.000021
 10   -688.03770273  -0.0000058376  0.000161  0.000740  0.000622  0.000021
 11   -688.03770420  -0.0000014750  0.000077  0.000118  0.000237  0.000007
 12   -688.03770455  -0.0000003538  0.000018  0.000044  0.000040  0.000001
 13   -688.03770457  -0.0000000188  0.000006  0.000028  0.000023  0.000001
 14   -688.03770459  -0.0000000139  0.000003  0.000004  0.000006  0.000000
                  ***Gradient check signals convergence***
              ***Rediagonalizing the Fockian in SOSCF/NRSCF***

               *****************************************************
               *                     SUCCESS                       *
               *           SCF CONVERGED AFTER  15 CYCLES          *
               *****************************************************

Old exchange energy                            =    -30.284256196 Eh
New exchange energy                            =    -30.284263825 Eh
Exchange energy change after final integration =     -0.000007629 Eh
Total energy after final integration           =   -688.037712198 Eh
Final COS-X integration done in                =    23.535 sec

----------------
TOTAL SCF ENERGY
----------------

Total Energy       :         -688.03771220 Eh          -18722.45798 eV

Components:
Nuclear Repulsion  :         1054.98180841 Eh           28707.51447 eV
Electronic Energy  :        -1743.01952061 Eh          -47429.97245 eV
One Electron Energy:        -3004.17561055 Eh          -81747.77434 eV
Two Electron Energy:         1261.15608994 Eh           34317.80189 eV
Max COSX asymmetry :            0.00000151 Eh               0.00004 eV

Virial components:
Potential Energy   :        -1368.38856535 Eh          -37235.74589 eV
Kinetic Energy     :          680.35085315 Eh           18513.28791 eV
Virial Ratio       :            2.01129837


DFT components:
N(Alpha)           :       58.000006458572 electrons
N(Beta)            :       58.000006458572 electrons
N(Total)           :      116.000012917144 electrons
E(XC)              :      -69.218995779437 Eh       
DFET-embed. en.    :        0.000000000000 Eh       

---------------
SCF CONVERGENCE
---------------

  Last Energy change         ...    1.8085e-08  Tolerance :   1.0000e-08
  Last MAX-Density change    ...    2.6645e-15  Tolerance :   1.0000e-07
  Last RMS-Density change    ...    3.3884e-17  Tolerance :   5.0000e-09
  Last Orbital Gradient      ...    4.2667e-07  Tolerance :   1.0000e-05
  Last Orbital Rotation      ...    8.7742e-07  Tolerance :   1.0000e-05

             **** THE GBW FILE WAS UPDATED (PhH+_Gas.gbw) ****
             **** DENSITY PhH+_Gas.scfp WAS UPDATED ****
             **** ENERGY FILE WAS UPDATED (PhH+_Gas.en.tmp) ****
             **** THE GBW FILE WAS UPDATED (PhH+_Gas.gbw) ****
             **** DENSITY PhH+_Gas.scfp WAS UPDATED ****
----------------
ORBITAL ENERGIES
----------------

  NO   OCC          E(Eh)            E(eV) 
   0   2.0000     -14.663039      -399.0016 
   1   2.0000     -14.663028      -399.0013 
   2   2.0000     -10.534541      -286.6594 
   3   2.0000     -10.481194      -285.2078 
   4   2.0000     -10.480611      -285.1919 
   5   2.0000     -10.465770      -284.7881 
   6   2.0000     -10.465723      -284.7868 
   7   2.0000     -10.418018      -283.4887 
   8   2.0000     -10.418017      -283.4886 
   9   2.0000     -10.416957      -283.4598 
  10   2.0000     -10.416955      -283.4597 
  11   2.0000     -10.405524      -283.1487 
  12   2.0000     -10.405523      -283.1487 
  13   2.0000     -10.405254      -283.1414 
  14   2.0000     -10.405254      -283.1414 
  15   2.0000     -10.402318      -283.0615 
  16   2.0000     -10.402318      -283.0615 
  17   2.0000      -1.361297       -37.0428 
  18   2.0000      -1.244543       -33.8657 
  19   2.0000      -1.134282       -30.8654 
  20   2.0000      -1.114538       -30.3281 
  21   2.0000      -1.075298       -29.2603 
  22   2.0000      -1.038604       -28.2619 
  23   2.0000      -1.010158       -27.4878 
  24   2.0000      -1.007857       -27.4252 
  25   2.0000      -1.001154       -27.2428 
  26   2.0000      -0.930799       -25.3283 
  27   2.0000      -0.926213       -25.2035 
  28   2.0000      -0.879427       -23.9304 
  29   2.0000      -0.867245       -23.5989 
  30   2.0000      -0.860687       -23.4205 
  31   2.0000      -0.855903       -23.2903 
  32   2.0000      -0.818458       -22.2714 
  33   2.0000      -0.788901       -21.4671 
  34   2.0000      -0.766825       -20.8664 
  35   2.0000      -0.753048       -20.4915 
  36   2.0000      -0.738251       -20.0888 
  37   2.0000      -0.735513       -20.0143 
  38   2.0000      -0.722699       -19.6657 
  39   2.0000      -0.717533       -19.5251 
  40   2.0000      -0.711424       -19.3588 
  41   2.0000      -0.690193       -18.7811 
  42   2.0000      -0.676748       -18.4152 
  43   2.0000      -0.676464       -18.4075 
  44   2.0000      -0.668160       -18.1815 
  45   2.0000      -0.666639       -18.1402 
  46   2.0000      -0.638093       -17.3634 
  47   2.0000      -0.622401       -16.9364 
  48   2.0000      -0.598415       -16.2837 
  49   2.0000      -0.595261       -16.1979 
  50   2.0000      -0.593161       -16.1407 
  51   2.0000      -0.583914       -15.8891 
  52   2.0000      -0.572632       -15.5821 
  53   2.0000      -0.524217       -14.2647 
  54   2.0000      -0.485423       -13.2090 
  55   2.0000      -0.483105       -13.1460 
  56   2.0000      -0.482956       -13.1419 
  57   2.0000      -0.477869       -13.0035 
  58   0.0000      -0.105021        -2.8578 
  59   0.0000      -0.072697        -1.9782 
  60   0.0000      -0.062129        -1.6906 
  61   0.0000      -0.062006        -1.6873 
  62   0.0000      -0.047989        -1.3058 
  63   0.0000      -0.041866        -1.1392 
  64   0.0000       0.029867         0.8127 
  65   0.0000       0.034263         0.9323 
  66   0.0000       0.041556         1.1308 
  67   0.0000       0.048924         1.3313 
  68   0.0000       0.066658         1.8139 
  69   0.0000       0.079365         2.1596 
  70   0.0000       0.087312         2.3759 
  71   0.0000       0.090600         2.4654 
  72   0.0000       0.093261         2.5378 
  73   0.0000       0.098517         2.6808 
  74   0.0000       0.106317         2.8930 
  75   0.0000       0.113914         3.0998 
  76   0.0000       0.122097         3.3224 
  77   0.0000       0.126679         3.4471 
  78   0.0000       0.131502         3.5783 
  79   0.0000       0.144173         3.9231 
  80   0.0000       0.149610         4.0711 
  81   0.0000       0.166934         4.5425 
  82   0.0000       0.186648         5.0789 
  83   0.0000       0.191783         5.2187 
  84   0.0000       0.228655         6.2220 
  85   0.0000       0.231419         6.2972 
  86   0.0000       0.256030         6.9669 
  87   0.0000       0.257817         7.0156 
  88   0.0000       0.266697         7.2572 
  89   0.0000       0.269594         7.3360 
  90   0.0000       0.271361         7.3841 
  91   0.0000       0.283508         7.7146 
  92   0.0000       0.287873         7.8334 
  93   0.0000       0.303160         8.2494 
  94   0.0000       0.314089         8.5468 
  95   0.0000       0.318656         8.6711 
  96   0.0000       0.325770         8.8647 
  97   0.0000       0.347485         9.4556 
  98   0.0000       0.350751         9.5444 
  99   0.0000       0.372236        10.1291 
 100   0.0000       0.383572        10.4375 
 101   0.0000       0.384930        10.4745 
 102   0.0000       0.386976        10.5301 
 103   0.0000       0.405416        11.0319 
 104   0.0000       0.408416        11.1136 
 105   0.0000       0.416242        11.3265 
 106   0.0000       0.434126        11.8132 
 107   0.0000       0.434572        11.8253 
 108   0.0000       0.454243        12.3606 
 109   0.0000       0.460483        12.5304 
 110   0.0000       0.461520        12.5586 
 111   0.0000       0.465279        12.6609 
 112   0.0000       0.474391        12.9088 
 113   0.0000       0.474932        12.9236 
 114   0.0000       0.477315        12.9884 
 115   0.0000       0.487222        13.2580 
 116   0.0000       0.491011        13.3611 
 117   0.0000       0.509588        13.8666 
 118   0.0000       0.522286        14.2121 
 119   0.0000       0.527306        14.3487 
 120   0.0000       0.538775        14.6608 
 121   0.0000       0.551632        15.0107 
 122   0.0000       0.553065        15.0497 
 123   0.0000       0.572071        15.5668 
 124   0.0000       0.572969        15.5913 
 125   0.0000       0.592353        16.1187 
 126   0.0000       0.596498        16.2315 
 127   0.0000       0.604214        16.4415 
 128   0.0000       0.618452        16.8289 
 129   0.0000       0.623545        16.9675 
 130   0.0000       0.627955        17.0875 
 131   0.0000       0.629620        17.1328 
 132   0.0000       0.639524        17.4023 
 133   0.0000       0.644367        17.5341 
 134   0.0000       0.644625        17.5411 
 135   0.0000       0.660304        17.9678 
 136   0.0000       0.661250        17.9935 
 137   0.0000       0.662445        18.0261 
 138   0.0000       0.669099        18.2071 
 139   0.0000       0.669863        18.2279 
 140   0.0000       0.689493        18.7621 
 141   0.0000       0.697497        18.9798 
 142   0.0000       0.712213        19.3803 
 143   0.0000       0.712290        19.3824 
 144   0.0000       0.725208        19.7339 
 145   0.0000       0.725434        19.7400 
 146   0.0000       0.737669        20.0730 
 147   0.0000       0.744896        20.2697 
 148   0.0000       0.745734        20.2924 
 149   0.0000       0.766122        20.8473 
 150   0.0000       0.782391        21.2899 
 151   0.0000       0.788203        21.4481 
 152   0.0000       0.790825        21.5194 
 153   0.0000       0.803972        21.8772 
 154   0.0000       0.821068        22.3424 
 155   0.0000       0.827032        22.5047 
 156   0.0000       0.843507        22.9530 
 157   0.0000       0.847105        23.0509 
 158   0.0000       0.854326        23.2474 
 159   0.0000       0.903036        24.5729 
 160   0.0000       0.911715        24.8090 
 161   0.0000       0.916148        24.9297 
 162   0.0000       0.983109        26.7518 
 163   0.0000       1.003984        27.3198 
 164   0.0000       1.035023        28.1644 
 165   0.0000       1.037731        28.2381 
 166   0.0000       1.040133        28.3035 
 167   0.0000       1.103260        30.0212 
 168   0.0000       1.123117        30.5616 
 169   0.0000       1.134403        30.8687 
 170   0.0000       1.150001        31.2931 
 171   0.0000       1.163377        31.6571 
 172   0.0000       1.177834        32.0505 
 173   0.0000       1.179626        32.0993 
 174   0.0000       1.179887        32.1064 
 175   0.0000       1.196753        32.5653 
 176   0.0000       1.204060        32.7641 
 177   0.0000       1.213360        33.0172 
 178   0.0000       1.215122        33.0651 
 179   0.0000       1.232460        33.5369 
 180   0.0000       1.247850        33.9557 
 181   0.0000       1.251075        34.0435 
 182   0.0000       1.254173        34.1278 
 183   0.0000       1.268424        34.5156 
 184   0.0000       1.269433        34.5430 
 185   0.0000       1.279100        34.8061 
 186   0.0000       1.281285        34.8655 
 187   0.0000       1.297668        35.3113 
 188   0.0000       1.341300        36.4986 
 189   0.0000       1.451302        39.4919 
 190   0.0000       1.483162        40.3589 
 191   0.0000       1.535494        41.7829 
 192   0.0000       1.546755        42.0894 
 193   0.0000       1.564437        42.5705 
 194   0.0000       1.587029        43.1852 
 195   0.0000       1.595043        43.4033 
 196   0.0000       1.613575        43.9076 
 197   0.0000       1.618077        44.0301 
 198   0.0000       1.642704        44.7003 
 199   0.0000       1.649098        44.8742 
 200   0.0000       1.659056        45.1452 
 201   0.0000       1.684248        45.8307 
 202   0.0000       1.695863        46.1468 
 203   0.0000       1.697217        46.1836 
 204   0.0000       1.704434        46.3800 
 205   0.0000       1.724611        46.9290 
 206   0.0000       1.731083        47.1052 
 207   0.0000       1.731430        47.1146 
 208   0.0000       1.735300        47.2199 
 209   0.0000       1.743039        47.4305 
 210   0.0000       1.745592        47.5000 
 211   0.0000       1.754987        47.7556 
 212   0.0000       1.755135        47.7597 
 213   0.0000       1.758203        47.8431 
 214   0.0000       1.759599        47.8811 
 215   0.0000       1.784870        48.5688 
 216   0.0000       1.789383        48.6916 
 217   0.0000       1.802344        49.0443 
 218   0.0000       1.802425        49.0465 
 219   0.0000       1.812746        49.3273 
 220   0.0000       1.818053        49.4717 
 221   0.0000       1.825931        49.6861 
 222   0.0000       1.855011        50.4774 
 223   0.0000       1.885048        51.2948 
 224   0.0000       1.893332        51.5202 
 225   0.0000       1.918693        52.2103 
 226   0.0000       1.930472        52.5308 
 227   0.0000       1.939323        52.7717 
 228   0.0000       1.943877        52.8956 
 229   0.0000       1.949931        53.0603 
 230   0.0000       1.952872        53.1404 
 231   0.0000       1.963475        53.4289 
 232   0.0000       1.963555        53.4310 
 233   0.0000       1.978709        53.8434 
 234   0.0000       1.979919        53.8763 
 235   0.0000       1.981357        53.9155 
 236   0.0000       2.017349        54.8949 
 237   0.0000       2.055960        55.9455 
 238   0.0000       2.064751        56.1847 
 239   0.0000       2.084396        56.7193 
 240   0.0000       2.088617        56.8342 
 241   0.0000       2.121299        57.7235 
 242   0.0000       2.123148        57.7738 
 243   0.0000       2.130269        57.9676 
 244   0.0000       2.134684        58.0877 
 245   0.0000       2.153830        58.6087 
 246   0.0000       2.157174        58.6997 
 247   0.0000       2.228441        60.6390 
 248   0.0000       2.230754        60.7019 
 249   0.0000       2.250912        61.2504 
 250   0.0000       2.251157        61.2571 
 251   0.0000       2.265224        61.6399 
 252   0.0000       2.265784        61.6551 
 253   0.0000       2.275375        61.9161 
 254   0.0000       2.276618        61.9499 
 255   0.0000       2.298152        62.5359 
 256   0.0000       2.300035        62.5871 
 257   0.0000       2.317583        63.0646 
 258   0.0000       2.331894        63.4541 
 259   0.0000       2.332845        63.4799 
 260   0.0000       2.336996        63.5929 
 261   0.0000       2.346953        63.8638 
 262   0.0000       2.388696        64.9997 
 263   0.0000       2.403043        65.3901 
 264   0.0000       2.494362        67.8750 
 265   0.0000       2.494591        67.8813 
 266   0.0000       2.536037        69.0091 
 267   0.0000       2.542819        69.1936 
 268   0.0000       2.550501        69.4027 
 269   0.0000       2.572297        69.9957 
 270   0.0000       2.600582        70.7654 
 271   0.0000       2.608926        70.9925 
 272   0.0000       2.613784        71.1247 
 273   0.0000       2.619459        71.2791 
 274   0.0000       2.647971        72.0549 
 275   0.0000       2.683712        73.0275 
 276   0.0000       2.686442        73.1018 
 277   0.0000       2.723919        74.1216 
 278   0.0000       2.727497        74.2190 
 279   0.0000       2.729553        74.2749 
 280   0.0000       2.737406        74.4886 
 281   0.0000       2.738497        74.5183 
 282   0.0000       2.784629        75.7736 
 283   0.0000       2.813525        76.5599 
 284   0.0000       2.845717        77.4359 
 285   0.0000       2.846360        77.4534 
 286   0.0000       2.856974        77.7422 
 287   0.0000       2.858630        77.7873 
 288   0.0000       2.871755        78.1444 
 289   0.0000       2.873192        78.1835 
 290   0.0000       2.890736        78.6609 
 291   0.0000       3.017117        82.0999 
 292   0.0000       3.042673        82.7953 
 293   0.0000       3.059951        83.2655 
 294   0.0000       3.111639        84.6720 
 295   0.0000       3.132912        85.2509 
 296   0.0000       3.184422        86.6525 
 297   0.0000       3.258322        88.6635 
 298   0.0000       3.357886        91.3727 
 299   0.0000       3.393050        92.3296 
 300   0.0000       3.434660        93.4619 
 301   0.0000       3.651056        99.3503 
 302   0.0000       3.666177        99.7618 

                    ********************************
                    * MULLIKEN POPULATION ANALYSIS *
                    ********************************

-----------------------
MULLIKEN ATOMIC CHARGES
-----------------------
   0 C :    0.094896
   1 C :    0.094896
   2 H :    0.097759
   3 H :    0.097759
   4 C :    0.088797
   5 C :   -0.012276
   6 C :   -0.005633
   7 C :   -0.001746
   8 H :    0.025753
   9 C :   -0.002653
  10 H :    0.029084
  11 C :    0.025152
  12 H :    0.052059
  13 H :    0.052799
  14 H :    0.054331
  15 C :    0.088796
  16 C :   -0.012277
  17 C :   -0.005632
  18 C :   -0.001745
  19 H :    0.025753
  20 C :   -0.002655
  21 H :    0.029085
  22 C :    0.025153
  23 H :    0.052059
  24 H :    0.052798
  25 H :    0.054331
  26 C :    0.242848
  27 H :    0.115826
  28 N :   -0.177658
  29 N :   -0.177658
Sum of atomic charges:    1.0000000

--------------------------------
MULLIKEN REDUCED ORBITAL CHARGES
--------------------------------
  0 C s       :     3.136116  s :     3.136116
      pz      :     0.784954  p :     2.722224
      px      :     1.024678
      py      :     0.912592
      dz2     :     0.014617  d :     0.046763
      dxz     :     0.007295
      dyz     :     0.012390
      dx2y2   :     0.004939
      dxy     :     0.007522
  1 C s       :     3.136117  s :     3.136117
      pz      :     0.784953  p :     2.722224
      px      :     1.024678
      py      :     0.912592
      dz2     :     0.014617  d :     0.046763
      dxz     :     0.007295
      dyz     :     0.012390
      dx2y2   :     0.004939
      dxy     :     0.007522
  2 H s       :     0.877446  s :     0.877446
      pz      :     0.011017  p :     0.024795
      px      :     0.004830
      py      :     0.008948
  3 H s       :     0.877446  s :     0.877446
      pz      :     0.011017  p :     0.024795
      px      :     0.004830
      py      :     0.008948
  4 C s       :     2.974589  s :     2.974589
      pz      :     1.043135  p :     2.882423
      px      :     1.028682
      py      :     0.810605
      dz2     :     0.008446  d :     0.054191
      dxz     :     0.006881
      dyz     :     0.010165
      dx2y2   :     0.016728
      dxy     :     0.011971
  5 C s       :     3.207136  s :     3.207136
      pz      :     0.952944  p :     2.771130
      px      :     0.902598
      py      :     0.915588
      dz2     :     0.006535  d :     0.034010
      dxz     :     0.004831
      dyz     :     0.006493
      dx2y2   :     0.006650
      dxy     :     0.009501
  6 C s       :     3.208279  s :     3.208279
      pz      :     0.927213  p :     2.763396
      px      :     0.900845
      py      :     0.935338
      dz2     :     0.003957  d :     0.033958
      dxz     :     0.004390
      dyz     :     0.008077
      dx2y2   :     0.007660
      dxy     :     0.009874
  7 C s       :     3.151462  s :     3.151462
      pz      :     0.936359  p :     2.815536
      px      :     0.936746
      py      :     0.942431
      dz2     :     0.004233  d :     0.034748
      dxz     :     0.004967
      dyz     :     0.007486
      dx2y2   :     0.009339
      dxy     :     0.008722
  8 H s       :     0.950392  s :     0.950392
      pz      :     0.005078  p :     0.023855
      px      :     0.010634
      py      :     0.008143
  9 C s       :     3.151918  s :     3.151918
      pz      :     0.949166  p :     2.815969
      px      :     0.936786
      py      :     0.930017
      dz2     :     0.005646  d :     0.034766
      dxz     :     0.004679
      dyz     :     0.007503
      dx2y2   :     0.007919
      dxy     :     0.009020
 10 H s       :     0.947032  s :     0.947032
      pz      :     0.009074  p :     0.023884
      px      :     0.010525
      py      :     0.004285
 11 C s       :     3.148987  s :     3.148987
      pz      :     0.938313  p :     2.791109
      px      :     0.949460
      py      :     0.903336
      dz2     :     0.005624  d :     0.034753
      dxz     :     0.005923
      dyz     :     0.006244
      dx2y2   :     0.009194
      dxy     :     0.007767
 12 H s       :     0.924244  s :     0.924244
      pz      :     0.009159  p :     0.023697
      px      :     0.010092
      py      :     0.004446
 13 H s       :     0.923520  s :     0.923520
      pz      :     0.004956  p :     0.023682
      px      :     0.010001
      py      :     0.008725
 14 H s       :     0.922160  s :     0.922160
      pz      :     0.004961  p :     0.023510
      px      :     0.003299
      py      :     0.015250
 15 C s       :     2.974590  s :     2.974590
      pz      :     1.043135  p :     2.882423
      px      :     1.028683
      py      :     0.810605
      dz2     :     0.008446  d :     0.054191
      dxz     :     0.006881
      dyz     :     0.010165
      dx2y2   :     0.016728
      dxy     :     0.011971
 16 C s       :     3.207134  s :     3.207134
      pz      :     0.952944  p :     2.771132
      px      :     0.902599
      py      :     0.915589
      dz2     :     0.006535  d :     0.034010
      dxz     :     0.004831
      dyz     :     0.006493
      dx2y2   :     0.006650
      dxy     :     0.009501
 17 C s       :     3.208275  s :     3.208275
      pz      :     0.927214  p :     2.763399
      px      :     0.900846
      py      :     0.935339
      dz2     :     0.003957  d :     0.033958
      dxz     :     0.004390
      dyz     :     0.008077
      dx2y2   :     0.007660
      dxy     :     0.009874
 18 C s       :     3.151461  s :     3.151461
      pz      :     0.936359  p :     2.815536
      px      :     0.936746
      py      :     0.942431
      dz2     :     0.004233  d :     0.034748
      dxz     :     0.004967
      dyz     :     0.007486
      dx2y2   :     0.009339
      dxy     :     0.008722
 19 H s       :     0.950392  s :     0.950392
      pz      :     0.005078  p :     0.023855
      px      :     0.010634
      py      :     0.008143
 20 C s       :     3.151920  s :     3.151920
      pz      :     0.949166  p :     2.815969
      px      :     0.936786
      py      :     0.930017
      dz2     :     0.005646  d :     0.034766
      dxz     :     0.004679
      dyz     :     0.007503
      dx2y2   :     0.007919
      dxy     :     0.009020
 21 H s       :     0.947031  s :     0.947031
      pz      :     0.009074  p :     0.023884
      px      :     0.010525
      py      :     0.004285
 22 C s       :     3.148985  s :     3.148985
      pz      :     0.938313  p :     2.791109
      px      :     0.949460
      py      :     0.903336
      dz2     :     0.005624  d :     0.034753
      dxz     :     0.005923
      dyz     :     0.006244
      dx2y2   :     0.009194
      dxy     :     0.007767
 23 H s       :     0.924244  s :     0.924244
      pz      :     0.009159  p :     0.023697
      px      :     0.010092
      py      :     0.004446
 24 H s       :     0.923520  s :     0.923520
      pz      :     0.004956  p :     0.023682
      px      :     0.010001
      py      :     0.008725
 25 H s       :     0.922160  s :     0.922160
      pz      :     0.004961  p :     0.023510
      px      :     0.003299
      py      :     0.015250
 26 C s       :     3.092825  s :     3.092825
      pz      :     0.898863  p :     2.598309
      px      :     0.932429
      py      :     0.767016
      dz2     :     0.012360  d :     0.066018
      dxz     :     0.006207
      dyz     :     0.022280
      dx2y2   :     0.009111
      dxy     :     0.016060
 27 H s       :     0.859608  s :     0.859608
      pz      :     0.018629  p :     0.024566
      px      :     0.004560
      py      :     0.001377
 28 N s       :     3.378128  s :     3.378128
      pz      :     1.143600  p :     3.766838
      px      :     1.474529
      py      :     1.148709
      dz2     :     0.006238  d :     0.032693
      dxz     :     0.006367
      dyz     :     0.010615
      dx2y2   :     0.004194
      dxy     :     0.005279
 29 N s       :     3.378128  s :     3.378128
      pz      :     1.143600  p :     3.766837
      px      :     1.474529
      py      :     1.148709
      dz2     :     0.006238  d :     0.032693
      dxz     :     0.006367
      dyz     :     0.010615
      dx2y2   :     0.004194
      dxy     :     0.005279


                     *******************************
                     * LOEWDIN POPULATION ANALYSIS *
                     *******************************

----------------------
LOEWDIN ATOMIC CHARGES
----------------------
   0 C :    0.036334
   1 C :    0.036334
   2 H :    0.058114
   3 H :    0.058114
   4 C :   -0.002368
   5 C :   -0.024221
   6 C :   -0.020502
   7 C :    0.004228
   8 H :    0.040274
   9 C :    0.005083
  10 H :    0.042333
  11 C :    0.010214
  12 H :    0.048259
  13 H :    0.048499
  14 H :    0.048749
  15 C :   -0.002368
  16 C :   -0.024221
  17 C :   -0.020502
  18 C :    0.004228
  19 H :    0.040274
  20 C :    0.005083
  21 H :    0.042333
  22 C :    0.010214
  23 H :    0.048259
  24 H :    0.048499
  25 H :    0.048749
  26 C :    0.133277
  27 H :    0.058981
  28 N :    0.108877
  29 N :    0.108877

-------------------------------
LOEWDIN REDUCED ORBITAL CHARGES
-------------------------------
  0 C s       :     2.856020  s :     2.856020
      pz      :     0.920142  p :     2.993204
      px      :     1.021192
      py      :     1.051870
      dz2     :     0.037696  d :     0.114442
      dxz     :     0.014193
      dyz     :     0.034256
      dx2y2   :     0.013858
      dxy     :     0.014440
  1 C s       :     2.856020  s :     2.856020
      pz      :     0.920142  p :     2.993204
      px      :     1.021192
      py      :     1.051870
      dz2     :     0.037696  d :     0.114442
      dxz     :     0.014193
      dyz     :     0.034256
      dx2y2   :     0.013858
      dxy     :     0.014440
  2 H s       :     0.867925  s :     0.867925
      pz      :     0.032548  p :     0.073961
      px      :     0.015572
      py      :     0.025841
  3 H s       :     0.867925  s :     0.867925
      pz      :     0.032548  p :     0.073961
      px      :     0.015572
      py      :     0.025841
  4 C s       :     2.832774  s :     2.832774
      pz      :     1.056632  p :     3.036720
      px      :     1.093784
      py      :     0.886304
      dz2     :     0.018403  d :     0.132875
      dxz     :     0.017354
      dyz     :     0.025141
      dx2y2   :     0.041161
      dxy     :     0.030815
  5 C s       :     2.855609  s :     2.855609
      pz      :     1.003215  p :     3.078847
      px      :     1.012633
      py      :     1.062999
      dz2     :     0.014695  d :     0.089765
      dxz     :     0.013133
      dyz     :     0.017264
      dx2y2   :     0.019143
      dxy     :     0.025530
  6 C s       :     2.855386  s :     2.855386
      pz      :     1.003455  p :     3.075531
      px      :     1.011647
      py      :     1.060428
      dz2     :     0.009029  d :     0.089586
      dxz     :     0.011186
      dyz     :     0.020306
      dx2y2   :     0.021829
      dxy     :     0.027237
  7 C s       :     2.854704  s :     2.854704
      pz      :     0.984207  p :     3.051235
      px      :     1.018001
      py      :     1.049028
      dz2     :     0.009389  d :     0.089832
      dxz     :     0.012312
      dyz     :     0.018921
      dx2y2   :     0.025372
      dxy     :     0.023838
  8 H s       :     0.889756  s :     0.889756
      pz      :     0.016096  p :     0.069970
      px      :     0.029986
      py      :     0.023888
  9 C s       :     2.854797  s :     2.854797
      pz      :     0.988947  p :     3.050278
      px      :     1.017302
      py      :     1.044028
      dz2     :     0.012478  d :     0.089843
      dxz     :     0.012345
      dyz     :     0.019450
      dx2y2   :     0.021746
      dxy     :     0.023824
 10 H s       :     0.887622  s :     0.887622
      pz      :     0.026096  p :     0.070045
      px      :     0.029824
      py      :     0.014125
 11 C s       :     2.857297  s :     2.857297
      pz      :     0.981013  p :     3.042901
      px      :     1.015223
      py      :     1.046665
      dz2     :     0.012377  d :     0.089588
      dxz     :     0.016207
      dyz     :     0.015601
      dx2y2   :     0.024166
      dxy     :     0.021237
 12 H s       :     0.882608  s :     0.882608
      pz      :     0.026145  p :     0.069133
      px      :     0.028722
      py      :     0.014267
 13 H s       :     0.882371  s :     0.882371
      pz      :     0.015644  p :     0.069130
      px      :     0.028519
      py      :     0.024968
 14 H s       :     0.882141  s :     0.882141
      pz      :     0.015631  p :     0.069110
      px      :     0.011605
      py      :     0.041874
 15 C s       :     2.832774  s :     2.832774
[...]
     43      -0.002316   0.442612   0.428753   0.000278   0.000175   0.000250
     44       0.001710   0.153382   0.148579   0.000099   0.000077   0.000071
     45      -0.001311  -0.000012   0.000009   0.000069   0.000033  -0.000031
     46      -0.000377  -0.000804   0.000836   0.000116   0.000217   0.000001
     47      -0.001027   0.000264  -0.000281   0.000426   0.000217  -0.000214
     48       0.008587  -0.005538   0.005738   0.000360  -0.000002   0.000122
     49       0.010143  -0.006843   0.007074   0.000307  -0.000130   0.000197
     50       0.003474  -0.002139   0.002216   0.000113   0.000033   0.000013
     51       0.009328   0.005703  -0.005905  -0.000056   0.000284  -0.000234
     52      -0.006271  -0.004187   0.004320   0.000209  -0.000128   0.000110
     53       0.009970   0.006218  -0.006435  -0.000104   0.000224  -0.000196
     54       0.028395  -0.022898   0.023633  -0.000037  -0.000008  -0.000032
     55      -0.013285   0.008331  -0.008604   0.000003   0.000053  -0.000047
     56       0.029194  -0.022740   0.023468  -0.000045  -0.000033  -0.000002
     57      -0.097308   0.061931  -0.064166  -0.004312   0.000027  -0.001321
     58      -0.093586   0.059888  -0.062040  -0.003680   0.000155  -0.001217
     59      -0.046825   0.029739  -0.030827  -0.002211  -0.000032  -0.000723
     60       0.028632   0.022607  -0.023332   0.000019  -0.000018   0.000033
     61       0.028655   0.020252  -0.020910  -0.000082  -0.000008   0.000025
     62       0.014924   0.012639  -0.013042   0.000029  -0.000019   0.000022
     63      -0.105615  -0.063918   0.066199   0.000573  -0.003214   0.002763
     64       0.049197   0.030092  -0.031156  -0.000347   0.001104  -0.000883
     65      -0.105356  -0.063939   0.066222   0.000592  -0.003062   0.002549
     66      -0.003074   0.000147  -0.000151  -0.000030  -0.000018   0.000019
     67      -0.000970   0.039587  -0.040865   0.000013  -0.000013   0.000017
     68      -0.002387  -0.013701   0.014143  -0.000020  -0.000004   0.000000
     69      -0.319632   0.242415  -0.250173   0.000474   0.000343   0.000001
     70       0.141209  -0.104806   0.108151  -0.000238  -0.000218   0.000045
     71      -0.325162   0.245816  -0.253688   0.000372   0.000394  -0.000042
     72      -0.322303  -0.239285   0.246969   0.000316   0.000185  -0.000351
     73      -0.313084  -0.230127   0.237507   0.000380   0.000114  -0.000291
     74      -0.170890  -0.127693   0.131799   0.000123   0.000035  -0.000107
     75       0.002858  -0.001294   0.001337  -0.000049  -0.000023   0.000036
     76       0.002350  -0.428802   0.442565  -0.000278   0.000175  -0.000250
     77       0.001740   0.148597  -0.153366   0.000099  -0.000077   0.000071
     78       0.000000  -0.000000  -0.000006   0.000000  -0.000006   0.000000
     79       0.000000   0.000000   0.000030   0.000000  -0.001949   0.000000
     80      -0.000037   0.000044  -0.000001   0.092835   0.000001   0.011604
     81       0.000001  -0.000000  -0.000011  -0.000002   0.000029  -0.000000
     82      -0.000001  -0.000000  -0.000021   0.000000  -0.000463   0.000000
     83       0.000271  -0.001046   0.000017  -0.989554  -0.000009  -0.107737
     84      -0.000081  -0.000001  -0.000005   0.000060  -0.000026  -0.000022
     85      -0.000040  -0.000096  -0.000138   0.003290   0.000008   0.000820
     86       0.000101  -0.000043  -0.000017  -0.003107   0.000922   0.002610
     87       0.000082   0.000001  -0.000005  -0.000060  -0.000026   0.000022
     88       0.000041   0.000092  -0.000141  -0.003290   0.000008  -0.000820
     89       0.000103  -0.000043   0.000019  -0.003107  -0.000922   0.002610


-----------
IR SPECTRUM
-----------

 Mode   freq       eps      Int      T**2         TX        TY        TZ
       cm**-1   L/(mol*cm) km/mol    a.u.
----------------------------------------------------------------------------
  6:     34.65   0.000002    0.01  0.000016  ( 0.000001  0.000000 -0.004047)
  7:     39.04   0.000015    0.07  0.000118  (-0.010876  0.000458 -0.000000)
  8:     61.68   0.000019    0.10  0.000097  ( 0.000000  0.000000  0.009863)
  9:     83.41   0.000063    0.32  0.000235  ( 0.011748 -0.009866 -0.000000)
 10:    128.64   0.000076    0.38  0.000183  ( 0.000000 -0.000000 -0.013546)
 11:    140.82   0.000102    0.52  0.000227  (-0.015030  0.001057 -0.000000)
 12:    250.59   0.000054    0.27  0.000067  ( 0.000000  0.000000 -0.008181)
 13:    307.14   0.000197    1.00  0.000200  (-0.000000 -0.000000  0.014154)
 14:    315.64   0.000016    0.08  0.000015  ( 0.003793  0.000984  0.000000)
 15:    406.61   0.000157    0.79  0.000120  ( 0.005894 -0.009247  0.000000)
 16:    424.47   0.000006    0.03  0.000004  ( 0.000000 -0.000001 -0.002067)
 17:    424.76   0.000021    0.11  0.000015  ( 0.002123 -0.003285  0.000000)
 18:    431.78   0.000002    0.01  0.000002  (-0.000000 -0.000000  0.001244)
 19:    442.11   0.000313    1.58  0.000221  (-0.011998 -0.008757 -0.000000)
 20:    535.24   0.002468   12.47  0.001439  (-0.000000 -0.000000  0.037930)
 21:    569.17   0.001566    7.92  0.000859  ( 0.025499 -0.014443  0.000000)
 22:    625.83   0.000180    0.91  0.000090  ( 0.009186  0.002339 -0.000000)
 23:    626.10   0.000002    0.01  0.000001  (-0.000000 -0.000000 -0.001050)
 24:    680.17   0.000715    3.61  0.000328  (-0.000000  0.000000 -0.018116)
 25:    683.92   0.003126   15.80  0.001426  ( 0.037379  0.005389 -0.000000)
 26:    693.80   0.000071    0.36  0.000032  (-0.000000 -0.000000  0.005661)
 27:    720.60   0.001910    9.65  0.000827  (-0.006640 -0.027987 -0.000001)
 28:    722.22   0.006303   31.85  0.002723  (-0.000000  0.000001 -0.052185)
 29:    722.47   0.006818   34.46  0.002945  (-0.051577  0.016876  0.000000)
 30:    777.37   0.006640   33.56  0.002666  ( 0.051615 -0.001209 -0.000000)
 31:    799.91   0.006415   32.42  0.002503  ( 0.000006 -0.000003 -0.050025)
 32:    801.33   0.007525   38.03  0.002930  (-0.049639  0.021596 -0.000006)
 33:    871.45   0.000133    0.67  0.000048  (-0.003587 -0.005890 -0.000002)
 34:    871.79   0.000043    0.22  0.000015  (-0.000002 -0.000004  0.003913)
 35:    890.03   0.002404   12.15  0.000843  (-0.029031 -0.000058  0.000000)
 36:    918.71   0.000000    0.00  0.000000  ( 0.000000  0.000000 -0.000154)
 37:    969.32   0.000300    1.52  0.000097  (-0.000001  0.000002  0.009829)
 38:    970.14   0.000399    2.02  0.000128  ( 0.005460 -0.009930  0.000002)
 39:    980.63   0.000523    2.64  0.000166  ( 0.002703  0.012615 -0.000000)
 40:    989.26   0.000001    0.00  0.000000  (-0.000000 -0.000000 -0.000431)
 41:   1025.67   0.002267   11.46  0.000690  (-0.000234  0.026260 -0.000000)
 42:   1026.62   0.000162    0.82  0.000049  ( 0.000000  0.000001  0.007023)
 43:   1029.54   0.000252    1.27  0.000076  ( 0.000686  0.008707 -0.000000)
 44:   1030.29   0.000085    0.43  0.000026  (-0.000000  0.000000  0.005059)
 45:   1061.85   0.000110    0.56  0.000032  ( 0.000000  0.000000  0.005689)
 46:   1062.47   0.000144    0.73  0.000042  ( 0.000248  0.006509 -0.000000)
 47:   1063.34   0.000018    0.09  0.000005  (-0.000000 -0.000004  0.002315)
 48:   1063.47   0.000138    0.70  0.000040  ( 0.000784  0.006308  0.000001)
 49:   1088.87   0.013888   70.18  0.003980  (-0.003652 -0.062982  0.000000)
 50:   1109.07   0.001797    9.08  0.000506  ( 0.000000  0.000000  0.022484)
 51:   1115.46   0.001850    9.35  0.000518  (-0.022748  0.000251  0.000015)
 52:   1115.55   0.002443   12.35  0.000683  (-0.000013  0.000000 -0.026142)
 53:   1147.45   0.000519    2.62  0.000141  (-0.000000  0.000000 -0.011877)
 54:   1179.15   0.000023    0.12  0.000006  ( 0.000002  0.000000  0.002476)
 55:   1179.22   0.000054    0.27  0.000014  ( 0.003714  0.000709 -0.000001)
 56:   1193.74   0.000024    0.12  0.000006  ( 0.001026 -0.002283  0.000000)
 57:   1194.98   0.000016    0.08  0.000004  (-0.000000 -0.000000 -0.002036)
 58:   1254.16   0.002933   14.82  0.000730  ( 0.003699  0.026761  0.000000)
 59:   1284.61   0.005743   29.02  0.001395  (-0.001453  0.037321  0.000000)
 60:   1327.70   0.000099    0.50  0.000023  ( 0.000000  0.000000  0.004817)
 61:   1335.95   0.000074    0.37  0.000017  (-0.002666  0.003198  0.000000)
 62:   1361.47   0.000310    1.57  0.000071  ( 0.000001  0.000000 -0.008428)
 63:   1362.72   0.001210    6.11  0.000277  ( 0.015697  0.005530  0.000000)
 64:   1403.96   0.000944    4.77  0.000210  (-0.000000  0.000000 -0.014484)
 65:   1434.36   0.001765    8.92  0.000384  ( 0.007151  0.018244  0.000000)
 66:   1466.33   0.000160    0.81  0.000034  ( 0.000000  0.000000 -0.005838)
 67:   1514.22   0.001905    9.63  0.000393  (-0.019378 -0.004142  0.000000)
 68:   1516.45   0.001206    6.09  0.000248  (-0.000001 -0.000000 -0.015754)
 69:   1546.05   0.008848   44.71  0.001786  (-0.000017  0.042260  0.000000)
 70:   1559.28   0.002177   11.00  0.000436  (-0.000000 -0.000000  0.020871)
 71:   1644.92   0.000519    2.62  0.000099  (-0.000000  0.000003 -0.009926)
 72:   1648.14   0.044897  226.89  0.008501  (-0.001280  0.092191  0.000000)
 73:   1704.06   0.002007   10.14  0.000368  (-0.014272 -0.012801  0.000000)
 74:   1704.71   0.001659    8.38  0.000304  ( 0.003544 -0.017061 -0.000000)
 75:   1705.75   0.000198    1.00  0.000036  ( 0.000000 -0.000000  0.006023)
 76:   1706.59   0.000857    4.33  0.000157  (-0.000000 -0.000000 -0.012516)
 77:   3221.26   0.000754    3.81  0.000073  (-0.000084 -0.008545 -0.000002)
 78:   3221.30   0.000055    0.28  0.000005  ( 0.000000  0.000008 -0.002314)
 79:   3223.29   0.000119    0.60  0.000011  ( 0.001813  0.002864 -0.000000)
 80:   3223.33   0.000002    0.01  0.000000  (-0.000001 -0.000001 -0.000481)
 81:   3234.03   0.000096    0.49  0.000009  (-0.000405 -0.003021 -0.000036)
 82:   3234.04   0.000006    0.03  0.000001  ( 0.000019  0.000142 -0.000770)
 83:   3242.77   0.000001    0.01  0.000000  ( 0.000286 -0.000172  0.000000)
 84:   3242.78   0.000000    0.00  0.000000  (-0.000002  0.000001  0.000057)
 85:   3250.22   0.000000    0.00  0.000000  ( 0.000004  0.000005  0.000139)
 86:   3250.22   0.000002    0.01  0.000000  ( 0.000250  0.000297 -0.000002)
 87:   3304.17   0.007004   35.39  0.000661  (-0.000000  0.000000 -0.025719)
 88:   3305.12   0.004438   22.43  0.000419  ( 0.000781 -0.020455  0.000000)
 89:   3323.23   0.003601   18.20  0.000338  ( 0.000000  0.000000  0.018388)

* The epsilon (eps) is given for a Dirac delta lineshape.
** The dipole moment derivative (T) already includes vibrational overlap.

The first frequency considered to be a vibration is 6
The total number of vibrations considered is 84


--------------------------
THERMOCHEMISTRY AT 298.15K
--------------------------

Temperature         ... 298.15 K
Pressure            ... 1.00 atm
Total Mass          ... 221.28 AMU

Throughout the following assumptions are being made:
  (1) The electronic state is orbitally nondegenerate
  (2) There are no thermally accessible electronically excited states
  (3) Hindered rotations indicated by low frequency modes are not
      treated as such but are treated as vibrations and this may
      cause some error
  (4) All equations used are the standard statistical mechanics
      equations for an ideal gas
  (5) All vibrations are strictly harmonic

freq.      34.65  E(vib)   ...       0.54 
freq.      39.04  E(vib)   ...       0.54 
freq.      61.68  E(vib)   ...       0.51 
freq.      83.41  E(vib)   ...       0.48 
freq.     128.64  E(vib)   ...       0.43 
freq.     140.82  E(vib)   ...       0.41 
freq.     250.59  E(vib)   ...       0.30 
freq.     307.14  E(vib)   ...       0.26 
freq.     315.64  E(vib)   ...       0.25 
freq.     406.61  E(vib)   ...       0.19 
freq.     424.47  E(vib)   ...       0.18 
freq.     424.76  E(vib)   ...       0.18 
freq.     431.78  E(vib)   ...       0.18 
freq.     442.11  E(vib)   ...       0.17 
freq.     535.24  E(vib)   ...       0.13 
freq.     569.17  E(vib)   ...       0.11 
freq.     625.83  E(vib)   ...       0.09 
freq.     626.10  E(vib)   ...       0.09 
freq.     680.17  E(vib)   ...       0.08 
freq.     683.92  E(vib)   ...       0.07 
freq.     693.80  E(vib)   ...       0.07 
freq.     720.60  E(vib)   ...       0.07 
freq.     722.22  E(vib)   ...       0.07 
freq.     722.47  E(vib)   ...       0.07 
freq.     777.37  E(vib)   ...       0.05 
freq.     799.91  E(vib)   ...       0.05 
freq.     801.33  E(vib)   ...       0.05 
freq.     871.45  E(vib)   ...       0.04 
freq.     871.79  E(vib)   ...       0.04 
freq.     890.03  E(vib)   ...       0.04 
freq.     918.71  E(vib)   ...       0.03 
freq.     969.32  E(vib)   ...       0.03 
freq.     970.14  E(vib)   ...       0.03 
freq.     980.63  E(vib)   ...       0.02 
freq.     989.26  E(vib)   ...       0.02 
freq.    1025.67  E(vib)   ...       0.02 
freq.    1026.62  E(vib)   ...       0.02 
freq.    1029.54  E(vib)   ...       0.02 
freq.    1030.29  E(vib)   ...       0.02 
freq.    1061.85  E(vib)   ...       0.02 
freq.    1062.47  E(vib)   ...       0.02 
freq.    1063.34  E(vib)   ...       0.02 
freq.    1063.47  E(vib)   ...       0.02 
freq.    1088.87  E(vib)   ...       0.02 
freq.    1109.07  E(vib)   ...       0.02 
freq.    1115.46  E(vib)   ...       0.01 
freq.    1115.55  E(vib)   ...       0.01 
freq.    1147.45  E(vib)   ...       0.01 
freq.    1179.15  E(vib)   ...       0.01 
freq.    1179.22  E(vib)   ...       0.01 
freq.    1193.74  E(vib)   ...       0.01 
freq.    1194.98  E(vib)   ...       0.01 
freq.    1254.16  E(vib)   ...       0.01 
freq.    1284.61  E(vib)   ...       0.01 
freq.    1327.70  E(vib)   ...       0.01 
freq.    1335.95  E(vib)   ...       0.01 
freq.    1361.47  E(vib)   ...       0.01 
freq.    1362.72  E(vib)   ...       0.01 
freq.    1403.96  E(vib)   ...       0.00 
freq.    1434.36  E(vib)   ...       0.00 
freq.    1466.33  E(vib)   ...       0.00 
freq.    1514.22  E(vib)   ...       0.00 
freq.    1516.45  E(vib)   ...       0.00 
freq.    1546.05  E(vib)   ...       0.00 
freq.    1559.28  E(vib)   ...       0.00 
freq.    1644.92  E(vib)   ...       0.00 
freq.    1648.14  E(vib)   ...       0.00 
freq.    1704.06  E(vib)   ...       0.00 
freq.    1704.71  E(vib)   ...       0.00 
freq.    1705.75  E(vib)   ...       0.00 
freq.    1706.59  E(vib)   ...       0.00 
freq.    3221.26  E(vib)   ...       0.00 
freq.    3221.30  E(vib)   ...       0.00 
freq.    3223.29  E(vib)   ...       0.00 
freq.    3223.33  E(vib)   ...       0.00 
freq.    3234.03  E(vib)   ...       0.00 
freq.    3234.04  E(vib)   ...       0.00 
freq.    3242.77  E(vib)   ...       0.00 
freq.    3242.78  E(vib)   ...       0.00 
freq.    3250.22  E(vib)   ...       0.00 
freq.    3250.22  E(vib)   ...       0.00 
freq.    3304.17  E(vib)   ...       0.00 
freq.    3305.12  E(vib)   ...       0.00 
freq.    3323.23  E(vib)   ...       0.00 

------------
INNER ENERGY
------------

The inner energy is: U= E(el) + E(ZPE) + E(vib) + E(rot) + E(trans)
    E(el)   - is the total energy from the electronic structure calculation
              = E(kin-el) + E(nuc-el) + E(el-el) + E(nuc-nuc)
    E(ZPE)  - the the zero temperature vibrational energy from the frequency calculation
    E(vib)  - the the finite temperature correction to E(ZPE) due to population
              of excited vibrational states
    E(rot)  - is the rotational thermal energy
    E(trans)- is the translational thermal energy

Summary of contributions to the inner energy U:
Electronic energy                ...   -688.04456747 Eh
Zero point energy                ...      0.24912848 Eh     156.33 kcal/mol
Thermal vibrational correction   ...      0.00988290 Eh       6.20 kcal/mol
Thermal rotational correction    ...      0.00141627 Eh       0.89 kcal/mol
Thermal translational correction ...      0.00141627 Eh       0.89 kcal/mol
-----------------------------------------------------------------------
Total thermal energy                   -687.78272355 Eh


Summary of corrections to the electronic energy:
(perhaps to be used in another calculation)
Total thermal correction                  0.01271545 Eh       7.98 kcal/mol
Non-thermal (ZPE) correction              0.24912848 Eh     156.33 kcal/mol
-----------------------------------------------------------------------
Total correction                          0.26184393 Eh     164.31 kcal/mol


--------
ENTHALPY
--------

The enthalpy is H = U + kB*T
                kB is Boltzmann's constant
Total free energy                 ...   -687.78272355 Eh 
Thermal Enthalpy correction       ...      0.00094421 Eh       0.59 kcal/mol
-----------------------------------------------------------------------
Total Enthalpy                    ...   -687.78177934 Eh


Note: Rotational entropy computed according to Herzberg 
Infrared and Raman Spectra, Chapter V,1, Van Nostrand Reinhold, 1945 
Point Group:  C2, Symmetry Number:   2  
Rotational constants in cm-1:     0.052647     0.006719     0.006443 

Vibrational entropy computed according to the QRRHO of S. Grimme
Chem.Eur.J. 2012 18 9955


-------
ENTROPY
-------

The entropy contributions are T*S = T*(S(el)+S(vib)+S(rot)+S(trans))
     S(el)   - electronic entropy
     S(vib)  - vibrational entropy
     S(rot)  - rotational entropy
     S(trans)- translational entropy
The entropies will be listed as multiplied by the temperature to get
units of energy

Electronic entropy                ...      0.00000000 Eh      0.00 kcal/mol
Vibrational entropy               ...      0.01694332 Eh     10.63 kcal/mol
Rotational entropy                ...      0.01498960 Eh      9.41 kcal/mol
Translational entropy             ...      0.01999615 Eh     12.55 kcal/mol
-----------------------------------------------------------------------
Final entropy term                ...      0.05192907 Eh     32.59 kcal/mol

In case the symmetry of your molecule has not been determined correctly
or in case you have a reason to use a different symmetry number we print 
out the resulting rotational entropy values for sn=1,12 :
 --------------------------------------------------------
|  sn= 1 | S(rot)=       0.01564406 Eh      9.82 kcal/mol|
|  sn= 2 | S(rot)=       0.01498960 Eh      9.41 kcal/mol|
|  sn= 3 | S(rot)=       0.01460677 Eh      9.17 kcal/mol|
|  sn= 4 | S(rot)=       0.01433514 Eh      9.00 kcal/mol|
|  sn= 5 | S(rot)=       0.01412446 Eh      8.86 kcal/mol|
|  sn= 6 | S(rot)=       0.01395231 Eh      8.76 kcal/mol|
|  sn= 7 | S(rot)=       0.01380677 Eh      8.66 kcal/mol|
|  sn= 8 | S(rot)=       0.01368069 Eh      8.58 kcal/mol|
|  sn= 9 | S(rot)=       0.01356948 Eh      8.51 kcal/mol|
|  sn=10 | S(rot)=       0.01347000 Eh      8.45 kcal/mol|
|  sn=11 | S(rot)=       0.01338001 Eh      8.40 kcal/mol|
|  sn=12 | S(rot)=       0.01329786 Eh      8.34 kcal/mol|
 --------------------------------------------------------


-------------------
GIBBS FREE ENERGY
-------------------

The Gibbs free energy is G = H - T*S

Total enthalpy                    ...   -687.78177934 Eh 
Total entropy correction          ...     -0.05192907 Eh    -32.59 kcal/mol
-----------------------------------------------------------------------
Final Gibbs free energy         ...   -687.83370841 Eh

For completeness - the Gibbs free energy minus the electronic energy
G-E(el)                           ...      0.21085907 Eh    132.32 kcal/mol


Timings for individual modules:

Sum of individual times         ...     1404.875 sec (=  23.415 min)
GTO integral calculation        ...        5.571 sec (=   0.093 min)   0.4 %
SCF iterations                  ...      651.916 sec (=  10.865 min)  46.4 %
SCF Gradient evaluation         ...      164.642 sec (=   2.744 min)  11.7 %
Geometry relaxation             ...        0.671 sec (=   0.011 min)   0.0 %
Analytical frequency calculation...      582.074 sec (=   9.701 min)  41.4 %
                             ****ORCA TERMINATED NORMALLY****
TOTAL RUN TIME: 0 days 0 hours 23 minutes 27 seconds 619 msec
