19
Properties=species:S:1:pos:R:3 energy=-8347.217610677084 free_energy=-8347.217610677084 pbc="F F F"
C       -0.00000000       0.00000000       0.82476700
N       -0.00341000       1.16270500       0.14519500
N        0.00340900      -1.16270500       0.14519600
C        0.35512700       1.42099500      -1.24863600
C       -0.35512700      -1.42099500      -1.24863600
H        0.94369500       2.35069900      -1.28775500
H       -0.94369600      -2.35069900      -1.28775400
H        0.98465500       0.61819300      -1.64850800
H       -0.98465500      -0.61819300      -1.64850700
H       -0.52179000       1.55300400      -1.90432100
H        0.52179000      -1.55300400      -1.90432000
C       -0.17480300       2.38402100       0.91577800
C        0.17480300      -2.38402100       0.91577800
H       -0.39016400       2.12278100       1.95825200
H        0.39016400      -2.12278200       1.95825300
H        0.73429100       3.01063100       0.87775300
H       -0.73429000      -3.01063100       0.87775200
H       -1.01288900       2.98264500       0.51964500
H        1.01288900      -2.98264400       0.51964500
