      -----------------------------------------------------------      
     |                   =====================                   |     
     |                           x T B                           |     
     |                   =====================                   |     
     |                         S. Grimme                         |     
     |          Mulliken Center for Theoretical Chemistry        |     
     |                    University of Bonn                     |     
      -----------------------------------------------------------      

   * xtb version 6.6.1 (8d0f1dd) compiled by 'conda@1efc2f54142f' on 2023-08-01

   xtb is free software: you can redistribute it and/or modify it under
   the terms of the GNU Lesser General Public License as published by
   the Free Software Foundation, either version 3 of the License, or
   (at your option) any later version.
   
   xtb is distributed in the hope that it will be useful,
   but WITHOUT ANY WARRANTY; without even the implied warranty of
   MERCHANTABILITY or FITNESS FOR A PARTICULAR PURPOSE.  See the
   GNU Lesser General Public License for more details.
   
   Cite this work as:
   * C. Bannwarth, E. Caldeweyher, S. Ehlert, A. Hansen, P. Pracht,
     J. Seibert, S. Spicher, S. Grimme, WIREs Comput. Mol. Sci., 2020, 11,
     e01493. DOI: 10.1002/wcms.1493
   
   for GFN2-xTB:
   * C. Bannwarth, S. Ehlert and S. Grimme., J. Chem. Theory Comput., 2019,
     15, 1652-1671. DOI: 10.1021/acs.jctc.8b01176
   for GFN1-xTB:
   * S. Grimme, C. Bannwarth, P. Shushkov, J. Chem. Theory Comput., 2017,
     13, 1989-2009. DOI: 10.1021/acs.jctc.7b00118
   for GFN0-xTB:
   * P. Pracht, E. Caldeweyher, S. Ehlert, S. Grimme, ChemRxiv, 2019, preprint.
     DOI: 10.26434/chemrxiv.8326202.v1
   for GFN-FF:
   * S. Spicher and S. Grimme, Angew. Chem. Int. Ed., 2020, 59, 15665-15673.
     DOI: 10.1002/anie.202004239
   
   for ALPB and GBSA implicit solvation:
   * S. Ehlert, M. Stahn, S. Spicher, S. Grimme, J. Chem. Theory Comput.,
     2021, 17, 4250-4261. DOI: 10.1021/acs.jctc.1c00471
   
   for DFT-D4:
   * E. Caldeweyher, C. Bannwarth and S. Grimme, J. Chem. Phys., 2017,
     147, 034112. DOI: 10.1063/1.4993215
   * E. Caldeweyher, S. Ehlert, A. Hansen, H. Neugebauer, S. Spicher,
     C. Bannwarth and S. Grimme, J. Chem. Phys., 2019, 150, 154122.
     DOI: 10.1063/1.5090222
   * E. Caldeweyher, J.-M. Mewes, S. Ehlert and S. Grimme, Phys. Chem. Chem. Phys.
     2020, 22, 8499-8512. DOI: 10.1039/D0CP00502A
   
   for sTDA-xTB:
   * S. Grimme and C. Bannwarth, J. Chem. Phys., 2016, 145, 054103.
     DOI: 10.1063/1.4959605
   
   in the mass-spec context:
   * V. Asgeirsson, C. Bauer and S. Grimme, Chem. Sci., 2017, 8, 4879.
     DOI: 10.1039/c7sc00601b
   * J. Koopman and S. Grimme, ACS Omega 2019, 4, 12, 15120-15133.
     DOI: 10.1021/acsomega.9b02011
   
   for metadynamics refer to:
   * S. Grimme, J. Chem. Theory Comput., 2019, 155, 2847-2862
     DOI: 10.1021/acs.jctc.9b00143
   
   for SPH calculations refer to:
   * S. Spicher and S. Grimme, J. Chem. Theory Comput., 2021, 17, 1701-1714
     DOI: 10.1021/acs.jctc.0c01306
   
   with help from (in alphabetical order)
   P. Atkinson, C. Bannwarth, F. Bohle, G. Brandenburg, E. Caldeweyher
   M. Checinski, S. Dohm, S. Ehlert, S. Ehrlich, I. Gerasimov, C. Hölzer
   A. Katbashev, J. Koopman, C. Lavigne, S. Lehtola, F. März, M. Müller,
   F. Musil, H. Neugebauer, J. Pisarek, C. Plett, P. Pracht, F. Pultar,
   J. Seibert, P. Shushkov, S. Spicher, M. Stahn, M. Steiner, T. Strunk,
   J. Stückrath, T. Rose, and J. Unsleber
   
 * started run on 2024/02/12 at 14:13:51.414     

           -------------------------------------------------
          |                Calculation Setup                |
           -------------------------------------------------

          program call               : xtb struc.xyz --gfn2 --ceasefiles --opt
          hostname                   : node021
          coordinate file            : struc.xyz
          omp threads                :                     1

   ID    Z sym.   atoms
    1    6 C      1, 2, 5-7, 11-14, 27, 28
    2    7 N      3, 4
    3    1 H      8-10, 15-26, 29-34

           -------------------------------------------------
          |                 G F N 2 - x T B                 |
           -------------------------------------------------

        Reference                      10.1021/acs.jctc.8b01176
      * Hamiltonian:
        H0-scaling (s, p, d)           1.850000    2.230000    2.230000
        zeta-weighting                 0.500000
      * Dispersion:
        s8                             2.700000
        a1                             0.520000
        a2                             5.000000
        s9                             5.000000
      * Repulsion:
        kExp                           1.500000    1.000000
        rExp                           1.000000
      * Coulomb:
        alpha                          2.000000
        third order                    shell-resolved
        anisotropic                    true
        a3                             3.000000
        a5                             4.000000
        cn-shift                       1.200000
        cn-exp                         4.000000
        max-rad                        5.000000


          ...................................................
          :                      SETUP                      :
          :.................................................:
          :  # basis functions                  73          :
          :  # atomic orbitals                  73          :
          :  # shells                           47          :
          :  # electrons                        74          :
          :  max. iterations                   250          :
          :  Hamiltonian                  GFN2-xTB          :
          :  restarted?                      false          :
          :  GBSA solvation                  false          :
          :  PC potential                    false          :
          :  electronic temp.          300.0000000     K    :
          :  accuracy                    1.0000000          :
          :  -> integral cutoff          0.2500000E+02      :
          :  -> integral neglect         0.1000000E-07      :
          :  -> SCF convergence          0.1000000E-05 Eh   :
          :  -> wf. convergence          0.1000000E-03 e    :
          :  Broyden damping             0.4000000          :
          ...................................................

 iter      E             dE          RMSdq      gap      omega  full diag
   1    -40.2381292 -0.402381E+02  0.272E+00    5.43       0.0  T
   2    -40.3426053 -0.104476E+00  0.192E+00    4.52       1.0  T
   3    -40.3498139 -0.720859E-02  0.108E+00    4.67       1.0  T
   4    -40.3497326  0.812358E-04  0.294E-01    4.38       1.0  T
   5    -40.3508658 -0.113314E-02  0.838E-02    4.44       1.0  T
   6    -40.3509589 -0.931834E-04  0.407E-02    4.43       1.0  T
   7    -40.3509652 -0.624197E-05  0.189E-02    4.45       1.0  T
   8    -40.3509691 -0.393219E-05  0.182E-03    4.44       9.4  T
   9    -40.3509691 -0.869619E-08  0.898E-04    4.44      19.1  T
  10    -40.3509691 -0.876440E-09  0.444E-04    4.44      38.6  T

   *** convergence criteria satisfied after 10 iterations ***

         #    Occupation            Energy/Eh            Energy/eV
      -------------------------------------------------------------
         1        2.0000           -0.8813873             -23.9838
       ...           ...                  ...                  ...
        31        2.0000           -0.5837502             -15.8847
        32        2.0000           -0.5825791             -15.8528
        33        2.0000           -0.5799906             -15.7823
        34        2.0000           -0.5755777             -15.6623
        35        2.0000           -0.5733082             -15.6005
        36        2.0000           -0.5719897             -15.5646
        37        2.0000           -0.5645507             -15.3622 (HOMO)
        38                         -0.4013130             -10.9203 (LUMO)
        39                         -0.3610581              -9.8249
        40                         -0.1958522              -5.3294
        41                         -0.1522829              -4.1438
        42                         -0.0910652              -2.4780
       ...                                ...                  ...
        73                          0.4836716              13.1614
      -------------------------------------------------------------
                  HL-Gap            0.1632377 Eh            4.4419 eV
             Fermi-level           -0.4829319 Eh          -13.1412 eV

 SCC (total)                   0 d,  0 h,  0 min,  0.182 sec
 SCC setup                      ...        0 min,  0.001 sec (  0.314%)
 Dispersion                     ...        0 min,  0.000 sec (  0.256%)
 classical contributions        ...        0 min,  0.000 sec (  0.067%)
 integral evaluation            ...        0 min,  0.006 sec (  3.145%)
 iterations                     ...        0 min,  0.157 sec ( 86.643%)
 molecular gradient             ...        0 min,  0.017 sec (  9.189%)
 printout                       ...        0 min,  0.001 sec (  0.375%)

         :::::::::::::::::::::::::::::::::::::::::::::::::::::
         ::                     SUMMARY                     ::
         :::::::::::::::::::::::::::::::::::::::::::::::::::::
         :: total energy             -39.739002189274 Eh    ::
         :: gradient norm              0.084486487569 Eh/a0 ::
         :: HOMO-LUMO gap              4.441925048304 eV    ::
         ::.................................................::
         :: SCC energy               -40.350969121105 Eh    ::
         :: -> isotropic ES            0.077095844714 Eh    ::
         :: -> anisotropic ES         -0.005118571129 Eh    ::
         :: -> anisotropic XC          0.026213641061 Eh    ::
         :: -> dispersion             -0.028062235501 Eh    ::
         :: repulsion energy           0.611700144604 Eh    ::
         :: add. restraining           0.000000000000 Eh    ::
         :: total charge               1.000000000000 e     ::
         :::::::::::::::::::::::::::::::::::::::::::::::::::::

      ----------------------------------------------------------- 
     |                   =====================                   |
     |                        A N C O P T                        |
     |                   =====================                   |
     |               Approximate Normal Coordinate               |
     |                Rational Function Optimizer                |
      ----------------------------------------------------------- 

Optimization log is written to '/dev/null'

          ...................................................
          :                      SETUP                      :
          :.................................................:
          :   optimization level             crude          :
          :   max. optcycles                   200          :
          :   ANC micro-cycles                  20          :
          :   degrees of freedom                96          :
          :.................................................:
          :   RF solver                   davidson          :
          :   write xtbopt.log                true          :
          :   linear?                        false          :
          :   energy convergence         0.5000000E-03 Eh   :
          :   grad. convergence          0.1000000E-01 Eh/α :
          :   maxmium RF displ.          1.0000000          :
          :   Hlow (freq-cutoff)         0.5000000E-02      :
          :   Hmax (freq-cutoff)         5.0000000          :
          :   S6 in model hess.         20.0000000          :
          ...................................................

generating ANC from model Hessian ...
Using Lindh-Hessian (1995)
 Shifting diagonal of input Hessian by    4.4740902542594590E-003
 Lowest  eigenvalues of input Hessian
    0.000000    0.000000    0.000000    0.000000    0.000000    0.000000
    0.005000    0.005354    0.005511    0.007755    0.009106    0.009486
    0.011373    0.013513    0.013892    0.014302    0.014464    0.014564
 Highest eigenvalues
    1.325254    1.694249    1.984945    2.026564    2.153693    2.206342


........................................................................
.............................. CYCLE    1 ..............................
........................................................................

 iter      E             dE          RMSdq      gap      omega  full diag
   1    -40.3509691 -0.403510E+02  0.860E-05    4.44       0.0  T
   2    -40.3509691 -0.138130E-10  0.471E-05    4.44     363.9  T
   3    -40.3509691  0.192557E-11  0.177E-05    4.44     969.1  T
     SCC iter.                  ...        0 min,  0.006 sec
     gradient                   ...        0 min,  0.017 sec
 * total energy  :   -39.7390022 Eh     change       -0.3757911E-08 Eh
   gradient norm :     0.0844866 Eh/α   predicted     0.0000000E+00 (-100.00%)
   displ. norm   :     0.5281121 α      lambda       -0.3311693E-01
   maximum displ.:     0.1830573 α      in ANC's #52, #30, #22, ...

........................................................................
.............................. CYCLE    2 ..............................
........................................................................

 iter      E             dE          RMSdq      gap      omega  full diag
   1    -40.3650081 -0.403650E+02  0.470E-01    4.70       0.0  T
   2    -40.3650755 -0.673457E-04  0.275E-01    4.70       1.0  T
   3    -40.3650717  0.374314E-05  0.257E-02    4.70       1.0  T
   4    -40.3650854 -0.136848E-04  0.990E-03    4.70       1.7  T
   5    -40.3650868 -0.136537E-05  0.479E-03    4.70       3.6  T
   6    -40.3650868 -0.599673E-07  0.173E-03    4.70       9.9  T
   7    -40.3650869 -0.436734E-07  0.422E-04    4.70      40.6  T
   8    -40.3650869 -0.697867E-09  0.182E-04    4.70      94.3  T
     SCC iter.                  ...        0 min,  0.013 sec
     gradient                   ...        0 min,  0.016 sec
 * total energy  :   -39.7615917 Eh     change       -0.2258947E-01 Eh
   gradient norm :     0.0347501 Eh/α   predicted    -0.2117725E-01 (  -6.25%)
   displ. norm   :     0.5173322 α      lambda       -0.1075034E-01
   maximum displ.:     0.2200977 α      in ANC's #11, #14, #10, ...

........................................................................
.............................. CYCLE    3 ..............................
........................................................................

 iter      E             dE          RMSdq      gap      omega  full diag
   1    -40.3680447 -0.403680E+02  0.244E-01    4.73       0.0  T
   2    -40.3680641 -0.194221E-04  0.143E-01    4.73       1.0  T
   3    -40.3680610  0.310716E-05  0.180E-02    4.73       1.0  T
   4    -40.3680678 -0.679551E-05  0.631E-03    4.73       2.7  T
   5    -40.3680684 -0.638460E-06  0.278E-03    4.73       6.2  T
   6    -40.3680685 -0.263972E-07  0.667E-04    4.73      25.7  T
   7    -40.3680685 -0.555800E-08  0.227E-04    4.73      75.6  T
     SCC iter.                  ...        0 min,  0.011 sec
     gradient                   ...        0 min,  0.016 sec
 * total energy  :   -39.7688545 Eh     change       -0.7262796E-02 Eh
   gradient norm :     0.0179013 Eh/α   predicted    -0.6813749E-02 (  -6.18%)
   displ. norm   :     0.4639328 α      lambda       -0.3762805E-02
   maximum displ.:     0.2540874 α      in ANC's #11, #14, #10, ...

........................................................................
.............................. CYCLE    4 ..............................
........................................................................

 iter      E             dE          RMSdq      gap      omega  full diag
   1    -40.3716180 -0.403716E+02  0.112E-01    4.75       0.0  T
   2    -40.3716233 -0.527001E-05  0.658E-02    4.74       1.0  T
   3    -40.3716209  0.237916E-05  0.126E-02    4.75       1.4  T
   4    -40.3716245 -0.362002E-05  0.361E-03    4.75       4.8  T
   5    -40.3716247 -0.170875E-06  0.148E-03    4.75      11.6  T
   6    -40.3716247 -0.246409E-08  0.301E-04    4.75      57.0  T
   7    -40.3716247 -0.146944E-08  0.130E-04    4.75     131.7  T
     SCC iter.                  ...        0 min,  0.011 sec
     gradient                   ...        0 min,  0.016 sec
 * total energy  :   -39.7716251 Eh     change       -0.2770598E-02 Eh
   gradient norm :     0.0151430 Eh/α   predicted    -0.2286401E-02 ( -17.48%)
   displ. norm   :     0.4670658 α      lambda       -0.2334439E-02
   maximum displ.:     0.2617547 α      in ANC's #11, #5, #7, ...

........................................................................
.............................. CYCLE    5 ..............................
........................................................................

 iter      E             dE          RMSdq      gap      omega  full diag
   1    -40.3752916 -0.403753E+02  0.948E-02    4.76       0.0  T
   2    -40.3752960 -0.435535E-05  0.557E-02    4.76       1.0  T
   3    -40.3752947  0.123657E-05  0.102E-02    4.76       1.7  T
   4    -40.3752969 -0.216131E-05  0.304E-03    4.76       5.6  T
   5    -40.3752970 -0.976939E-07  0.140E-03    4.76      12.2  T
   6    -40.3752970 -0.647115E-08  0.462E-04    4.76      37.1  T
   7    -40.3752970 -0.352357E-08  0.864E-05    4.76     198.4  T
     SCC iter.                  ...        0 min,  0.011 sec
     gradient                   ...        0 min,  0.017 sec
 * total energy  :   -39.7733427 Eh     change       -0.1717681E-02 Eh
   gradient norm :     0.0133285 Eh/α   predicted    -0.1421863E-02 ( -17.22%)
   displ. norm   :     0.4161147 α      lambda       -0.1461885E-02
   maximum displ.:     0.2016386 α      in ANC's #11, #5, #13, ...

........................................................................
.............................. CYCLE    6 ..............................
........................................................................

 iter      E             dE          RMSdq      gap      omega  full diag
   1    -40.3795546 -0.403796E+02  0.876E-02    4.76       0.0  T
   2    -40.3795578 -0.320179E-05  0.516E-02    4.76       1.0  T
   3    -40.3795573  0.469960E-06  0.758E-03    4.76       2.3  T
   4    -40.3795584 -0.114606E-05  0.240E-03    4.76       7.1  T
   5    -40.3795585 -0.392619E-07  0.120E-03    4.76      14.3  T
   6    -40.3795585 -0.647447E-08  0.380E-04    4.76      45.1  T
   7    -40.3795585 -0.304736E-08  0.683E-05    4.76     251.1  T
     SCC iter.                  ...        0 min,  0.011 sec
     gradient                   ...        0 min,  0.017 sec
 * total energy  :   -39.7744253 Eh     change       -0.1082526E-02 Eh
   gradient norm :     0.0121647 Eh/α   predicted    -0.8575195E-03 ( -20.79%)
   displ. norm   :     0.3978770 α      lambda       -0.1082710E-02
   maximum displ.:     0.1745505 α      in ANC's #11, #5, #13, ...

........................................................................
.............................. CYCLE    7 ..............................
........................................................................

 iter      E             dE          RMSdq      gap      omega  full diag
   1    -40.3827447 -0.403827E+02  0.832E-02    4.77       0.0  T
   2    -40.3827470 -0.223896E-05  0.491E-02    4.77       1.0  T
   3    -40.3827468  0.191437E-06  0.576E-03    4.76       3.0  T
   4    -40.3827475 -0.700525E-06  0.207E-03    4.77       8.3  T
   5    -40.3827475 -0.289258E-07  0.105E-03    4.76      16.4  T
   6    -40.3827475 -0.752550E-08  0.256E-04    4.77      67.0  T
   7    -40.3827475 -0.135680E-08  0.550E-05    4.77     311.8  T
     SCC iter.                  ...        0 min,  0.011 sec
     gradient                   ...        0 min,  0.016 sec
 * total energy  :   -39.7752650 Eh     change       -0.8396842E-03 Eh
   gradient norm :     0.0118866 Eh/α   predicted    -0.6270677E-03 ( -25.32%)
   displ. norm   :     0.4426397 α      lambda       -0.1062388E-02
   maximum displ.:     0.1913985 α      in ANC's #13, #5, #4, ...

........................................................................
.............................. CYCLE    8 ..............................
........................................................................

 iter      E             dE          RMSdq      gap      omega  full diag
   1    -40.3855890 -0.403856E+02  0.911E-02    4.77       0.0  T
   2    -40.3855925 -0.345057E-05  0.535E-02    4.77       1.0  T
   3    -40.3855926 -0.172610E-06  0.567E-03    4.77       3.0  T
   4    -40.3855930 -0.349287E-06  0.244E-03    4.77       7.0  T
   5    -40.3855930 -0.641871E-07  0.128E-03    4.77      13.4  T
   6    -40.3855931 -0.908839E-08  0.198E-04    4.77      86.7  T
   7    -40.3855931 -0.647191E-09  0.699E-05    4.77     245.3  T
     SCC iter.                  ...        0 min,  0.011 sec
     gradient                   ...        0 min,  0.016 sec
 * total energy  :   -39.7760613 Eh     change       -0.7963678E-03 Eh
   gradient norm :     0.0120876 Eh/α   predicted    -0.6352802E-03 ( -20.23%)
   displ. norm   :     0.4924589 α      lambda       -0.1057773E-02
   maximum displ.:     0.1926012 α      in ANC's #11, #4, #2, ...

........................................................................
.............................. CYCLE    9 ..............................
........................................................................

 iter      E             dE          RMSdq      gap      omega  full diag
   1    -40.3853404 -0.403853E+02  0.107E-01    4.77       0.0  T
   2    -40.3853467 -0.636030E-05  0.627E-02    4.77       1.0  T
   3    -40.3853472 -0.513009E-06  0.777E-03    4.77       2.2  T
   4    -40.3853477 -0.457529E-06  0.335E-03    4.77       5.1  T
   5    -40.3853478 -0.912672E-07  0.188E-03    4.77       9.1  T
   6    -40.3853478 -0.213179E-07  0.176E-04    4.77      97.5  T
   7    -40.3853478 -0.590539E-09  0.747E-05    4.77     229.6  T
     SCC iter.                  ...        0 min,  0.011 sec
     gradient                   ...        0 min,  0.016 sec
 * total energy  :   -39.7765767 Eh     change       -0.5154014E-03 Eh
   gradient norm :     0.0113293 Eh/α   predicted    -0.6571518E-03 (  27.50%)
   displ. norm   :     0.3637210 α      lambda       -0.8349494E-03
   maximum displ.:     0.1585447 α      in ANC's #13, #10, #12, ...

........................................................................
.............................. CYCLE   10 ..............................
........................................................................

 iter      E             dE          RMSdq      gap      omega  full diag
   1    -40.3844777 -0.403845E+02  0.898E-02    4.78       0.0  T
   2    -40.3844910 -0.132621E-04  0.510E-02    4.77       1.0  T
   3    -40.3844913 -0.277035E-06  0.124E-02    4.78       1.4  T
   4    -40.3844919 -0.641022E-06  0.346E-03    4.77       5.0  T
   5    -40.3844921 -0.182898E-06  0.183E-03    4.78       9.3  T
   6    -40.3844921 -0.137620E-07  0.264E-04    4.78      64.9  T
   7    -40.3844921 -0.133233E-08  0.101E-04    4.78     169.7  T
     SCC iter.                  ...        0 min,  0.011 sec
     gradient                   ...        0 min,  0.016 sec
 * total energy  :   -39.7769182 Eh     change       -0.3414992E-03 Eh
   gradient norm :     0.0123814 Eh/α   predicted    -0.4727046E-03 (  38.42%)
   displ. norm   :     0.0964596 α      lambda       -0.3401247E-03
   maximum displ.:     0.0456409 α      in ANC's #8, #11, #2, ...

........................................................................
.............................. CYCLE   11 ..............................
........................................................................

 iter      E             dE          RMSdq      gap      omega  full diag
   1    -40.3937002 -0.403937E+02  0.497E-02    4.78       0.0  T
   2    -40.3937085 -0.836943E-05  0.272E-02    4.78       1.0  T
   3    -40.3937089 -0.313052E-06  0.927E-03    4.78       1.8  T
   4    -40.3937090 -0.149801E-06  0.238E-03    4.78       7.2  T
   5    -40.3937091 -0.656640E-07  0.132E-03    4.78      12.9  T
   6    -40.3937091 -0.960821E-08  0.487E-04    4.78      35.2  T
   7    -40.3937091 -0.166050E-08  0.933E-05    4.78     183.8  T
     SCC iter.                  ...        0 min,  0.011 sec
     gradient                   ...        0 min,  0.017 sec
 * total energy  :   -39.7769111 Eh     change        0.7165062E-05 Eh
   gradient norm :     0.0131284 Eh/α   predicted    -0.1716448E-03 (*******%)
   displ. norm   :     0.1858021 α      lambda       -0.5531279E-03
   maximum displ.:     0.1162724 α      in ANC's #11, #12, #2, ...

........................................................................
.............................. CYCLE   12 ..............................
........................................................................

 iter      E             dE          RMSdq      gap      omega  full diag
   1    -40.3876560 -0.403877E+02  0.572E-02    4.78       0.0  T
   2    -40.3876650 -0.898651E-05  0.319E-02    4.78       1.0  T
   3    -40.3876654 -0.372324E-06  0.941E-03    4.78       1.8  T
   4    -40.3876655 -0.829350E-07  0.228E-03    4.78       7.5  T
   5    -40.3876655 -0.392928E-07  0.134E-03    4.78      12.8  T
   6    -40.3876655 -0.119040E-07  0.318E-04    4.78      54.0  T
   7    -40.3876655 -0.953904E-09  0.737E-05    4.78     232.6  T
     SCC iter.                  ...        0 min,  0.011 sec
     gradient                   ...        0 min,  0.017 sec
 * total energy  :   -39.7770816 Eh     change       -0.1704968E-03 Eh
   gradient norm :     0.0102275 Eh/α   predicted    -0.2861130E-03 (  67.81%)
   displ. norm   :     0.1139668 α      lambda       -0.3623268E-03
   maximum displ.:     0.0525144 α      in ANC's #3, #10, #8, ...

........................................................................
.............................. CYCLE   13 ..............................
........................................................................

 iter      E             dE          RMSdq      gap      omega  full diag
   1    -40.3857988 -0.403858E+02  0.448E-02    4.78       0.0  T
   2    -40.3858044 -0.559013E-05  0.248E-02    4.78       1.0  T
   3    -40.3858046 -0.262337E-06  0.769E-03    4.78       2.2  T
   4    -40.3858047 -0.684917E-07  0.165E-03    4.78      10.4  T
   5    -40.3858047 -0.439096E-08  0.970E-04    4.78      17.7  T
   6    -40.3858047 -0.829310E-08  0.204E-04    4.78      83.9  T
     SCC iter.                  ...        0 min,  0.010 sec
     gradient                   ...        0 min,  0.017 sec
 * total energy  :   -39.7771844 Eh     change       -0.1028232E-03 Eh
   gradient norm :     0.0069756 Eh/α   predicted    -0.1835199E-03 (  78.48%)
   displ. norm   :     0.1058393 α      lambda       -0.2075342E-03
   maximum displ.:     0.0484396 α      in ANC's #12, #10, #13, ...

   *** GEOMETRY OPTIMIZATION CONVERGED AFTER 13 ITERATIONS ***

------------------------------------------------------------------------
 total energy gain   :        -0.0381822 Eh      -23.9597 kcal/mol
 total RMSD          :         0.5936427 a0        0.3141 Å
 total power (kW/mol):        -7.7113316 (step) -208.9196 (real)
------------------------------------------------------------------------

 ANCopt (total)                0 d,  0 h,  0 min,  0.480 sec
 optimizer setup                ...        0 min,  0.000 sec (  0.027%)
 model hessian                  ...        0 min,  0.039 sec (  8.074%)
 ANC generation                 ...        0 min,  0.002 sec (  0.317%)
 coordinate transformation      ...        0 min,  0.000 sec (  0.068%)
 single point calculation       ...        0 min,  0.433 sec ( 90.299%)
 optimization log               ...        0 min,  0.002 sec (  0.486%)
 hessian update                 ...        0 min,  0.000 sec (  0.060%)
 rational function              ...        0 min,  0.002 sec (  0.487%)

================
 final structure:
================
34
 xtb: 6.6.1 (8d0f1dd)
C           -2.25878616081910        0.79434318365484        0.73420073431075
C            2.35152638051410       -0.40802355486338       -0.61016142785586
N           -1.11808768692894       -0.02188559585158        0.27743366978426
N            0.91801826620093       -0.55841846609634       -0.29138046926840
C           -1.11655344187954       -1.34490518700203       -0.03814616108449
C            0.15397081794013       -1.67921908298291       -0.39539068103538
C            0.12376938893298        0.42738427607789        0.11769156143565
H           -1.98775025516372       -1.96298159464388        0.00058216560375
H            0.53596380934131       -2.63012822005988       -0.70366361772124
H            0.43052328345241        1.43744073657243        0.29163852753147
C           -2.27764893908588        2.09144061663525       -0.08109087487414
C            2.94669726332893       -1.76460334769200       -0.97569632575745
C            3.05898515958685        0.15480539433096        0.62355066231900
C           -3.55456615188499        0.01636487186536        0.52080914473690
H           -3.26983335476480        2.53420162575342       -0.03462295715074
H            2.44324013004846       -2.19988162799622       -1.83815284180412
H            2.89090283591950       -0.48634009184873        1.48576229084098
H           -3.66926509500119       -0.27945975460648       -0.52058124456224
H           -1.57191969254412        2.82372718524717        0.30749186807034
H            2.90677050619054       -2.45612558857777       -0.13207547077065
H            4.12784156059305        0.19984328072064        0.43934858710239
H           -4.39742768693560        0.65177175556630        0.78298713389063
H           -2.05013302018005        1.89701625415116       -1.13031076303329
H            3.99428669766656       -1.62444145415454       -1.24355925075792
H            2.71982817868904        1.15891162449265        0.86220321200058
H           -3.59970791832118       -0.86136001472711        1.15998888958478
C           -2.05542704771096        1.08079724005007        2.22382006305682
C            2.46599908416072        0.54849500810433       -1.79939312311399
H           -1.14408515615691        1.64332268227285        2.39710703746392
H            2.09191566450402        1.53883661909703       -1.55516393520129
H           -2.89064408556753        1.66339041034290        2.59751734079119
H            1.91574333132319        0.16552287528133       -2.65618039118892
H            3.50871523851103        0.64570202985502       -2.08581851391014
H           -2.00460640075937        0.15678797803104        2.79088477776670

 Bond Distances (Angstroems)
 ---------------------------
C1-N3=1.4751         C1-C11=1.5322        C1-C14=1.5264        C1-C27=1.5305        C2-N4=1.4762         C2-C12=1.5258        
C2-C13=1.5295        C2-C28=1.5305        N3-C1=1.4751         N3-C5=1.3601         N3-C7=1.3303         N4-C2=1.4762         
N4-C6=1.3604         N4-C7=1.3304         C5-N3=1.3601         C5-C6=1.3615         C5-H8=1.0689         C6-N4=1.3604         
C6-C5=1.3615         C6-H9=1.0701         C7-N3=1.3303         C7-N4=1.3304         C7-H10=1.0698        H8-C5=1.0689         
H9-C6=1.0701         H10-C7=1.0698        C11-C1=1.5322        C11-H15=1.0875       C11-H19=1.0887       C11-H23=1.0911       
C12-C2=1.5258        C12-H16=1.0894       C12-H20=1.0916       C12-H24=1.0903       C13-C2=1.5295        C13-H17=1.0875       
C13-H21=1.0855       C13-H25=1.0864       C14-C1=1.5264        C14-H18=1.0887       C14-H22=1.0876       C14-H26=1.0867       
H15-C11=1.0875       H16-C12=1.0894       H17-C13=1.0875       H18-C14=1.0887       H19-C11=1.0887       H20-C12=1.0916       
H21-C13=1.0855       H22-C14=1.0876       H23-C11=1.0911       H24-C12=1.0903       H25-C13=1.0864       H26-C14=1.0867       
C27-C1=1.5305        C27-H29=1.0849       C27-H31=1.0847       C27-H34=1.0853       C28-C2=1.5305        C28-H30=1.0864       
C28-H32=1.0879       C28-H33=1.0857       H29-C27=1.0849       H30-C28=1.0864       H31-C27=1.0847       H32-C28=1.0879       
H33-C28=1.0857       H34-C27=1.0853       
 C  H  Rav=1.0850 sigma=0.0066  Rmin=1.0689  Rmax=1.0916    21
 C  C  Rav=1.5052 sigma=0.0587  Rmin=1.3615  Rmax=1.5322     7
 N  C  Rav=1.3888 sigma=0.0627  Rmin=1.3303  Rmax=1.4762     6

 selected bond angles (degree)
 --------------------
C11-C1-N3=108.25               C14-C1-N3=109.34               C14-C1-C11=110.28              C27-C1-N3=107.59               
C27-C1-C11=111.17              C27-C1-C14=110.14              C12-C2-N4=109.87               C13-C2-N4=108.21               
C13-C2-C12=109.88              C28-C2-N4=107.70               C28-C2-C12=109.90              C28-C2-C13=111.24              
C5-N3-C1=127.66                C7-N3-C1=124.90                C7-N3-C5=107.43                C6-N4-C2=127.79                
C7-N4-C2=124.79                C7-N4-C6=107.38                C6-C5-N3=107.50                H8-C5-N3=123.58                
H8-C5-C6=128.91                C5-C6-N4=107.56                H9-C6-N4=123.62                H9-C6-C5=128.82                
N4-C7-N3=110.12                H10-C7-N3=124.54               H10-C7-N4=125.34               

 selected dihedral angles (degree)
 ---------------------------------
C5-N3-C1-C11=227.42           C5-N3-C1-C14=347.59           C5-N3-C1-C27=107.20           C7-N3-C1-C11= 48.36           
C7-N3-C1-C14=168.53           C7-N3-C1-C27=288.13           C6-N4-C2-C12=354.73           C6-N4-C2-C13=234.76           
C6-N4-C2-C28=114.41           C7-N4-C2-C12=177.14           C7-N4-C2-C13= 57.18           C7-N4-C2-C28=296.83           
C6-C5-N3-C1=180.61            C6-C5-N3-C7=359.81            H8-C5-N3-C1=  0.88            H8-C5-N3-C7=180.07            
C5-C6-N4-C2=182.01            C5-C6-N4-C7=359.93            H9-C6-N4-C2=  2.27            H9-C6-N4-C7=180.19            
N4-C6-C5-N3=  0.16            N4-C6-C5-H8=179.88            H9-C6-C5-N3=179.88            H9-C6-C5-H8=359.60            
N4-C7-N3-C1=179.38            N4-C7-N3-C5=  0.15            H10-C7-N3-C1=359.17           H10-C7-N3-C5=179.95           
N3-C7-N4-C2=177.95            N3-C7-N4-C6=359.95            H10-C7-N4-C2=358.16           H10-C7-N4-C6=180.16           
           -------------------------------------------------
          |                Final Singlepoint                |
           -------------------------------------------------

          ...................................................
          :                      SETUP                      :
          :.................................................:
          :  # basis functions                  73          :
          :  # atomic orbitals                  73          :
          :  # shells                           47          :
          :  # electrons                        74          :
          :  max. iterations                   250          :
          :  Hamiltonian                  GFN2-xTB          :
          :  restarted?                      false          :
          :  GBSA solvation                  false          :
          :  PC potential                    false          :
          :  electronic temp.          300.0000000     K    :
          :  accuracy                    1.0000000          :
          :  -> integral cutoff          0.2500000E+02      :
          :  -> integral neglect         0.1000000E-07      :
          :  -> SCF convergence          0.1000000E-05 Eh   :
          :  -> wf. convergence          0.1000000E-03 e    :
          :  Broyden damping             0.4000000          :
          ...................................................

 iter      E             dE          RMSdq      gap      omega  full diag
   1    -40.3858047 -0.403858E+02  0.607E-05    4.78       0.0  T
   2    -40.3858047 -0.325855E-10  0.347E-05    4.78     494.9  T
   3    -40.3858047 -0.893863E-11  0.187E-05    4.78     915.3  T

   *** convergence criteria satisfied after 3 iterations ***

         #    Occupation            Energy/Eh            Energy/eV
      -------------------------------------------------------------
         1        2.0000           -0.8782803             -23.8992
       ...           ...                  ...                  ...
        31        2.0000           -0.5902967             -16.0628
        32        2.0000           -0.5890516             -16.0289
        33        2.0000           -0.5822452             -15.8437
        34        2.0000           -0.5784830             -15.7413
        35        2.0000           -0.5779619             -15.7271
        36        2.0000           -0.5729542             -15.5909
        37        2.0000           -0.5693720             -15.4934 (HOMO)
        38                         -0.3937023             -10.7132 (LUMO)
        39                         -0.3557425              -9.6802
        40                         -0.1967823              -5.3547
        41                         -0.1499502              -4.0804
        42                         -0.0751443              -2.0448
       ...                                ...                  ...
        73                          0.4739086              12.8957
      -------------------------------------------------------------
                  HL-Gap            0.1756697 Eh            4.7802 eV
             Fermi-level           -0.4815371 Eh          -13.1033 eV

 SCC (total)                   0 d,  0 h,  0 min,  0.030 sec
 SCC setup                      ...        0 min,  0.002 sec (  5.742%)
 Dispersion                     ...        0 min,  0.000 sec (  0.968%)
 classical contributions        ...        0 min,  0.000 sec (  0.366%)
 integral evaluation            ...        0 min,  0.005 sec ( 18.235%)
 iterations                     ...        0 min,  0.005 sec ( 17.091%)
 molecular gradient             ...        0 min,  0.017 sec ( 56.964%)
 printout                       ...        0 min,  0.000 sec (  0.554%)

         :::::::::::::::::::::::::::::::::::::::::::::::::::::
         ::                     SUMMARY                     ::
         :::::::::::::::::::::::::::::::::::::::::::::::::::::
         :: total energy             -39.777184374053 Eh    ::
         :: gradient norm              0.006978913229 Eh/a0 ::
         :: HOMO-LUMO gap              4.780215969597 eV    ::
         ::.................................................::
         :: SCC energy               -40.385804730907 Eh    ::
         :: -> isotropic ES            0.076435058812 Eh    ::
         :: -> anisotropic ES         -0.006104013911 Eh    ::
         :: -> anisotropic XC          0.025856529274 Eh    ::
         :: -> dispersion             -0.027910204759 Eh    ::
         :: repulsion energy           0.608341544022 Eh    ::
         :: add. restraining           0.000000000000 Eh    ::
         :: total charge               1.000000000000 e     ::
         :::::::::::::::::::::::::::::::::::::::::::::::::::::

           -------------------------------------------------
          |                Property Printout                |
           -------------------------------------------------

    * Orbital Energies and Occupations

         #    Occupation            Energy/Eh            Energy/eV
      -------------------------------------------------------------
         1        2.0000           -0.8782803             -23.8992
       ...           ...                  ...                  ...
        25        2.0000           -0.6024233             -16.3928
        26        2.0000           -0.6016749             -16.3724
        27        2.0000           -0.5972955             -16.2532
        28        2.0000           -0.5949278             -16.1888
        29        2.0000           -0.5941121             -16.1666
        30        2.0000           -0.5925789             -16.1249
        31        2.0000           -0.5902967             -16.0628
        32        2.0000           -0.5890516             -16.0289
        33        2.0000           -0.5822452             -15.8437
        34        2.0000           -0.5784830             -15.7413
        35        2.0000           -0.5779619             -15.7271
        36        2.0000           -0.5729542             -15.5909
        37        2.0000           -0.5693720             -15.4934 (HOMO)
        38                         -0.3937023             -10.7132 (LUMO)
        39                         -0.3557425              -9.6802
        40                         -0.1967823              -5.3547
        41                         -0.1499502              -4.0804
        42                         -0.0751443              -2.0448
        43                         -0.0616983              -1.6789
        44                         -0.0599136              -1.6303
        45                         -0.0491208              -1.3366
        46                         -0.0459905              -1.2515
        47                         -0.0367659              -1.0004
        48                         -0.0342292              -0.9314
       ...                                ...                  ...
        73                          0.4739086              12.8957
      -------------------------------------------------------------
                  HL-Gap            0.1756697 Eh            4.7802 eV
             Fermi-level           -0.4815371 Eh          -13.1033 eV

     #   Z          covCN         q      C6AA      α(0)
     1   6 C        3.836     0.075    19.313     6.252
     2   6 C        3.837     0.075    19.313     6.252
     3   7 N        2.869     0.047    20.410     6.710
     4   7 N        2.868     0.048    20.402     6.708
     5   6 C        3.080    -0.008    28.131     8.695
     6   6 C        3.081    -0.008    28.126     8.694
     7   6 C        3.120     0.054    26.624     8.451
     8   1 H        0.927     0.104     1.748     2.068
     9   1 H        0.927     0.104     1.747     2.067
    10   1 H        0.927     0.104     1.750     2.069
    11   6 C        3.758    -0.131    23.063     6.847
    12   6 C        3.759    -0.130    23.057     6.846
    13   6 C        3.760    -0.129    23.032     6.842
    14   6 C        3.759    -0.131    23.062     6.846
    15   1 H        0.925     0.081     1.973     2.196
    16   1 H        0.925     0.061     2.184     2.311
    17   1 H        0.925     0.059     2.208     2.324
    18   1 H        0.925     0.062     2.178     2.308
    19   1 H        0.925     0.059     2.214     2.327
    20   1 H        0.924     0.062     2.173     2.305
    21   1 H        0.925     0.081     1.971     2.195
    22   1 H        0.925     0.079     1.994     2.208
    23   1 H        0.924     0.055     2.256     2.349
    24   1 H        0.924     0.079     1.989     2.206
    25   1 H        0.925     0.054     2.267     2.355
    26   1 H        0.925     0.062     2.172     2.305
    27   6 C        3.760    -0.128    23.004     6.837
    28   6 C        3.760    -0.129    23.018     6.840
    29   1 H        0.925     0.054     2.272     2.357
    30   1 H        0.925     0.054     2.267     2.354
    31   1 H        0.925     0.082     1.963     2.191
    32   1 H        0.925     0.059     2.209     2.324
    33   1 H        0.925     0.080     1.975     2.197
    34   1 H        0.925     0.060     2.199     2.319

 Mol. C6AA /au·bohr⁶  :       8558.673664
 Mol. C8AA /au·bohr⁸  :     188320.256610
 Mol. α(0) /au        :        140.156034


molecular dipole:
                 x           y           z       tot (Debye)
 q only:       -0.077      -0.164       0.031
   full:       -0.072      -0.148       0.034       0.428
molecular quadrupole (traceless):
                xx          xy          yy          xz          yz          zz
 q only:       14.971      -5.008      -4.414      -7.556       3.167     -10.557
  q+dip:       14.400      -4.429      -3.398      -7.461       3.441     -11.002
   full:       13.741      -4.449      -3.788      -7.033       3.039      -9.953

           -------------------------------------------------
          |                Geometry Summary                 |
           -------------------------------------------------

      molecular mass/u    :      181.2982571
   center of mass at/Å    :       -0.0207410      -0.0280137       0.0268919
  moments of inertia/u·Å² :        0.3034663E+03   0.1116415E+04   0.1196110E+04
rotational constants/cm⁻¹ :        0.5555027E-01   0.1509978E-01   0.1409372E-01

 * 34 selected distances

     #   Z          #   Z                                           value/Å
     1   6 C        3   7 N                                       1.4751471
     2   6 C        4   7 N                                       1.4762066
     3   7 N        5   6 C                                       1.3601376
     4   7 N        6   6 C                                       1.3604341
     5   6 C        6   6 C                                       1.3614778
     3   7 N        7   6 C                                       1.3302520
     4   7 N        7   6 C                                       1.3304054
     5   6 C        8   1 H                                       1.0688791 (min)
     6   6 C        9   1 H                                       1.0701305
     7   6 C       10   1 H                                       1.0698457
     1   6 C       11   6 C                                       1.5321613 (max)
     2   6 C       12   6 C                                       1.5258287
     2   6 C       13   6 C                                       1.5294837
     1   6 C       14   6 C                                       1.5263789
    11   6 C       15   1 H                                       1.0874864
    12   6 C       16   1 H                                       1.0893887
    13   6 C       17   1 H                                       1.0875331
    14   6 C       18   1 H                                       1.0886516
    11   6 C       19   1 H                                       1.0887122
    12   6 C       20   1 H                                       1.0915556
    13   6 C       21   1 H                                       1.0855473
    14   6 C       22   1 H                                       1.0876098
    11   6 C       23   1 H                                       1.0910669
    12   6 C       24   1 H                                       1.0903393
    13   6 C       25   1 H                                       1.0863756
    14   6 C       26   1 H                                       1.0867335
     1   6 C       27   6 C                                       1.5304826
     2   6 C       28   6 C                                       1.5304588
    27   6 C       29   1 H                                       1.0848998
    28   6 C       30   1 H                                       1.0864451
    27   6 C       31   1 H                                       1.0847360
    28   6 C       32   1 H                                       1.0879033
    28   6 C       33   1 H                                       1.0857007
    27   6 C       34   1 H                                       1.0853287

 * 3 distinct bonds (by element types)

   Z      Z             #   av. dist./Å        max./Å        min./Å
   1 H    6 C          21     1.0849938     1.0915556     1.0688791
   6 C    6 C           7     1.5051817     1.5321613     1.3614778
   6 C    7 N           6     1.3887638     1.4762066     1.3302520


optimized geometry written to: xtbopt.xyz


           -------------------------------------------------
          | TOTAL ENERGY              -39.777184374053 Eh   |
          | GRADIENT NORM               0.006978913229 Eh/α |
          | HOMO-LUMO GAP               4.780215969597 eV   |
           -------------------------------------------------

------------------------------------------------------------------------
 * finished run on 2024/02/12 at 14:13:52.130     
------------------------------------------------------------------------
 total:
 * wall-time:     0 d,  0 h,  0 min,  0.716 sec
 *  cpu-time:     0 d,  0 h,  0 min,  0.574 sec
 * ratio c/w:     0.801 speedup
 SCF:
 * wall-time:     0 d,  0 h,  0 min,  0.182 sec
 *  cpu-time:     0 d,  0 h,  0 min,  0.045 sec
 * ratio c/w:     0.249 speedup
 ANC optimizer:
 * wall-time:     0 d,  0 h,  0 min,  0.511 sec
 *  cpu-time:     0 d,  0 h,  0 min,  0.506 sec
 * ratio c/w:     0.990 speedup

