      -----------------------------------------------------------      
     |                   =====================                   |     
     |                           x T B                           |     
     |                   =====================                   |     
     |                         S. Grimme                         |     
     |          Mulliken Center for Theoretical Chemistry        |     
     |                    University of Bonn                     |     
      -----------------------------------------------------------      

   * xtb version 6.6.1 (8d0f1dd) compiled by 'conda@1efc2f54142f' on 2023-08-01

   xtb is free software: you can redistribute it and/or modify it under
   the terms of the GNU Lesser General Public License as published by
   the Free Software Foundation, either version 3 of the License, or
   (at your option) any later version.
   
   xtb is distributed in the hope that it will be useful,
   but WITHOUT ANY WARRANTY; without even the implied warranty of
   MERCHANTABILITY or FITNESS FOR A PARTICULAR PURPOSE.  See the
   GNU Lesser General Public License for more details.
   
   Cite this work as:
   * C. Bannwarth, E. Caldeweyher, S. Ehlert, A. Hansen, P. Pracht,
     J. Seibert, S. Spicher, S. Grimme, WIREs Comput. Mol. Sci., 2020, 11,
     e01493. DOI: 10.1002/wcms.1493
   
   for GFN2-xTB:
   * C. Bannwarth, S. Ehlert and S. Grimme., J. Chem. Theory Comput., 2019,
     15, 1652-1671. DOI: 10.1021/acs.jctc.8b01176
   for GFN1-xTB:
   * S. Grimme, C. Bannwarth, P. Shushkov, J. Chem. Theory Comput., 2017,
     13, 1989-2009. DOI: 10.1021/acs.jctc.7b00118
   for GFN0-xTB:
   * P. Pracht, E. Caldeweyher, S. Ehlert, S. Grimme, ChemRxiv, 2019, preprint.
     DOI: 10.26434/chemrxiv.8326202.v1
   for GFN-FF:
   * S. Spicher and S. Grimme, Angew. Chem. Int. Ed., 2020, 59, 15665-15673.
     DOI: 10.1002/anie.202004239
   
   for ALPB and GBSA implicit solvation:
   * S. Ehlert, M. Stahn, S. Spicher, S. Grimme, J. Chem. Theory Comput.,
     2021, 17, 4250-4261. DOI: 10.1021/acs.jctc.1c00471
   
   for DFT-D4:
   * E. Caldeweyher, C. Bannwarth and S. Grimme, J. Chem. Phys., 2017,
     147, 034112. DOI: 10.1063/1.4993215
   * E. Caldeweyher, S. Ehlert, A. Hansen, H. Neugebauer, S. Spicher,
     C. Bannwarth and S. Grimme, J. Chem. Phys., 2019, 150, 154122.
     DOI: 10.1063/1.5090222
   * E. Caldeweyher, J.-M. Mewes, S. Ehlert and S. Grimme, Phys. Chem. Chem. Phys.
     2020, 22, 8499-8512. DOI: 10.1039/D0CP00502A
   
   for sTDA-xTB:
   * S. Grimme and C. Bannwarth, J. Chem. Phys., 2016, 145, 054103.
     DOI: 10.1063/1.4959605
   
   in the mass-spec context:
   * V. Asgeirsson, C. Bauer and S. Grimme, Chem. Sci., 2017, 8, 4879.
     DOI: 10.1039/c7sc00601b
   * J. Koopman and S. Grimme, ACS Omega 2019, 4, 12, 15120-15133.
     DOI: 10.1021/acsomega.9b02011
   
   for metadynamics refer to:
   * S. Grimme, J. Chem. Theory Comput., 2019, 155, 2847-2862
     DOI: 10.1021/acs.jctc.9b00143
   
   for SPH calculations refer to:
   * S. Spicher and S. Grimme, J. Chem. Theory Comput., 2021, 17, 1701-1714
     DOI: 10.1021/acs.jctc.0c01306
   
   with help from (in alphabetical order)
   P. Atkinson, C. Bannwarth, F. Bohle, G. Brandenburg, E. Caldeweyher
   M. Checinski, S. Dohm, S. Ehlert, S. Ehrlich, I. Gerasimov, C. Hölzer
   A. Katbashev, J. Koopman, C. Lavigne, S. Lehtola, F. März, M. Müller,
   F. Musil, H. Neugebauer, J. Pisarek, C. Plett, P. Pracht, F. Pultar,
   J. Seibert, P. Shushkov, S. Spicher, M. Stahn, M. Steiner, T. Strunk,
   J. Stückrath, T. Rose, and J. Unsleber
   
 * started run on 2024/02/12 at 14:13:51.894     

           -------------------------------------------------
          |                Calculation Setup                |
           -------------------------------------------------

          program call               : xtb struc.xyz --gfn2 --ceasefiles --opt
          hostname                   : node021
          coordinate file            : struc.xyz
          omp threads                :                     1

   ID    Z sym.   atoms
    1    6 C      1, 2, 5-7, 11-14, 27, 28
    2    7 N      3, 4
    3    1 H      8-10, 15-26, 29-34

           -------------------------------------------------
          |                 G F N 2 - x T B                 |
           -------------------------------------------------

        Reference                      10.1021/acs.jctc.8b01176
      * Hamiltonian:
        H0-scaling (s, p, d)           1.850000    2.230000    2.230000
        zeta-weighting                 0.500000
      * Dispersion:
        s8                             2.700000
        a1                             0.520000
        a2                             5.000000
        s9                             5.000000
      * Repulsion:
        kExp                           1.500000    1.000000
        rExp                           1.000000
      * Coulomb:
        alpha                          2.000000
        third order                    shell-resolved
        anisotropic                    true
        a3                             3.000000
        a5                             4.000000
        cn-shift                       1.200000
        cn-exp                         4.000000
        max-rad                        5.000000


          ...................................................
          :                      SETUP                      :
          :.................................................:
          :  # basis functions                  73          :
          :  # atomic orbitals                  73          :
          :  # shells                           47          :
          :  # electrons                        74          :
          :  max. iterations                   250          :
          :  Hamiltonian                  GFN2-xTB          :
          :  restarted?                      false          :
          :  GBSA solvation                  false          :
          :  PC potential                    false          :
          :  electronic temp.          300.0000000     K    :
          :  accuracy                    1.0000000          :
          :  -> integral cutoff          0.2500000E+02      :
          :  -> integral neglect         0.1000000E-07      :
          :  -> SCF convergence          0.1000000E-05 Eh   :
          :  -> wf. convergence          0.1000000E-03 e    :
          :  Broyden damping             0.4000000          :
          ...................................................

 iter      E             dE          RMSdq      gap      omega  full diag
   1    -40.2405376 -0.402405E+02  0.260E+00    5.45       0.0  T
   2    -40.3441548 -0.103617E+00  0.184E+00    4.53       1.0  T
   3    -40.3512127 -0.705791E-02  0.105E+00    4.75       1.0  T
   4    -40.3512805 -0.678391E-04  0.278E-01    4.58       1.0  T
   5    -40.3521122 -0.831737E-03  0.644E-02    4.60       1.0  T
   6    -40.3521355 -0.232057E-04  0.353E-02    4.61       1.0  T
   7    -40.3521337  0.180002E-05  0.137E-02    4.62       1.3  T
   8    -40.3521390 -0.535373E-05  0.167E-03    4.61      10.3  T
   9    -40.3521390 -0.206386E-07  0.820E-04    4.61      20.9  T
  10    -40.3521390 -0.236741E-08  0.424E-04    4.61      40.5  T

   *** convergence criteria satisfied after 10 iterations ***

         #    Occupation            Energy/Eh            Energy/eV
      -------------------------------------------------------------
         1        2.0000           -0.8764152             -23.8485
       ...           ...                  ...                  ...
        31        2.0000           -0.5854948             -15.9321
        32        2.0000           -0.5811513             -15.8139
        33        2.0000           -0.5787911             -15.7497
        34        2.0000           -0.5776488             -15.7186
        35        2.0000           -0.5726656             -15.5830
        36        2.0000           -0.5695207             -15.4974
        37        2.0000           -0.5659820             -15.4012 (HOMO)
        38                         -0.3964016             -10.7866 (LUMO)
        39                         -0.3560066              -9.6874
        40                         -0.2007490              -5.4627
        41                         -0.1484099              -4.0384
        42                         -0.0894501              -2.4341
       ...                                ...                  ...
        73                          0.4728057              12.8657
      -------------------------------------------------------------
                  HL-Gap            0.1695804 Eh            4.6145 eV
             Fermi-level           -0.4811918 Eh          -13.0939 eV

 SCC (total)                   0 d,  0 h,  0 min,  0.084 sec
 SCC setup                      ...        0 min,  0.000 sec (  0.571%)
 Dispersion                     ...        0 min,  0.000 sec (  0.541%)
 classical contributions        ...        0 min,  0.000 sec (  0.141%)
 integral evaluation            ...        0 min,  0.006 sec (  6.731%)
 iterations                     ...        0 min,  0.060 sec ( 71.534%)
 molecular gradient             ...        0 min,  0.017 sec ( 20.115%)
 printout                       ...        0 min,  0.000 sec (  0.345%)

         :::::::::::::::::::::::::::::::::::::::::::::::::::::
         ::                     SUMMARY                     ::
         :::::::::::::::::::::::::::::::::::::::::::::::::::::
         :: total energy             -39.739907161822 Eh    ::
         :: gradient norm              0.080097816281 Eh/a0 ::
         :: HOMO-LUMO gap              4.614517649654 eV    ::
         ::.................................................::
         :: SCC energy               -40.352139028334 Eh    ::
         :: -> isotropic ES            0.076466127741 Eh    ::
         :: -> anisotropic ES         -0.006220218700 Eh    ::
         :: -> anisotropic XC          0.025333513110 Eh    ::
         :: -> dispersion             -0.027578167815 Eh    ::
         :: repulsion energy           0.611974241101 Eh    ::
         :: add. restraining           0.000000000000 Eh    ::
         :: total charge               1.000000000000 e     ::
         :::::::::::::::::::::::::::::::::::::::::::::::::::::

      ----------------------------------------------------------- 
     |                   =====================                   |
     |                        A N C O P T                        |
     |                   =====================                   |
     |               Approximate Normal Coordinate               |
     |                Rational Function Optimizer                |
      ----------------------------------------------------------- 

Optimization log is written to '/dev/null'

          ...................................................
          :                      SETUP                      :
          :.................................................:
          :   optimization level             crude          :
          :   max. optcycles                   200          :
          :   ANC micro-cycles                  20          :
          :   degrees of freedom                96          :
          :.................................................:
          :   RF solver                   davidson          :
          :   write xtbopt.log                true          :
          :   linear?                        false          :
          :   energy convergence         0.5000000E-03 Eh   :
          :   grad. convergence          0.1000000E-01 Eh/α :
          :   maxmium RF displ.          1.0000000          :
          :   Hlow (freq-cutoff)         0.5000000E-02      :
          :   Hmax (freq-cutoff)         5.0000000          :
          :   S6 in model hess.         20.0000000          :
          ...................................................

generating ANC from model Hessian ...
Using Lindh-Hessian (1995)
 Shifting diagonal of input Hessian by    4.3218862105017389E-003
 Lowest  eigenvalues of input Hessian
    0.000000    0.000000    0.000000    0.000000    0.000000    0.000000
    0.005000    0.005280    0.006558    0.008868    0.009225    0.010149
    0.011182    0.013468    0.014110    0.014166    0.014234    0.014612
 Highest eigenvalues
    1.345396    1.696554    1.995325    2.006270    2.143193    2.244459


........................................................................
.............................. CYCLE    1 ..............................
........................................................................

 iter      E             dE          RMSdq      gap      omega  full diag
   1    -40.3521390 -0.403521E+02  0.588E-05    4.61       0.0  T
   2    -40.3521390 -0.114468E-10  0.325E-05    4.61     527.7  T
   3    -40.3521390  0.112266E-11  0.141E-05    4.61    1216.5  T
     SCC iter.                  ...        0 min,  0.006 sec
     gradient                   ...        0 min,  0.017 sec
 * total energy  :   -39.7399072 Eh     change       -0.3055973E-08 Eh
   gradient norm :     0.0800973 Eh/α   predicted     0.0000000E+00 (-100.00%)
   displ. norm   :     0.5392566 α      lambda       -0.3078642E-01
   maximum displ.:     0.2001489 α      in ANC's #7, #30, #17, ...

........................................................................
.............................. CYCLE    2 ..............................
........................................................................

 iter      E             dE          RMSdq      gap      omega  full diag
   1    -40.3612027 -0.403612E+02  0.378E-01    4.64       0.0  T
   2    -40.3613055 -0.102857E-03  0.221E-01    4.65       1.0  T
   3    -40.3613057 -0.172181E-06  0.274E-02    4.64       1.0  T
   4    -40.3613146 -0.893610E-05  0.852E-03    4.65       2.0  T
   5    -40.3613158 -0.115385E-05  0.425E-03    4.64       4.0  T
   6    -40.3613158 -0.586337E-07  0.156E-03    4.65      11.0  T
   7    -40.3613159 -0.427877E-07  0.398E-04    4.65      43.1  T
   8    -40.3613159 -0.120870E-08  0.145E-04    4.65     118.0  T
     SCC iter.                  ...        0 min,  0.014 sec
     gradient                   ...        0 min,  0.017 sec
 * total energy  :   -39.7611031 Eh     change       -0.2119596E-01 Eh
   gradient norm :     0.0331022 Eh/α   predicted    -0.1986987E-01 (  -6.26%)
   displ. norm   :     0.5456233 α      lambda       -0.1022422E-01
   maximum displ.:     0.2964269 α      in ANC's #7, #17, #5, ...

........................................................................
.............................. CYCLE    3 ..............................
........................................................................

 iter      E             dE          RMSdq      gap      omega  full diag
   1    -40.3649450 -0.403649E+02  0.205E-01    4.66       0.0  T
   2    -40.3649664 -0.214600E-04  0.120E-01    4.67       1.0  T
   3    -40.3649659  0.575326E-06  0.140E-02    4.67       1.2  T
   4    -40.3649693 -0.339972E-05  0.507E-03    4.67       3.4  T
   5    -40.3649697 -0.457195E-06  0.240E-03    4.67       7.1  T
   6    -40.3649697 -0.311181E-07  0.807E-04    4.67      21.3  T
   7    -40.3649698 -0.106515E-07  0.211E-04    4.67      81.2  T
     SCC iter.                  ...        0 min,  0.012 sec
     gradient                   ...        0 min,  0.017 sec
 * total energy  :   -39.7682461 Eh     change       -0.7142986E-02 Eh
   gradient norm :     0.0201225 Eh/α   predicted    -0.6634014E-02 (  -7.13%)
   displ. norm   :     0.5197967 α      lambda       -0.4334572E-02
   maximum displ.:     0.2880135 α      in ANC's #7, #5, #15, ...

........................................................................
.............................. CYCLE    4 ..............................
........................................................................

 iter      E             dE          RMSdq      gap      omega  full diag
   1    -40.3710106 -0.403710E+02  0.120E-01    4.71       0.0  T
   2    -40.3710178 -0.724172E-05  0.697E-02    4.71       1.0  T
   3    -40.3710174  0.384625E-06  0.948E-03    4.71       1.8  T
   4    -40.3710189 -0.144283E-05  0.361E-03    4.71       4.8  T
   5    -40.3710191 -0.222230E-06  0.167E-03    4.71      10.3  T
   6    -40.3710191 -0.144675E-07  0.374E-04    4.71      45.9  T
   7    -40.3710191 -0.165402E-08  0.139E-04    4.71     123.2  T
     SCC iter.                  ...        0 min,  0.012 sec
     gradient                   ...        0 min,  0.016 sec
 * total energy  :   -39.7714874 Eh     change       -0.3241256E-02 Eh
   gradient norm :     0.0162624 Eh/α   predicted    -0.2752874E-02 ( -15.07%)
   displ. norm   :     0.5034666 α      lambda       -0.2669121E-02
   maximum displ.:     0.2380791 α      in ANC's #5, #7, #4, ...

........................................................................
.............................. CYCLE    5 ..............................
........................................................................

 iter      E             dE          RMSdq      gap      omega  full diag
   1    -40.3771061 -0.403771E+02  0.109E-01    4.74       0.0  T
   2    -40.3771120 -0.584462E-05  0.635E-02    4.74       1.0  T
   3    -40.3771108  0.117517E-05  0.988E-03    4.74       1.7  T
   4    -40.3771128 -0.197897E-05  0.332E-03    4.74       5.2  T
   5    -40.3771130 -0.222723E-06  0.146E-03    4.74      11.7  T
   6    -40.3771130 -0.635862E-08  0.355E-04    4.74      48.3  T
   7    -40.3771130 -0.131874E-08  0.128E-04    4.74     133.5  T
     SCC iter.                  ...        0 min,  0.012 sec
     gradient                   ...        0 min,  0.017 sec
 * total energy  :   -39.7734789 Eh     change       -0.1991556E-02 Eh
   gradient norm :     0.0142160 Eh/α   predicted    -0.1672854E-02 ( -16.00%)
   displ. norm   :     0.4556418 α      lambda       -0.1739748E-02
   maximum displ.:     0.2205107 α      in ANC's #5, #4, #2, ...

........................................................................
.............................. CYCLE    6 ..............................
........................................................................

 iter      E             dE          RMSdq      gap      omega  full diag
   1    -40.3824899 -0.403825E+02  0.103E-01    4.77       0.0  T
   2    -40.3824949 -0.495564E-05  0.603E-02    4.77       1.0  T
   3    -40.3824937  0.112084E-05  0.917E-03    4.76       1.9  T
   4    -40.3824955 -0.175383E-05  0.291E-03    4.77       5.9  T
   5    -40.3824957 -0.173355E-06  0.132E-03    4.76      13.0  T
   6    -40.3824957 -0.418775E-08  0.290E-04    4.77      59.2  T
   7    -40.3824957 -0.932296E-09  0.895E-05    4.77     191.5  T
     SCC iter.                  ...        0 min,  0.012 sec
     gradient                   ...        0 min,  0.017 sec
 * total energy  :   -39.7747869 Eh     change       -0.1307995E-02 Eh
   gradient norm :     0.0116366 Eh/α   predicted    -0.1050471E-02 ( -19.69%)
   displ. norm   :     0.4742546 α      lambda       -0.1328641E-02
   maximum displ.:     0.2241558 α      in ANC's #4, #2, #5, ...

........................................................................
.............................. CYCLE    7 ..............................
........................................................................

 iter      E             dE          RMSdq      gap      omega  full diag
   1    -40.3828666 -0.403829E+02  0.108E-01    4.78       0.0  T
   2    -40.3828701 -0.348871E-05  0.631E-02    4.78       1.0  T
   3    -40.3828699  0.253772E-06  0.705E-03    4.78       2.4  T
   4    -40.3828707 -0.840865E-06  0.264E-03    4.78       6.5  T
   5    -40.3828708 -0.834922E-07  0.135E-03    4.78      12.7  T
   6    -40.3828708 -0.112085E-07  0.221E-04    4.78      77.6  T
   7    -40.3828708 -0.440870E-09  0.940E-05    4.78     182.4  T
     SCC iter.                  ...        0 min,  0.012 sec
     gradient                   ...        0 min,  0.017 sec
 * total energy  :   -39.7757665 Eh     change       -0.9795348E-03 Eh
   gradient norm :     0.0163944 Eh/α   predicted    -0.8137401E-03 ( -16.93%)
   displ. norm   :     0.4941517 α      lambda       -0.1612601E-02
   maximum displ.:     0.2574899 α      in ANC's #4, #2, #5, ...

........................................................................
.............................. CYCLE    8 ..............................
........................................................................

 iter      E             dE          RMSdq      gap      omega  full diag
   1    -40.3893109 -0.403893E+02  0.128E-01    4.79       0.0  T
   2    -40.3893255 -0.145742E-04  0.735E-02    4.79       1.0  T
   3    -40.3893257 -0.176371E-06  0.113E-02    4.79       1.5  T
   4    -40.3893266 -0.868642E-06  0.420E-03    4.79       4.1  T
   5    -40.3893269 -0.304911E-06  0.210E-03    4.79       8.2  T
   6    -40.3893269 -0.143586E-07  0.345E-04    4.79      49.7  T
   7    -40.3893269 -0.157343E-08  0.136E-04    4.79     126.4  T
     SCC iter.                  ...        0 min,  0.012 sec
     gradient                   ...        0 min,  0.017 sec
 * total energy  :   -39.7766239 Eh     change       -0.8574326E-03 Eh
   gradient norm :     0.0135576 Eh/α   predicted    -0.1003188E-02 (  17.00%)
   displ. norm   :     0.4820307 α      lambda       -0.1228682E-02
   maximum displ.:     0.2514859 α      in ANC's #2, #4, #12, ...

........................................................................
.............................. CYCLE    9 ..............................
........................................................................

 iter      E             dE          RMSdq      gap      omega  full diag
   1    -40.3833748 -0.403834E+02  0.116E-01    4.80       0.0  T
   2    -40.3833870 -0.121869E-04  0.672E-02    4.80       1.0  T
   3    -40.3833875 -0.546381E-06  0.105E-02    4.80       1.6  T
   4    -40.3833880 -0.533002E-06  0.379E-03    4.80       4.5  T
   5    -40.3833882 -0.165472E-06  0.212E-03    4.80       8.1  T
   6    -40.3833882 -0.301734E-07  0.395E-04    4.80      43.4  T
   7    -40.3833882 -0.163112E-08  0.130E-04    4.80     131.5  T
     SCC iter.                  ...        0 min,  0.012 sec
     gradient                   ...        0 min,  0.017 sec
 * total energy  :   -39.7772532 Eh     change       -0.6292677E-03 Eh
   gradient norm :     0.0154952 Eh/α   predicted    -0.7570865E-03 (  20.31%)
   displ. norm   :     0.1446169 α      lambda       -0.5293654E-03
   maximum displ.:     0.0850886 α      in ANC's #2, #4, #8, ...

........................................................................
.............................. CYCLE   10 ..............................
........................................................................

 iter      E             dE          RMSdq      gap      omega  full diag
   1    -40.3875445 -0.403875E+02  0.414E-02    4.81       0.0  T
   2    -40.3875477 -0.325341E-05  0.234E-02    4.81       1.0  T
   3    -40.3875478 -0.342137E-07  0.656E-03    4.81       2.6  T
   4    -40.3875479 -0.186682E-06  0.151E-03    4.81      11.4  T
   5    -40.3875480 -0.282816E-07  0.820E-04    4.81      20.9  T
   6    -40.3875480 -0.223618E-08  0.297E-04    4.81      57.8  T
     SCC iter.                  ...        0 min,  0.011 sec
     gradient                   ...        0 min,  0.017 sec
 * total energy  :   -39.7776064 Eh     change       -0.3532136E-03 Eh
   gradient norm :     0.0083594 Eh/α   predicted    -0.2702195E-03 ( -23.50%)
   displ. norm   :     0.3366753 α      lambda       -0.5921801E-03
   maximum displ.:     0.1960771 α      in ANC's #2, #12, #4, ...

   *** GEOMETRY OPTIMIZATION CONVERGED AFTER 10 ITERATIONS ***

------------------------------------------------------------------------
 total energy gain   :        -0.0376992 Eh      -23.6566 kcal/mol
 total RMSD          :         0.5859626 a0        0.3101 Å
 total power (kW/mol):        -9.8979259 (step) -252.7333 (real)
------------------------------------------------------------------------

 ANCopt (total)                0 d,  0 h,  0 min,  0.392 sec
 optimizer setup                ...        0 min,  0.000 sec (  0.034%)
 model hessian                  ...        0 min,  0.036 sec (  9.303%)
 ANC generation                 ...        0 min,  0.002 sec (  0.385%)
 coordinate transformation      ...        0 min,  0.000 sec (  0.062%)
 single point calculation       ...        0 min,  0.348 sec ( 88.919%)
 optimization log               ...        0 min,  0.002 sec (  0.479%)
 hessian update                 ...        0 min,  0.000 sec (  0.062%)
 rational function              ...        0 min,  0.002 sec (  0.492%)

================
 final structure:
================
34
 xtb: 6.6.1 (8d0f1dd)
C           -2.20290430740598        0.15987068273754        1.16378130432902
C            2.31925201414218       -0.30804179641083       -0.82542335771520
N           -1.08046185778397        0.24944223923397        0.21259021737697
N            0.89293174741085        0.05274084904307       -0.69766549388116
C           -1.07046624138663        1.00792303183622       -0.91929862628190
C            0.16032043956234        0.88485149010211       -1.48626383640251
C            0.11691855510671       -0.31486767586461        0.31983913403649
H           -1.90743076230317        1.58637144891103       -1.24930431227541
H            0.53134712406272        1.33085706988052       -2.38460162952104
H            0.41604392716925       -0.97634860397814        1.10489210476177
C           -1.89718270955309       -0.88704738111820        2.23105223088245
C            2.82932349885338        0.08859135062972       -2.20642996344822
C            2.46454105690050       -1.81735128153261       -0.63160283518103
C           -2.35019666998283        1.54002456202228        1.80979125179812
H           -0.99546606431561       -0.63579793911985        2.79140814067552
H            2.79626084117841        1.16444902588984       -2.35187998643016
H            1.83952761599719       -2.36079672940456       -1.33782814584747
H           -1.40572319387676        1.85385450326516        2.24797333007135
H           -2.72175867159677       -0.91121383152223        2.94562403543442
H            2.26078018659789       -0.40401425999503       -2.99025840443524
H            3.49988854408214       -2.10440495471176       -0.80526535843052
H           -3.09240185787520        1.50290521813821        2.60061466685498
H           -1.79909274075354       -1.88279041544083        1.79216395731746
H            3.86716721171397       -0.21988659253912       -2.30071722019860
H            2.20484287159476       -2.12914151476543        0.37682117681746
H           -2.65934654921969        2.28754508325309        1.08835000242349
C           -3.46231722537602       -0.23311231305824        0.39213604860430
C            3.06981834630485        0.46812568864591        0.26058919884219
H           -4.30243318753875       -0.29195763297231        1.07521459687379
H            2.76558468509611        0.15699778885737        1.25525841614512
H           -3.70646071292888        0.49453113673336       -0.37429120018228
H            2.89294948411952        1.53427770349717        0.15636068812903
H            4.13912321105295        0.29214461507945        0.17055898875479
H           -3.33551409874869       -1.20892484912226       -0.07297979559846

 Bond Distances (Angstroems)
 ---------------------------
C1-N3=1.4740         C1-C11=1.5260        C1-C14=1.5310        C1-C27=1.5284        C2-N4=1.4768         C2-C12=1.5247        
C2-C13=1.5286        C2-C28=1.5314        N3-C1=1.4740         N3-C5=1.3626         N3-C7=1.3280         N4-C2=1.4768         
N4-C6=1.3605         N4-C7=1.3314         C5-N3=1.3626         C5-C6=1.3607         C5-H8=1.0696         C6-N4=1.3605         
C6-C5=1.3607         C6-H9=1.0694         C7-N3=1.3280         C7-N4=1.3314         C7-H10=1.0693        H8-C5=1.0696         
H9-C6=1.0694         H10-C7=1.0693        C11-C1=1.5260        C11-H15=1.0910       C11-H19=1.0914       C11-H23=1.0926       
C12-C2=1.5247        C12-H16=1.0861       C12-H20=1.0864       C12-H24=1.0868       C13-C2=1.5286        C13-H17=1.0885       
C13-H21=1.0883       C13-H25=1.0870       C14-C1=1.5310        C14-H18=1.0874       C14-H22=1.0852       C14-H26=1.0839       
H15-C11=1.0910       H16-C12=1.0861       H17-C13=1.0885       H18-C14=1.0874       H19-C11=1.0914       H20-C12=1.0864       
H21-C13=1.0883       H22-C14=1.0852       H23-C11=1.0926       H24-C12=1.0868       H25-C13=1.0870       H26-C14=1.0839       
C27-C1=1.5284        C27-H29=1.0844       C27-H31=1.0847       C27-H34=1.0884       C28-C2=1.5314        C28-H30=1.0857       
C28-H32=1.0857       C28-H33=1.0874       H29-C27=1.0844       H30-C28=1.0857       H31-C27=1.0847       H32-C28=1.0857       
H33-C28=1.0874       H34-C27=1.0884       
 C  H  Rav=1.0847 sigma=0.0066  Rmin=1.0693  Rmax=1.0926    21
 C  C  Rav=1.5044 sigma=0.0587  Rmin=1.3607  Rmax=1.5314     7
 N  C  Rav=1.3889 sigma=0.0625  Rmin=1.3280  Rmax=1.4768     6

 selected bond angles (degree)
 --------------------
C11-C1-N3=109.91               C14-C1-N3=106.90               C14-C1-C11=110.04              C27-C1-N3=108.50               
C27-C1-C11=109.99              C27-C1-C14=111.44              C12-C2-N4=109.75               C13-C2-N4=108.79               
C13-C2-C12=109.87              C28-C2-N4=106.75               C28-C2-C12=110.27              C28-C2-C13=111.34              
C5-N3-C1=125.13                C7-N3-C1=127.49                C7-N3-C5=107.28                C6-N4-C2=128.27                
C7-N4-C2=124.17                C7-N4-C6=107.34                C6-C5-N3=107.60                H8-C5-N3=123.48                
H8-C5-C6=128.92                C5-C6-N4=107.51                H9-C6-N4=123.72                H9-C6-C5=128.77                
N4-C7-N3=110.27                H10-C7-N3=125.06               H10-C7-N4=124.67               

 selected dihedral angles (degree)
 ---------------------------------
C5-N3-C1-C11=174.57           C5-N3-C1-C14=293.97           C5-N3-C1-C27= 54.28           C7-N3-C1-C11=350.53           
C7-N3-C1-C14=109.93           C7-N3-C1-C27=230.23           C6-N4-C2-C12=344.85           C6-N4-C2-C13=224.62           
C6-N4-C2-C28=104.36           C7-N4-C2-C12=171.05           C7-N4-C2-C13= 50.81           C7-N4-C2-C28=290.56           
C6-C5-N3-C1=176.61            C6-C5-N3-C7=359.97            H8-C5-N3-C1=357.25            H8-C5-N3-C7=180.61            
C5-C6-N4-C2=185.38            C5-C6-N4-C7=  0.00            H9-C6-N4-C2=  5.74            H9-C6-N4-C7=180.37            
N4-C6-C5-N3=  0.00            N4-C6-C5-H8=179.32            H9-C6-C5-N3=179.62            H9-C6-C5-H8=358.94            
N4-C7-N3-C1=183.50            N4-C7-N3-C5=  0.04            H10-C7-N3-C1=  3.96           H10-C7-N3-C5=180.50           
N3-C7-N4-C2=174.88            N3-C7-N4-C6=359.97            H10-C7-N4-C2=354.42           H10-C7-N4-C6=179.51           
           -------------------------------------------------
          |                Final Singlepoint                |
           -------------------------------------------------

          ...................................................
          :                      SETUP                      :
          :.................................................:
          :  # basis functions                  73          :
          :  # atomic orbitals                  73          :
          :  # shells                           47          :
          :  # electrons                        74          :
          :  max. iterations                   250          :
          :  Hamiltonian                  GFN2-xTB          :
          :  restarted?                      false          :
          :  GBSA solvation                  false          :
          :  PC potential                    false          :
          :  electronic temp.          300.0000000     K    :
          :  accuracy                    1.0000000          :
          :  -> integral cutoff          0.2500000E+02      :
          :  -> integral neglect         0.1000000E-07      :
          :  -> SCF convergence          0.1000000E-05 Eh   :
          :  -> wf. convergence          0.1000000E-03 e    :
          :  Broyden damping             0.4000000          :
          ...................................................

 iter      E             dE          RMSdq      gap      omega  full diag
   1    -40.3875480 -0.403875E+02  0.633E-05    4.81       0.0  T
   2    -40.3875480 -0.477272E-10  0.312E-05    4.81     550.0  T
   3    -40.3875480 -0.129461E-10  0.188E-05    4.81     914.4  T

   *** convergence criteria satisfied after 3 iterations ***

         #    Occupation            Energy/Eh            Energy/eV
      -------------------------------------------------------------
         1        2.0000           -0.8782668             -23.8989
       ...           ...                  ...                  ...
        31        2.0000           -0.5904838             -16.0679
        32        2.0000           -0.5902787             -16.0623
        33        2.0000           -0.5817009             -15.8289
        34        2.0000           -0.5785184             -15.7423
        35        2.0000           -0.5780313             -15.7290
        36        2.0000           -0.5741875             -15.6244
        37        2.0000           -0.5697935             -15.5049 (HOMO)
        38                         -0.3929675             -10.6932 (LUMO)
        39                         -0.3566452              -9.7048
        40                         -0.1970722              -5.3626
        41                         -0.1493542              -4.0641
        42                         -0.0735736              -2.0020
       ...                                ...                  ...
        73                          0.4732637              12.8782
      -------------------------------------------------------------
                  HL-Gap            0.1768260 Eh            4.8117 eV
             Fermi-level           -0.4813805 Eh          -13.0990 eV

 SCC (total)                   0 d,  0 h,  0 min,  0.030 sec
 SCC setup                      ...        0 min,  0.000 sec (  0.919%)
 Dispersion                     ...        0 min,  0.000 sec (  0.999%)
 classical contributions        ...        0 min,  0.000 sec (  0.369%)
 integral evaluation            ...        0 min,  0.005 sec ( 17.923%)
 iterations                     ...        0 min,  0.006 sec ( 21.007%)
 molecular gradient             ...        0 min,  0.017 sec ( 58.009%)
 printout                       ...        0 min,  0.000 sec (  0.704%)

         :::::::::::::::::::::::::::::::::::::::::::::::::::::
         ::                     SUMMARY                     ::
         :::::::::::::::::::::::::::::::::::::::::::::::::::::
         :: total energy             -39.777606372004 Eh    ::
         :: gradient norm              0.008362936860 Eh/a0 ::
         :: HOMO-LUMO gap              4.811679583503 eV    ::
         ::.................................................::
         :: SCC energy               -40.387547979699 Eh    ::
         :: -> isotropic ES            0.076448696757 Eh    ::
         :: -> anisotropic ES         -0.005807030833 Eh    ::
         :: -> anisotropic XC          0.025732187057 Eh    ::
         :: -> dispersion             -0.027909836496 Eh    ::
         :: repulsion energy           0.609661928545 Eh    ::
         :: add. restraining           0.000000000000 Eh    ::
         :: total charge               1.000000000000 e     ::
         :::::::::::::::::::::::::::::::::::::::::::::::::::::

           -------------------------------------------------
          |                Property Printout                |
           -------------------------------------------------

    * Orbital Energies and Occupations

         #    Occupation            Energy/Eh            Energy/eV
      -------------------------------------------------------------
         1        2.0000           -0.8782668             -23.8989
       ...           ...                  ...                  ...
        25        2.0000           -0.6011123             -16.3571
        26        2.0000           -0.5998513             -16.3228
        27        2.0000           -0.5985563             -16.2875
        28        2.0000           -0.5956558             -16.2086
        29        2.0000           -0.5933719             -16.1465
        30        2.0000           -0.5919002             -16.1064
        31        2.0000           -0.5904838             -16.0679
        32        2.0000           -0.5902787             -16.0623
        33        2.0000           -0.5817009             -15.8289
        34        2.0000           -0.5785184             -15.7423
        35        2.0000           -0.5780313             -15.7290
        36        2.0000           -0.5741875             -15.6244
        37        2.0000           -0.5697935             -15.5049 (HOMO)
        38                         -0.3929675             -10.6932 (LUMO)
        39                         -0.3566452              -9.7048
        40                         -0.1970722              -5.3626
        41                         -0.1493542              -4.0641
        42                         -0.0735736              -2.0020
        43                         -0.0604078              -1.6438
        44                         -0.0585376              -1.5929
        45                         -0.0563051              -1.5321
        46                         -0.0414981              -1.1292
        47                         -0.0373532              -1.0164
        48                         -0.0307984              -0.8381
       ...                                ...                  ...
        73                          0.4732637              12.8782
      -------------------------------------------------------------
                  HL-Gap            0.1768260 Eh            4.8117 eV
             Fermi-level           -0.4813805 Eh          -13.0990 eV

     #   Z          covCN         q      C6AA      α(0)
     1   6 C        3.836     0.075    19.303     6.251
     2   6 C        3.837     0.075    19.303     6.250
     3   7 N        2.867     0.048    20.394     6.707
     4   7 N        2.869     0.046    20.443     6.715
     5   6 C        3.085    -0.006    28.074     8.686
     6   6 C        3.079    -0.006    28.090     8.689
     7   6 C        3.122     0.052    26.665     8.457
     8   1 H        0.927     0.099     1.798     2.097
     9   1 H        0.927     0.104     1.753     2.070
    10   1 H        0.927     0.108     1.715     2.048
    11   6 C        3.758    -0.132    23.083     6.850
    12   6 C        3.760    -0.131    23.064     6.846
    13   6 C        3.759    -0.130    23.050     6.845
    14   6 C        3.761    -0.128    22.999     6.837
    15   1 H        0.924     0.055     2.259     2.351
    16   1 H        0.925     0.062     2.178     2.308
    17   1 H        0.925     0.060     2.199     2.319
    18   1 H        0.925     0.055     2.258     2.350
    19   1 H        0.924     0.082     1.964     2.191
    20   1 H        0.925     0.062     2.171     2.304
    21   1 H        0.925     0.081     1.972     2.196
    22   1 H        0.925     0.080     1.982     2.201
    23   1 H        0.924     0.059     2.212     2.326
    24   1 H        0.925     0.079     1.988     2.205
    25   1 H        0.925     0.054     2.267     2.355
    26   1 H        0.925     0.062     2.176     2.307
    27   6 C        3.760    -0.129    23.025     6.841
    28   6 C        3.760    -0.128    23.003     6.837
    29   1 H        0.925     0.080     1.979     2.200
    30   1 H        0.925     0.054     2.272     2.357
    31   1 H        0.925     0.061     2.188     2.313
    32   1 H        0.925     0.058     2.217     2.329
    33   1 H        0.925     0.080     1.974     2.197
    34   1 H        0.925     0.060     2.204     2.322

 Mol. C6AA /au·bohr⁶  :       8558.918267
 Mol. C8AA /au·bohr⁸  :     188313.417487
 Mol. α(0) /au        :        140.156568


molecular dipole:
                 x           y           z       tot (Debye)
 q only:       -0.044       0.155      -0.086
   full:       -0.039       0.151      -0.074       0.439
molecular quadrupole (traceless):
                xx          xy          yy          xz          yz          zz
 q only:       13.598      -3.921      -9.977     -10.096      -2.217      -3.621
  q+dip:       13.079      -4.283      -9.835      -9.617      -3.030      -3.244
   full:       12.498      -3.792      -9.244      -9.219      -2.334      -3.254

           -------------------------------------------------
          |                Geometry Summary                 |
           -------------------------------------------------

      molecular mass/u    :      181.2982571
   center of mass at/Å    :       -0.0088447       0.0572419      -0.0095274
  moments of inertia/u·Å² :        0.3029290E+03   0.1119027E+04   0.1197955E+04
rotational constants/cm⁻¹ :        0.5564880E-01   0.1506455E-01   0.1407200E-01

 * 34 selected distances

     #   Z          #   Z                                           value/Å
     1   6 C        3   7 N                                       1.4739963
     2   6 C        4   7 N                                       1.4767790
     3   7 N        5   6 C                                       1.3625585
     4   7 N        6   6 C                                       1.3605202
     5   6 C        6   6 C                                       1.3606735
     3   7 N        7   6 C                                       1.3280317
     4   7 N        7   6 C                                       1.3314085
     5   6 C        8   1 H                                       1.0695869
     6   6 C        9   1 H                                       1.0693890
     7   6 C       10   1 H                                       1.0692714 (min)
     1   6 C       11   6 C                                       1.5259655
     2   6 C       12   6 C                                       1.5246870
     2   6 C       13   6 C                                       1.5286238
     1   6 C       14   6 C                                       1.5309634
    11   6 C       15   1 H                                       1.0909712
    12   6 C       16   1 H                                       1.0861486
    13   6 C       17   1 H                                       1.0884526
    14   6 C       18   1 H                                       1.0874388
    11   6 C       19   1 H                                       1.0913856
    12   6 C       20   1 H                                       1.0864111
    13   6 C       21   1 H                                       1.0883488
    14   6 C       22   1 H                                       1.0851950
    11   6 C       23   1 H                                       1.0925882
    12   6 C       24   1 H                                       1.0868158
    13   6 C       25   1 H                                       1.0870030
    14   6 C       26   1 H                                       1.0838996
     1   6 C       27   6 C                                       1.5283957
     2   6 C       28   6 C                                       1.5314077 (max)
    27   6 C       29   1 H                                       1.0843681
    28   6 C       30   1 H                                       1.0856914
    27   6 C       31   1 H                                       1.0846575
    28   6 C       32   1 H                                       1.0857378
    28   6 C       33   1 H                                       1.0874226
    27   6 C       34   1 H                                       1.0884035

 * 3 distinct bonds (by element types)

   Z      Z             #   av. dist./Å        max./Å        min./Å
   1 H    6 C          21     1.0847232     1.0925882     1.0692714
   6 C    6 C           7     1.5043881     1.5314077     1.3606735
   6 C    7 N           6     1.3888823     1.4767790     1.3280317


optimized geometry written to: xtbopt.xyz


           -------------------------------------------------
          | TOTAL ENERGY              -39.777606372004 Eh   |
          | GRADIENT NORM               0.008362936860 Eh/α |
          | HOMO-LUMO GAP               4.811679583503 eV   |
           -------------------------------------------------

------------------------------------------------------------------------
 * finished run on 2024/02/12 at 14:13:52.426     
------------------------------------------------------------------------
 total:
 * wall-time:     0 d,  0 h,  0 min,  0.532 sec
 *  cpu-time:     0 d,  0 h,  0 min,  0.488 sec
 * ratio c/w:     0.917 speedup
 SCF:
 * wall-time:     0 d,  0 h,  0 min,  0.084 sec
 *  cpu-time:     0 d,  0 h,  0 min,  0.045 sec
 * ratio c/w:     0.535 speedup
 ANC optimizer:
 * wall-time:     0 d,  0 h,  0 min,  0.424 sec
 *  cpu-time:     0 d,  0 h,  0 min,  0.420 sec
 * ratio c/w:     0.991 speedup

