
                                 *****************
                                 * O   R   C   A *
                                 *****************

                                            #,                                       
                                            ###                                      
                                            ####                                     
                                            #####                                    
                                            ######                                   
                                           ########,                                 
                                     ,,################,,,,,                         
                               ,,#################################,,                 
                          ,,##########################################,,             
                       ,#########################################, ''#####,          
                    ,#############################################,,   '####,        
                  ,##################################################,,,,####,       
                ,###########''''           ''''###############################       
              ,#####''   ,,,,##########,,,,          '''####'''          '####       
            ,##' ,,,,###########################,,,                        '##       
           ' ,,###''''                  '''############,,,                           
         ,,##''                                '''############,,,,        ,,,,,,###''
      ,#''                                            '''#######################'''  
     '                                                          ''''####''''         
             ,#######,   #######,   ,#######,      ##                                
            ,#'     '#,  ##    ##  ,#'     '#,    #''#        ######   ,####,        
            ##       ##  ##   ,#'  ##            #'  '#       #        #'  '#        
            ##       ##  #######   ##           ,######,      #####,   #    #        
            '#,     ,#'  ##    ##  '#,     ,#' ,#      #,         ##   #,  ,#        
             '#######'   ##     ##  '#######'  #'      '#     #####' # '####'        



                  #######################################################
                  #                        -***-                        #
                  #          Department of theory and spectroscopy      #
                  #    Directorship and core code : Frank Neese         #
                  #        Max Planck Institute fuer Kohlenforschung    #
                  #                Kaiser Wilhelm Platz 1               #
                  #                 D-45470 Muelheim/Ruhr               #
                  #                      Germany                        #
                  #                                                     #
                  #                  All rights reserved                #
                  #                        -***-                        #
                  #######################################################


                         Program Version 5.0.4 -  RELEASE  -


 With contributions from (in alphabetic order):
   Daniel Aravena         : Magnetic Suceptibility
   Michael Atanasov       : Ab Initio Ligand Field Theory (pilot matlab implementation)
   Alexander A. Auer      : GIAO ZORA, VPT2 properties, NMR spectrum
   Ute Becker             : Parallelization
   Giovanni Bistoni       : ED, misc. LED, open-shell LED, HFLD
   Martin Brehm           : Molecular dynamics
   Dmytro Bykov           : SCF Hessian
   Vijay G. Chilkuri      : MRCI spin determinant printing, contributions to CSF-ICE
   Dipayan Datta          : RHF DLPNO-CCSD density
   Achintya Kumar Dutta   : EOM-CC, STEOM-CC
   Dmitry Ganyushin       : Spin-Orbit,Spin-Spin,Magnetic field MRCI
   Miquel Garcia          : C-PCM and meta-GGA Hessian, CC/C-PCM, Gaussian charge scheme
   Yang Guo               : DLPNO-NEVPT2, F12-NEVPT2, CIM, IAO-localization
   Andreas Hansen         : Spin unrestricted coupled pair/coupled cluster methods
   Benjamin Helmich-Paris : MC-RPA, TRAH-SCF, COSX integrals
   Lee Huntington         : MR-EOM, pCC
   Robert Izsak           : Overlap fitted RIJCOSX, COSX-SCS-MP3, EOM
   Marcus Kettner         : VPT2
   Christian Kollmar      : KDIIS, OOCD, Brueckner-CCSD(T), CCSD density, CASPT2, CASPT2-K
   Simone Kossmann        : Meta GGA functionals, TD-DFT gradient, OOMP2, MP2 Hessian
   Martin Krupicka        : Initial AUTO-CI
   Lucas Lang             : DCDCAS
   Marvin Lechner         : AUTO-CI (C++ implementation), FIC-MRCC
   Dagmar Lenk            : GEPOL surface, SMD
   Dimitrios Liakos       : Extrapolation schemes; Compound Job, initial MDCI parallelization
   Dimitrios Manganas     : Further ROCIS development; embedding schemes
   Dimitrios Pantazis     : SARC Basis sets
   Anastasios Papadopoulos: AUTO-CI, single reference methods and gradients
   Taras Petrenko         : DFT Hessian,TD-DFT gradient, ASA, ECA, R-Raman, ABS, FL, XAS/XES, NRVS
   Peter Pinski           : DLPNO-MP2, DLPNO-MP2 Gradient
   Christoph Reimann      : Effective Core Potentials
   Marius Retegan         : Local ZFS, SOC
   Christoph Riplinger    : Optimizer, TS searches, QM/MM, DLPNO-CCSD(T), (RO)-DLPNO pert. Triples
   Tobias Risthaus        : Range-separated hybrids, TD-DFT gradient, RPA, STAB
   Michael Roemelt        : Original ROCIS implementation
   Masaaki Saitow         : Open-shell DLPNO-CCSD energy and density
   Barbara Sandhoefer     : DKH picture change effects
   Avijit Sen             : IP-ROCIS
   Kantharuban Sivalingam : CASSCF convergence, NEVPT2, FIC-MRCI
   Bernardo de Souza      : ESD, SOC TD-DFT
   Georgi Stoychev        : AutoAux, RI-MP2 NMR, DLPNO-MP2 response
   Willem Van den Heuvel  : Paramagnetic NMR
   Boris Wezisla          : Elementary symmetry handling
   Frank Wennmohs         : Technical directorship


 We gratefully acknowledge several colleagues who have allowed us to
 interface, adapt or use parts of their codes:
   Stefan Grimme, W. Hujo, H. Kruse, P. Pracht,  : VdW corrections, initial TS optimization,
                  C. Bannwarth, S. Ehlert          DFT functionals, gCP, sTDA/sTD-DF
   Ed Valeev, F. Pavosevic, A. Kumar             : LibInt (2-el integral package), F12 methods
   Garnet Chan, S. Sharma, J. Yang, R. Olivares  : DMRG
   Ulf Ekstrom                                   : XCFun DFT Library
   Mihaly Kallay                                 : mrcc  (arbitrary order and MRCC methods)
   Jiri Pittner, Ondrej Demel                    : Mk-CCSD
   Frank Weinhold                                : gennbo (NPA and NBO analysis)
   Christopher J. Cramer and Donald G. Truhlar   : smd solvation model
   Lars Goerigk                                  : TD-DFT with DH, B97 family of functionals
   V. Asgeirsson, H. Jonsson                     : NEB implementation
   FAccTs GmbH                                   : IRC, NEB, NEB-TS, DLPNO-Multilevel, CI-OPT
                                                   MM, QMMM, 2- and 3-layer-ONIOM, Crystal-QMMM,
                                                   LR-CPCM, SF, NACMEs, symmetry and pop. for TD-DFT,
                                                   nearIR, NL-DFT gradient (VV10), updates on ESD,
                                                   ML-optimized integration grids
   S Lehtola, MJT Oliveira, MAL Marques          : LibXC Library
   Liviu Ungur et al                             : ANISO software


 Your calculation uses the libint2 library for the computation of 2-el integrals
 For citations please refer to: http://libint.valeyev.net

 Your ORCA version has been built with support for libXC version: 5.1.0
 For citations please refer to: https://tddft.org/programs/libxc/

 This ORCA versions uses:
   CBLAS   interface :  Fast vector & matrix operations
   LAPACKE interface :  Fast linear algebra routines
   SCALAPACK package :  Parallel linear algebra routines
   Shared memory     :  Shared parallel matrices
   BLAS/LAPACK       :  OpenBLAS 0.3.15  USE64BITINT DYNAMIC_ARCH NO_AFFINITY SkylakeX SINGLE_THREADED
        Core in use  :  SkylakeX
   Copyright (c) 2011-2014, The OpenBLAS Project




***************************************
The coordinates will be read from file: 8_prot.xyz
***************************************


Your calculation utilizes the atom-pairwise dispersion correction
based on tight binding partial charges (D4)
Cite in your paper:
E.Caldeweyher, C.Bannwarth, S.Grimme, J.Chem.Phys., (2017), 147, 034112.
E.Caldeweyher, S.Ehlert, A.Hansen, H.Neugebauer, S.Grimme, J.Chem.Phys., (2018), in progress.
   

XCFun DFT library Copyright 2009-2010 Ulf Ekstrom and contributors.
See http://admol.org/xcfun for more information.
This is free software; see the source code for copying conditions.
There is ABSOLUTELY NO WARRANTY; not even for MERCHANTABILITY or FITNESS FOR A PARTICULAR PURPOSE.
For details see the documentation.
Scientific users of this library should cite U. Ekstrom, L. Visscher, R. Bast, A. J. Thorvaldsen and K. Ruud;
J.Chem.Theor.Comp. 2010, DOI: 10.1021/ct100117s
XCFun Version 0.99 

================================================================================

----- Orbital basis set information -----
Your calculation utilizes the basis: def2-TZVP
   F. Weigend and R. Ahlrichs, Phys. Chem. Chem. Phys. 7, 3297 (2005).

----- AuxJ basis set information -----
Your calculation utilizes the auxiliary basis: def2/J
   F. Weigend, Phys. Chem. Chem. Phys. 8, 1057 (2006).

================================================================================
                                        WARNINGS
                       Please study these warnings very carefully!
================================================================================

WARNING: Old DensityContainer found on disk!
         Will remove this file - 
         If you want to keep old densities, please start your calculation with a different basename. 


WARNING: Geometry Optimization
  ===> : Switching off AutoStart
         For restart on a previous wavefunction, please use MOREAD

INFO   : the flag for use of the SHARK integral package has been found!

================================================================================
                                       INPUT FILE
================================================================================
NAME = 8_prot.inp
|  1> # ORCA 5.0.4 - /users/bwb16179/postgrad/2024_06/pKa_Reviewer_Comments/Gas_Z=1/8_prot.inp # write input file
|  2> # Basic Mode
|  3> #
|  4> ! Opt Freq wB97X Def2-TZVP D4 SlowConv TightSCF Defgrid2 Def2/J RIJCOSX 
|  5> 
|  6> %PAL NPROCS 4 END
|  7> 
|  8> %maxcore 4500
|  9> 
| 10> %geom
| 11> Maxiter 150
| 12> END
| 13> 
| 14> * xyzfile 1 1 8_prot.xyz
| 15> 
| 16>                          ****END OF INPUT****
================================================================================

                       *****************************
                       * Geometry Optimization Run *
                       *****************************

Geometry optimization settings:
Update method            Update   .... BFGS
Choice of coordinates    CoordSys .... Z-matrix Internals
Initial Hessian          InHess   .... Almoef's Model

Convergence Tolerances:
Energy Change            TolE     ....  5.0000e-06 Eh
Max. Gradient            TolMAXG  ....  3.0000e-04 Eh/bohr
RMS Gradient             TolRMSG  ....  1.0000e-04 Eh/bohr
Max. Displacement        TolMAXD  ....  4.0000e-03 bohr
RMS Displacement         TolRMSD  ....  2.0000e-03 bohr
Strict Convergence                ....  False
------------------------------------------------------------------------------
                        ORCA OPTIMIZATION COORDINATE SETUP
------------------------------------------------------------------------------

The optimization will be done in new redundant internal coordinates
Making redundant internal coordinates   ...  (new redundants) done
Evaluating the initial hessian          ...  (Almloef) done
Evaluating the coordinates              ...  done
Calculating the B-matrix                .... done
Calculating the G-matrix                .... done
Diagonalizing the G-matrix              .... done
Small eigenvalue found = 1.099e-02
Small eigenvalue found = 2.119e-02
The first mode is                       ....  308
The number of degrees of freedom        ....  120

    -----------------------------------------------------------------
                    Redundant Internal Coordinates


    -----------------------------------------------------------------
         Definition                    Initial Value    Approx d2E/dq
    -----------------------------------------------------------------
      1. B(C   1,C   0)                  1.3532         0.715283   
      2. B(H   3,C   0)                  1.0774         0.377204   
      3. B(H   4,C   1)                  1.0775         0.377084   
      4. B(H   5,C   2)                  1.0795         0.374329   
      5. B(N   6,C   0)                  1.3775         0.585846   
      6. B(N   6,C   2)                  1.3278         0.703209   
      7. B(N   7,C   1)                  1.3780         0.584735   
      8. B(N   7,C   2)                  1.3257         0.708762   
      9. B(C   8,N   6)                  1.4451         0.457062   
     10. B(C   9,C   8)                  1.3932         0.617579   
     11. B(C  10,C   8)                  1.3931         0.617812   
     12. B(C  11,C   9)                  1.3888         0.627525   
     13. B(C  12,C  10)                  1.3890         0.627127   
     14. B(C  13,C  12)                  1.3851         0.636227   
     15. B(C  13,C  11)                  1.3848         0.636798   
     16. B(H  14,C  11)                  1.0834         0.368982   
     17. B(H  15,C  12)                  1.0834         0.368952   
     18. B(H  16,C  13)                  1.0829         0.369564   
     19. B(C  17,N   7)                  1.4450         0.457145   
     20. B(C  18,C  17)                  1.3983         0.605951   
     21. B(C  19,C  17)                  1.3899         0.625016   
     22. B(C  20,C  18)                  1.3842         0.638204   
     23. B(C  21,C  19)                  1.3941         0.615449   
     24. B(C  22,C  21)                  1.3799         0.648516   
     25. B(C  22,C  20)                  1.3888         0.627458   
     26. B(H  23,C  20)                  1.0833         0.369010   
     27. B(H  24,C  21)                  1.0845         0.367510   
     28. B(H  25,C  22)                  1.0830         0.369471   
     29. B(C  26,C  10)                  1.5047         0.410008   
     30. B(H  27,C  26)                  1.0977         0.350079   
     31. B(H  28,C  26)                  1.0969         0.351101   
     32. B(H  29,C  26)                  1.0916         0.357997   
     33. B(C  30,C  19)                  1.5107         0.401093   
     34. B(H  31,C  30)                  2.0408         0.010951   
     35. B(H  32,C  30)                  2.0956         0.008953   
     36. B(H  32,H  28)                  2.1771         0.001271   
     37. B(H  32,C  26)                  2.4358         0.002566   
     38. B(H  32,N   7)                  2.1983         0.005500   
     39. B(H  32,N   6)                  2.3744         0.002880   
     40. B(H  32,H   5)                  2.2910         0.000836   
     41. B(H  32,C   2)                  1.9296         0.016478   
     42. B(H  32,H  27)                  1.9062         0.003437   
     43. B(H  33,C  30)                  2.1479         0.007390   
     44. B(H  33,H  24)                  2.7173         0.000175   
     45. B(C  34,C   9)                  1.5040         0.411085   
     46. B(H  35,C  34)                  1.0936         0.355404   
     47. B(H  36,C  34)                  1.0888         0.361748   
     48. B(H  37,C  34)                  1.0934         0.355693   
     49. B(C  38,C  18)                  1.5038         0.411260   
     50. B(H  39,C  38)                  1.0929         0.356349   
     51. B(H  40,C  38)                  1.0924         0.356912   
     52. B(H  41,C  38)                  1.0881         0.362602   
     53. A(H   3,C   0,N   6)          121.6333         0.350130   
     54. A(C   1,C   0,N   6)          107.0460         0.437977   
     55. A(C   1,C   0,H   3)          131.3186         0.364466   
     56. A(H   4,C   1,N   7)          121.5902         0.349999   
     57. A(C   0,C   1,H   4)          131.4518         0.364446   
     58. A(C   0,C   1,N   7)          106.9468         0.437827   
     59. A(N   6,C   2,N   7)          108.8829         0.448962   
     60. A(H   5,C   2,N   7)          125.5723         0.361162   
     61. A(H   5,C   2,H  32)           94.9578         0.190305   
     62. A(H   5,C   2,N   6)          125.5445         0.360678   
     63. A(N   6,C   2,H  32)           91.6928         0.222987   
     64. A(N   7,C   2,H  32)           82.7192         0.223226   
     65. A(C   2,H   5,H  32)           57.0460         0.130259   
     66. A(C   0,N   6,C   2)          108.5103         0.433774   
     67. A(C   2,N   6,C   8)          125.1897         0.414937   
     68. A(C   0,N   6,H  32)           94.9087         0.174618   
     69. A(C   8,N   6,H  32)          114.6671         0.169940   
     70. A(C   0,N   6,C   8)          126.2986         0.401741   
     71. A(C   2,N   6,H  32)           54.3221         0.178231   
     72. A(C   1,N   7,H  32)           98.3289         0.188079   
     73. A(C   2,N   7,C  17)          125.5022         0.415531   
     74. A(C  17,N   7,H  32)          105.1043         0.182710   
     75. A(C   1,N   7,C  17)          125.8169         0.401619   
     76. A(C   2,N   7,H  32)           60.5402         0.192488   
     77. A(C   1,N   7,C   2)          108.6128         0.434240   
     78. A(N   6,C   8,C   9)          118.1194         0.408123   
     79. A(C   9,C   8,C  10)          123.9969         0.433485   
     80. A(N   6,C   8,C  10)          117.8834         0.408150   
     81. A(C   8,C   9,C  11)          116.8927         0.434703   
     82. A(C  11,C   9,C  34)          121.1427         0.404280   
     83. A(C   8,C   9,C  34)          121.9638         0.403142   
     84. A(C  12,C  10,C  26)          121.3394         0.404047   
     85. A(C   8,C  10,C  12)          116.8970         0.434683   
     86. A(C   8,C  10,C  26)          121.7625         0.402982   
     87. A(C  13,C  11,H  14)          120.0297         0.355979   
     88. A(C   9,C  11,H  14)          119.1751         0.355094   
     89. A(C   9,C  11,C  13)          120.7950         0.437109   
     90. A(C  10,C  12,C  13)          120.7786         0.436989   
     91. A(C  10,C  12,H  15)          119.2318         0.355051   
     92. A(C  13,C  12,H  15)          119.9884         0.355920   
     93. A(C  11,C  13,C  12)          120.6373         0.438196   
     94. A(C  11,C  13,H  16)          119.6856         0.356074   
     95. A(C  12,C  13,H  16)          119.6769         0.356020   
     96. A(N   7,C  17,C  19)          118.5018         0.409002   
     97. A(N   7,C  17,C  18)          117.6151         0.406766   
     98. A(C  18,C  17,C  19)          123.8740         0.432907   
     99. A(C  20,C  18,C  38)          121.1951         0.405517   
    100. A(C  17,C  18,C  38)          121.7582         0.401823   
    101. A(C  17,C  18,C  20)          117.0460         0.434536   
    102. A(C  17,C  19,C  30)          123.6644         0.402244   
    103. A(C  21,C  19,C  30)          119.3573         0.401153   
    104. A(C  17,C  19,C  21)          116.7790         0.434120   
    105. A(C  22,C  20,H  23)          119.9828         0.355092   
    106. A(C  18,C  20,H  23)          119.2691         0.356117   
    107. A(C  18,C  20,C  22)          120.7441         0.437275   
    108. A(C  22,C  21,H  24)          120.0374         0.356841   
    109. A(C  19,C  21,H  24)          119.0077         0.353687   
    110. A(C  19,C  21,C  22)          120.9501         0.437015   
    111. A(C  21,C  22,H  25)          119.7508         0.357163   
    112. A(C  20,C  22,H  25)          119.6495         0.355167   
    113. A(C  20,C  22,C  21)          120.5911         0.438541   
    114. A(C  21,H  24,H  33)           97.3898         0.117825   
    115. A(C  10,C  26,H  28)          111.4777         0.327955   
    116. A(H  28,C  26,H  29)          107.8133         0.289421   
    117. A(C  10,C  26,H  29)          110.3267         0.329009   
    118. A(H  27,C  26,H  28)          107.5190         0.288409   
    119. A(H  27,C  26,H  29)          107.6126         0.289289   
    120. A(C  10,C  26,H  27)          111.9071         0.327798   
    121. A(H  29,C  26,H  32)          140.0915         0.154832   
    122. A(H  28,C  26,H  32)           63.3517         0.154543   
    123. A(H  27,C  26,H  32)           49.0544         0.154500   
    124. A(C  10,C  26,H  32)          108.8549         0.167490   
    125. A(C  26,H  27,H  32)          105.1636         0.144958   
    126. A(C  26,H  28,H  32)           89.8846         0.133703   
    127. A(C  19,C  30,H  33)          101.9770         0.188228   
    128. A(H  31,C  30,H  32)          118.1610         0.128674   
    129. A(C  19,C  30,H  31)           97.0496         0.197466   
    130. A(C  19,C  30,H  32)          103.9007         0.192633   
    131. A(H  31,C  30,H  33)          116.0124         0.126988   
    132. A(H  32,C  30,H  33)          115.2204         0.125295   
    133. A(H  28,H  32,C  30)          139.8643         0.108484   
    134. A(H  27,H  32,C  30)          126.0910         0.113406   
    135. A(C  26,H  32,C  30)          144.8208         0.117567   
    136. A(N   7,H  32,C  30)           85.6410         0.122553   
    137. A(N   6,H  32,C  30)          141.7781         0.117982   
    138. A(H   5,H  32,C  30)          105.2172         0.106724   
    139. A(C   2,H  32,C  30)          112.7075         0.132519   
    140. A(H  27,H  32,H  28)           50.8479         0.101545   
    141. A(C  26,H  32,H  28)           26.7637         0.103684   
    142. A(N   7,H  32,H  28)          125.7838         0.106246   
    143. A(H   5,H  32,H  28)          112.7882         0.098110   
    144. A(C   2,H  32,H  28)          106.9340         0.111369   
    145. A(C  26,H  32,H  27)           25.7820         0.107393   
    146. A(N   7,H  32,H  27)          135.0198         0.110603   
    147. A(N   6,H  32,H  27)           86.2838         0.107660   
    148. A(H   5,H  32,H  27)           82.1325         0.100411   
    149. A(C   2,H  32,H  27)           98.2822         0.117019   
    150. A(N   7,H  32,C  26)          129.0340         0.114286   
    151. A(N   6,H  32,C  26)           72.9802         0.110842   
    152. A(H   5,H  32,C  26)           92.2456         0.102357   
    153. A(C   2,H  32,C  26)           97.1074         0.121797   
    154. A(N   6,H  32,H  28)           74.6963         0.103897   
    155. A(N   6,H  32,N   7)           56.1799         0.114654   
    156. A(H   5,H  32,N   7)           56.9484         0.104688   
    157. A(C   2,H  32,N   7)           36.7406         0.127521   
    158. A(H   5,H  32,N   6)           54.6688         0.102551   
    159. A(C   2,H  32,N   6)           33.9851         0.122273   
    160. A(C   2,H  32,H   5)           27.9962         0.109348   
    161. A(H  24,H  33,C  30)           65.8929         0.100906   
    162. A(H  36,C  34,H  37)          107.5001         0.290486   
    163. A(H  35,C  34,H  37)          107.4784         0.289680   
    164. A(C   9,C  34,H  37)          111.5268         0.328801   
    165. A(H  35,C  34,H  36)          107.8496         0.290449   
    166. A(C   9,C  34,H  36)          110.3788         0.329719   
    167. A(C   9,C  34,H  35)          111.9145         0.328757   
    168. A(H  40,C  38,H  41)          107.5566         0.290750   
    169. A(H  39,C  38,H  41)          107.7794         0.290677   
    170. A(C  18,C  38,H  41)          110.3507         0.329871   
    171. A(H  39,C  38,H  40)          107.5163         0.289957   
    172. A(C  18,C  38,H  40)          111.6146         0.329010   
    173. A(C  18,C  38,H  39)          111.8321         0.328924   
    174. D(N   7,C   1,C   0,N   6)     -0.2708         0.036169   
    175. D(H   4,C   1,C   0,H   3)      0.4306         0.036169   
    176. D(H   4,C   1,C   0,N   6)   -179.0315         0.036169   
    177. D(N   7,C   1,C   0,H   3)    179.1912         0.036169   
    178. D(H  32,H   5,C   2,N   7)     84.5859         0.133520   
    179. D(H  32,H   5,C   2,N   6)    -95.6481         0.133520   
    180. D(C   0,N   6,C   2,H  32)     82.5713         0.047990   
    181. D(C   8,N   6,C   2,N   7)   -179.9125         0.047990   
    182. D(C   8,N   6,C   0,C   1)    179.9574         0.029958   
    183. D(C   2,N   6,C   0,C   1)      0.3625         0.029958   
    184. D(C   8,N   6,C   0,H   3)      0.4320         0.029958   
    185. D(C   8,N   6,C   2,H  32)    -97.0292         0.047990   
    186. D(H  32,N   6,C   0,C   1)     54.3079         0.029958   
    187. D(C   8,N   6,C   2,H   5)      0.2888         0.047990   
    188. D(H  32,N   6,C   2,N   7)    -82.8833         0.047990   
    189. D(H  32,N   6,C   2,H   5)     97.3179         0.047990   
    190. D(C   2,N   6,C   0,H   3)   -179.1629         0.029958   
    191. D(C   0,N   6,C   2,H   5)    179.8893         0.047990   
    192. D(C   0,N   6,C   2,N   7)     -0.3120         0.047990   
    193. D(H  32,N   6,C   0,H   3)   -125.2176         0.029958   
    194. D(C  17,N   7,C   2,H   5)     -2.9259         0.048834   
    195. D(H  32,N   7,C   2,N   6)     89.2995         0.048834   
    196. D(C  17,N   7,C   2,N   6)    177.2754         0.048834   
    197. D(H  32,N   7,C   1,H   4)    117.3677         0.029836   
    198. D(C   2,N   7,C   1,H   4)    178.9965         0.029836   
    199. D(C   2,N   7,C   1,C   0)      0.0870         0.029836   
    200. D(C  17,N   7,C   1,C   0)   -177.0361         0.029836   
    201. D(H  32,N   7,C   2,H   5)    -90.9018         0.048834   
    202. D(C  17,N   7,C   1,H   4)      1.8734         0.029836   
    203. D(C   1,N   7,C   2,N   6)      0.1409         0.048834   
    204. D(C   1,N   7,C   2,H   5)    179.9396         0.048834   
    205. D(C   1,N   7,C   2,H  32)    -89.1586         0.048834   
    206. D(C  17,N   7,C   2,H  32)     87.9759         0.048834   
    207. D(H  32,N   7,C   1,C   0)    -61.5418         0.029836   
    208. D(C   9,C   8,N   6,C   0)     77.5342         0.017829   
    209. D(C  10,C   8,N   6,C   0)   -102.2595         0.017829   
    210. D(C  10,C   8,N   6,H  32)     14.7522         0.017829   
    211. D(C   9,C   8,N   6,H  32)   -165.4542         0.017829   
    212. D(C  10,C   8,N   6,C   2)     77.2705         0.017829   
    213. D(C   9,C   8,N   6,C   2)   -102.9359         0.017829   
    214. D(C  11,C   9,C   8,N   6)    179.7056         0.026380   
    215. D(C  34,C   9,C   8,C  10)    179.1430         0.026380   
    216. D(C  11,C   9,C   8,C  10)     -0.5144         0.026380   
    217. D(C  34,C   9,C   8,N   6)     -0.6370         0.026380   
    218. D(C  26,C  10,C   8,C   9)   -179.0197         0.026401   
    219. D(C  26,C  10,C   8,N   6)      0.7608         0.026401   
    220. D(C  12,C  10,C   8,C   9)      0.6112         0.026401   
    221. D(C  12,C  10,C   8,N   6)   -179.6083         0.026401   
    222. D(H  14,C  11,C   9,C   8)   -179.7665         0.027290   
    223. D(H  14,C  11,C   9,C  34)      0.5731         0.027290   
    224. D(C  13,C  11,C   9,C   8)      0.1102         0.027290   
    225. D(C  13,C  11,C   9,C  34)   -179.5502         0.027290   
    226. D(C  13,C  12,C  10,C  26)    179.3263         0.027253   
    227. D(C  13,C  12,C  10,C   8)     -0.3062         0.027253   
    228. D(H  15,C  12,C  10,C   8)   -179.8967         0.027253   
    229. D(H  15,C  12,C  10,C  26)     -0.2642         0.027253   
    230. D(H  16,C  13,C  12,C  10)   -179.9304         0.028102   
    231. D(C  11,C  13,C  12,H  15)    179.5255         0.028102   
    232. D(H  16,C  13,C  11,H  14)     -0.0913         0.028156   
    233. D(C  11,C  13,C  12,C  10)     -0.0619         0.028102   
    234. D(C  12,C  13,C  11,H  14)   -179.9597         0.028156   
    235. D(H  16,C  13,C  11,C   9)   -179.9669         0.028156   
    236. D(C  12,C  13,C  11,C   9)      0.1646         0.028156   
    237. D(H  16,C  13,C  12,H  15)     -0.3429         0.028102   
    238. D(C  19,C  17,N   7,H  32)    -15.7649         0.017836   
    239. D(C  19,C  17,N   7,C   2)    -80.0936         0.017836   
    240. D(C  19,C  17,N   7,C   1)     96.5569         0.017836   
    241. D(C  18,C  17,N   7,H  32)    165.2942         0.017836   
    242. D(C  18,C  17,N   7,C   2)    100.9655         0.017836   
    243. D(C  18,C  17,N   7,C   1)    -82.3840         0.017836   
    244. D(C  38,C  18,C  17,C  19)   -178.3419         0.025340   
    245. D(C  38,C  18,C  17,N   7)      0.5371         0.025340   
    246. D(C  20,C  18,C  17,C  19)      1.3609         0.025340   
    247. D(C  20,C  18,C  17,N   7)   -179.7601         0.025340   
    248. D(C  30,C  19,C  17,C  18)   -175.4598         0.027058   
    249. D(C  30,C  19,C  17,N   7)      5.6705         0.027058   
    250. D(C  21,C  19,C  17,C  18)     -0.6348         0.027058   
    251. D(C  21,C  19,C  17,N   7)   -179.5045         0.027058   
    252. D(C  22,C  20,C  18,C  17)     -0.9410         0.028288   
    253. D(H  23,C  20,C  18,C  38)     -0.5131         0.028288   
    254. D(H  23,C  20,C  18,C  17)    179.7823         0.028288   
    255. D(C  22,C  20,C  18,C  38)    178.7636         0.028288   
    256. D(H  24,C  21,C  19,C  30)     -6.2702         0.026187   
    257. D(H  24,C  21,C  19,C  17)    178.6710         0.026187   
    258. D(C  22,C  21,C  19,C  30)    174.5322         0.026187   
    259. D(C  22,C  21,C  19,C  17)     -0.5266         0.026187   
    260. D(C  20,C  22,C  21,H  24)   -178.2748         0.029274   
    261. D(H  25,C  22,C  20,C  18)   -179.0770         0.027284   
    262. D(C  21,C  22,C  20,H  23)    179.1270         0.027284   
    263. D(C  21,C  22,C  20,C  18)     -0.1446         0.027284   
    264. D(H  25,C  22,C  21,C  19)    179.8459         0.029274   
    265. D(C  20,C  22,C  21,C  19)      0.9146         0.029274   
    266. D(H  25,C  22,C  21,H  24)      0.6566         0.029274   
    267. D(H  25,C  22,C  20,H  23)      0.1946         0.027284   
    268. D(H  33,H  24,C  21,C  22)   -139.7778         0.115202   
    269. D(H  33,H  24,C  21,C  19)     41.0171         0.115202   
    270. D(H  32,C  26,C  10,C  12)    165.5313         0.013317   
    271. D(H  28,C  26,C  10,C  12)   -126.4896         0.013317   
    272. D(H  27,C  26,C  10,C   8)    -67.3319         0.013317   
    273. D(H  27,C  26,C  10,C  12)    113.0535         0.013317   
    274. D(H  29,C  26,C  10,C  12)     -6.7321         0.013317   
    275. D(H  32,C  26,C  10,C   8)    -14.8542         0.013317   
    276. D(H  29,C  26,C  10,C   8)    172.8824         0.013317   
    277. D(H  28,C  26,C  10,C   8)     53.1249         0.013317   
    278. D(H  32,H  27,C  26,C  10)     96.4450         0.123697   
    279. D(H  32,H  27,C  26,H  29)   -142.1901         0.123697   
    280. D(H  32,H  27,C  26,H  28)    -26.2913         0.123697   
    281. D(H  32,H  28,C  26,C  10)   -101.0180         0.124576   
    282. D(H  32,H  28,C  26,H  27)     21.9826         0.124576   
    283. D(H  32,H  28,C  26,H  29)    137.7490         0.124576   
    284. D(H  33,C  30,C  19,C  21)    -46.0724         0.011936   
    285. D(H  31,C  30,C  19,C  17)   -112.8204         0.011936   
    286. D(H  32,C  30,C  19,C  21)   -166.1536         0.011936   
    287. D(H  32,C  30,C  19,C  17)      8.5453         0.011936   
    288. D(H  31,C  30,C  19,C  21)     72.4807         0.011936   
    289. D(H  33,C  30,C  19,C  17)    128.6265         0.011936   
    290. D(H  27,H  32,C   2,H   5)    -55.3550         0.001697   
    291. D(C  26,H  32,C   2,N   7)    153.3709         0.001697   
    292. D(C  26,H  32,C   2,N   6)     44.5488         0.001697   
    293. D(C  26,H  32,C   2,H   5)    -81.3488         0.001697   
    294. D(N   7,H  32,C   2,N   6)   -108.8222         0.001697   
    295. D(N   7,H  32,C   2,H   5)    125.2803         0.001697   
    296. D(N   6,H  32,C   2,N   7)    108.8222         0.001697   
    297. D(N   6,H  32,C   2,H   5)   -125.8975         0.001697   
    298. D(H  27,H  32,C  30,H  33)     21.8615         0.001558   
    299. D(H  27,H  32,C   2,N   6)     70.5426         0.001697   
    300. D(H   5,H  32,C   2,N   7)   -125.2803         0.001697   
    301. D(H   5,H  32,C   2,N   6)    125.8975         0.001697   
    302. D(C  26,H  32,C  30,H  33)     47.7124         0.001558   
    303. D(C  26,H  32,C  30,H  31)    -95.6093         0.001558   
    304. D(N   7,H  32,C  30,H  33)   -123.4559         0.001558   
    305. D(N   7,H  32,C  30,H  31)     93.2224         0.001558   
    306. D(N   7,H  32,C  30,C  19)    -12.7928         0.001558   
    307. D(N   6,H  32,C  30,H  33)   -120.8875         0.001558   
    308. D(N   6,H  32,C  30,H  31)     95.7908         0.001558   
    309. D(N   6,H  32,C  30,C  19)    -10.2244         0.001558   
    310. D(H   5,H  32,C  30,H  33)    -69.4418         0.001558   
    311. D(H   5,H  32,C  30,C  19)     41.2214         0.001558   
    312. D(C   2,H  32,C  30,H  33)    -98.0250         0.001558   
    313. D(C   2,H  32,C  30,H  31)    118.6533         0.001558   
    314. D(C  30,H  32,H  28,C  26)   -117.6567         0.001522   
    315. D(H  27,H  32,H  28,C  26)    -15.3709         0.001522   
    316. D(N   7,H  32,H  28,C  26)    107.1460         0.001522   
    317. D(H   5,H  32,H  28,C  26)     42.3858         0.001522   
    318. D(C   2,H  32,H  28,C  26)     71.5495         0.001522   
    319. D(C  30,H  32,H  27,C  26)    144.7203         0.001658   
    320. D(H  28,H  32,H  27,C  26)     15.9280         0.001658   
    321. D(N   7,H  32,H  27,C  26)    -88.6663         0.001658   
    322. D(N   6,H  32,H  27,C  26)    -57.3224         0.001658   
    323. D(H   5,H  32,H  27,C  26)   -112.1492         0.001658   
    324. D(C  30,H  32,C  26,H  29)     11.5047         0.001505   
    325. D(C  30,H  32,C  26,H  28)     97.6925         0.001505   
    326. D(C  30,H  32,C  26,H  27)    -54.1049         0.001505   
    327. D(H  28,H  32,C  26,H  29)    -86.1879         0.001505   
    328. D(H  28,H  32,C  26,H  27)   -151.7975         0.001505   
    329. D(H  28,H  32,C  26,C  10)    105.1599         0.001505   
    330. D(H  27,H  32,C  26,H  28)    151.7975         0.001505   
    331. D(H  27,H  32,C  26,C  10)   -103.0427         0.001505   
    332. D(N   7,H  32,C  26,H  29)   -179.8618         0.001505   
    333. D(N   7,H  32,C  26,H  28)    -93.6739         0.001505   
    334. D(N   7,H  32,C  26,H  27)    114.5286         0.001505   
    335. D(N   7,H  32,C  26,C  10)     11.4860         0.001505   
    336. D(N   6,H  32,C  26,H  29)   -175.8433         0.001505   
    337. D(N   6,H  32,C  26,H  27)    118.5471         0.001505   
    338. D(N   6,H  32,C  26,C  10)     15.5045         0.001505   
    339. D(H   5,H  32,C  26,H  29)    132.2729         0.001505   
    340. D(H   5,H  32,C  26,H  27)     66.6633         0.001505   
    341. D(H   5,H  32,C  26,C  10)    -36.3794         0.001505   
    342. D(C   2,H  32,C  26,H  29)    159.9461         0.001505   
    343. D(C   2,H  32,C  26,H  27)     94.3365         0.001505   
    344. D(C   2,H  32,C  26,C  10)     -8.7061         0.001505   
    345. D(C  30,H  32,N   7,C  17)     15.9566         0.001526   
    346. D(C  30,H  32,N   7,C   2)    138.5304         0.001526   
    347. D(C  30,H  32,N   7,C   1)   -114.7443         0.001526   
    348. D(H  28,H  32,N   7,C  17)    168.8565         0.001526   
    349. D(H  28,H  32,N   7,C   2)    -68.5697         0.001526   
    350. D(H  28,H  32,N   7,C   1)     38.1555         0.001526   
    351. D(H  27,H  32,N   7,C  17)   -123.4632         0.001526   
    352. D(H  27,H  32,N   7,C   2)     -0.8894         0.001526   
    353. D(H  27,H  32,N   7,C   1)    105.8359         0.001526   
    354. D(C  26,H  32,N   7,C  17)   -157.5046         0.001526   
    355. D(C   2,H  32,C  26,H  28)   -113.8660         0.001505   
    356. D(C  26,H  32,N   7,C   2)    -34.9308         0.001526   
    357. D(C  26,H  32,N   7,C   1)     71.7945         0.001526   
    358. D(N   6,H  32,N   7,C  17)   -162.1310         0.001526   
    359. D(H   5,H  32,C  26,H  28)   -141.5393         0.001505   
    360. D(N   6,H  32,N   7,C   2)    -39.5571         0.001526   
    361. D(N   6,H  32,N   7,C   1)     67.1681         0.001526   
    362. D(H   5,H  32,N   7,C  17)    -95.3686         0.001526   
    363. D(N   6,H  32,C  26,H  28)    -89.6554         0.001505   
    364. D(H   5,H  32,N   7,C   2)     27.2053         0.001526   
    365. D(H   5,H  32,N   7,C   1)    133.9305         0.001526   
    366. D(C   2,H  32,N   7,C  17)   -122.5739         0.001526   
    367. D(C   2,H  32,N   7,C   1)    106.7252         0.001526   
    368. D(C  30,H  32,N   6,C   8)    156.6841         0.001507   
    369. D(C  30,H  32,N   6,C   2)     39.8800         0.001507   
    370. D(C  30,H  32,N   6,C   0)    -69.4256         0.001507   
    371. D(H  27,H  32,C  26,H  29)     65.6096         0.001505   
    372. D(H  28,H  32,N   6,C   8)    -44.3066         0.001507   
    373. D(H  28,H  32,N   6,C   2)   -161.1107         0.001507   
    374. D(H  28,H  32,N   6,C   0)     89.5837         0.001507   
    375. D(C  30,H  32,C  26,C  10)   -157.1476         0.001505   
    376. D(H  27,H  32,N   6,C   8)      6.0358         0.001507   
    377. D(H  27,H  32,N   6,C   2)   -110.7684         0.001507   
    378. D(H  27,H  32,N   6,C   0)    139.9261         0.001507   
    379. D(C   2,H  32,H  27,C  26)    -89.2039         0.001658   
    380. D(C  26,H  32,N   6,C   8)    -16.4760         0.001507   
    381. D(C  26,H  32,N   6,C   2)   -133.2802         0.001507   
    382. D(C  26,H  32,N   6,C   0)    117.4142         0.001507   
    383. D(N   7,H  32,N   6,C   8)    159.7671         0.001507   
    384. D(N   7,H  32,N   6,C   2)     42.9630         0.001507   
    385. D(N   7,H  32,N   6,C   0)    -66.3426         0.001507   
    386. D(H   5,H  32,N   6,C   8)     89.0227         0.001507   
    387. D(N   6,H  32,H  28,C  26)     82.4536         0.001522   
    388. D(H   5,H  32,N   6,C   2)    -27.7815         0.001507   
    389. D(H   5,H  32,N   6,C   0)   -137.0870         0.001507   
    390. D(C   2,H  32,N   6,C   8)    116.8042         0.001507   
    391. D(C   2,H  32,C  30,C  19)     12.6381         0.001558   
    392. D(C   2,H  32,N   6,C   0)   -109.3055         0.001507   
    393. D(C  30,H  32,H   5,C   2)   -109.9117         0.001510   
    394. D(H  28,H  32,H   5,C   2)     83.2683         0.001510   
    395. D(H   5,H  32,C  30,H  31)    147.2365         0.001558   
    396. D(H  27,H  32,H   5,C   2)    124.7300         0.001510   
    397. D(C  26,H  32,H   5,C   2)    100.9541         0.001510   
    398. D(N   7,H  32,H   5,C   2)    -35.6338         0.001510   
    399. D(N   6,H  32,H   5,C   2)     33.7130         0.001510   
    400. D(C  30,H  32,C   2,N   7)    -45.7079         0.001697   
    401. D(C  30,H  32,C   2,N   6)   -154.5301         0.001697   
    402. D(C  30,H  32,C   2,H   5)     79.5724         0.001697   
    403. D(C  26,H  32,C  30,C  19)    158.3755         0.001558   
    404. D(H  28,H  32,C   2,N   7)    127.8734         0.001697   
    405. D(H  28,H  32,C   2,N   6)     19.0512         0.001697   
    406. D(H  27,H  32,C  30,C  19)    132.5247         0.001558   
    407. D(H  27,H  32,C  30,H  31)   -121.4602         0.001558   
    408. D(H  28,H  32,C   2,H   5)   -106.8463         0.001697   
    409. D(H  28,H  32,C  30,C  19)   -157.8117         0.001558   
    410. D(H  28,H  32,C  30,H  31)    -51.7966         0.001558   
    411. D(H  28,H  32,C  30,H  33)     91.5252         0.001558   
    412. D(H  27,H  32,C   2,N   7)    179.3647         0.001697   
    413. D(H  24,H  33,C  30,H  31)    -63.5969         0.001527   
    414. D(H  24,H  33,C  30,H  32)    152.2748         0.001527   
    415. D(H  24,H  33,C  30,C  19)     40.4741         0.001527   
    416. D(C  30,H  33,H  24,C  21)    -51.4488         0.001500   
    417. D(H  37,C  34,C   9,C  11)    111.1185         0.012514   
    418. D(H  37,C  34,C   9,C   8)    -68.5244         0.012514   
    419. D(H  36,C  34,C   9,C  11)     -8.3120         0.012514   
    420. D(H  36,C  34,C   9,C   8)    172.0450         0.012514   
    421. D(H  35,C  34,C   9,C  11)   -128.4374         0.012514   
    422. D(H  35,C  34,C   9,C   8)     51.9197         0.012514   
    423. D(H  41,C  38,C  18,C  20)      5.0922         0.012524   
    424. D(H  41,C  38,C  18,C  17)   -175.2172         0.012524   
    425. D(H  40,C  38,C  18,C  20)   -114.4478         0.012524   
    426. D(H  40,C  38,C  18,C  17)     65.2428         0.012524   
    427. D(H  39,C  38,C  18,C  20)    125.0554         0.012524   
    428. D(H  39,C  38,C  18,C  17)    -55.2541         0.012524   
    -----------------------------------------------------------------

Number of atoms                         .... 42
Number of degrees of freedom            .... 428

         *************************************************************
         *                GEOMETRY OPTIMIZATION CYCLE   1            *
         *************************************************************
---------------------------------
CARTESIAN COORDINATES (ANGSTROEM)
---------------------------------
  C     -0.579980    0.752040   -1.752820
  C     -0.632300   -0.599720   -1.786160
  C      0.025340    0.002820    0.220580
  H     -0.786860    1.490780   -2.509250
  H     -0.887990   -1.284310   -2.577910
  H      0.351230   -0.034920    1.248970
  N     -0.171070    1.109220   -0.486810
  N     -0.248240   -1.047400   -0.540740
  C      0.024800    2.455320    0.000990
  C     -1.101600    3.199370    0.345250
  C      1.330820    2.931030    0.093880
  C     -0.883640    4.487320    0.816930
  C      1.495930    4.224250    0.573050
  C      0.400600    4.992760    0.930890
  H     -1.733370    5.097280    1.099050
  H      2.495570    4.632940    0.659220
  H      0.549880    5.999350    1.301360
  C     -0.101550   -2.430100   -0.147320
  C     -1.255920   -3.121940    0.232330
  C      1.165230   -3.000550   -0.188420
  C     -1.101150   -4.444100    0.611810
  C      1.263830   -4.339140    0.188380
  C      0.149880   -5.046910    0.591100
  H     -1.971320   -5.013110    0.916230
  H      2.231730   -4.826640    0.148930
  H      0.248340   -6.086760    0.877320
  C      2.510750    2.090450   -0.312590
  H      2.650470    1.230550    0.355210
  H      2.394860    1.701670   -1.331700
  H      3.426760    2.683460   -0.283560
  C      2.422910   -2.225280   -0.503490
  H      2.830030   -3.123760   -2.290100
  H      1.791200   -0.227200   -0.522490
  H      3.701760   -2.765280    1.135510
  C     -2.493440    2.646140    0.208880
  H     -2.596190    1.674180    0.699430
  H     -3.216830    3.324720    0.657910
  H     -2.772270    2.515600   -0.840230
  C     -2.609700   -2.467150    0.224600
  H     -2.623000   -1.554150    0.825080
  H     -2.921490   -2.199530   -0.787600
  H     -3.359310   -3.143090    0.631030

----------------------------
CARTESIAN COORDINATES (A.U.)
----------------------------
  NO LB      ZA    FRAG     MASS         X           Y           Z
   0 C     6.0000    0    12.011   -1.096003    1.421150   -3.312350
   1 C     6.0000    0    12.011   -1.194874   -1.133307   -3.375353
   2 C     6.0000    0    12.011    0.047886    0.005329    0.416836
   3 H     1.0000    0     1.008   -1.486950    2.817166   -4.741795
   4 H     1.0000    0     1.008   -1.678058   -2.426994   -4.871544
   5 H     1.0000    0     1.008    0.663729   -0.065989    2.360211
   6 N     7.0000    0    14.007   -0.323275    2.096122   -0.919938
   7 N     7.0000    0    14.007   -0.469106   -1.979299   -1.021851
   8 C     6.0000    0    12.011    0.046865    4.639882    0.001871
   9 C     6.0000    0    12.011   -2.081722    6.045933    0.652428
  10 C     6.0000    0    12.011    2.514885    5.538844    0.177407
  11 C     6.0000    0    12.011   -1.669838    8.479806    1.543774
  12 C     6.0000    0    12.011    2.826898    7.982676    1.082908
  13 C     6.0000    0    12.011    0.757024    9.434949    1.759127
  14 H     1.0000    0     1.008   -3.275595    9.632463    2.076904
  15 H     1.0000    0     1.008    4.715944    8.754988    1.245745
  16 H     1.0000    0     1.008    1.039123   11.337128    2.459214
  17 C     6.0000    0    12.011   -0.191902   -4.592223   -0.278394
  18 C     6.0000    0    12.011   -2.373345   -5.899612    0.439040
  19 C     6.0000    0    12.011    2.201966   -5.670218   -0.356062
  20 C     6.0000    0    12.011   -2.080872   -8.398132    1.156153
  21 C     6.0000    0    12.011    2.388293   -8.199786    0.355987
  22 C     6.0000    0    12.011    0.283232   -9.537278    1.117017
  23 H     1.0000    0     1.008   -3.725255   -9.473405    1.731424
  24 H     1.0000    0     1.008    4.217359   -9.121028    0.281437
  25 H     1.0000    0     1.008    0.469295  -11.502309    1.657895
  26 C     6.0000    0    12.011    4.744630    3.950378   -0.590709
  27 H     1.0000    0     1.008    5.008662    2.325402    0.671250
  28 H     1.0000    0     1.008    4.525630    3.215690   -2.516548
  29 H     1.0000    0     1.008    6.475638    5.071004   -0.535851
  30 C     6.0000    0    12.011    4.578636   -4.205170   -0.951458
  31 H     1.0000    0     1.008    5.347982   -5.903051   -4.327662
  32 H     1.0000    0     1.008    3.384877   -0.429346   -0.987363
  33 H     1.0000    0     1.008    6.995313   -5.225622    2.145803
  34 C     6.0000    0    12.011   -4.711919    5.000480    0.394726
  35 H     1.0000    0     1.008   -4.906088    3.163742    1.321731
  36 H     1.0000    0     1.008   -6.078928    6.282810    1.243270
  37 H     1.0000    0     1.008   -5.238831    4.753795   -1.587805
  38 C     6.0000    0    12.011   -4.931618   -4.662238    0.424432
  39 H     1.0000    0     1.008   -4.956752   -2.936918    1.559175
  40 H     1.0000    0     1.008   -5.520816   -4.156509   -1.488348
  41 H     1.0000    0     1.008   -6.348176   -5.939579    1.192474

--------------------------------
INTERNAL COORDINATES (ANGSTROEM)
--------------------------------
 C      0   0   0     0.000000000000     0.00000000     0.00000000
 C      1   0   0     1.353182927619     0.00000000     0.00000000
 C      1   2   0     2.195916772284    72.05949051     0.00000000
 H      1   2   3     1.077368306059   131.31857322   179.24353538
 H      2   1   3     1.077454828148   131.45176211   181.18701492
 H      3   1   2     1.079451060401   162.04685993   180.07199535
 N      3   1   2     1.327817178756    36.50248476   180.36432298
 N      3   1   2     1.325675754927    72.38088893     0.05460393
 C      7   3   1     1.445094843566   125.18971419   180.39950301
 C      9   7   3     1.393162700513   118.11942495   257.06413615
 C      9   7   3     1.393060227198   117.88337267    77.27049034
 C     10   9   7     1.388813805555   116.89266886   179.70561516
 C     11   9   7     1.388986382007   116.89701073   180.39166030
 C     12  10   9     1.384820873904   120.79501751     0.11018360
 H     12  10   9     1.083366959483   119.17513695   180.23345943
 H     13  11   9     1.083389548870   119.23180250   180.10332159
 H     14  12  10     1.082938579699   119.68564080   180.03306060
 C      8   3   1     1.445045515719   125.50215866   177.08067856
 C     18   8   3     1.398337157126   117.61505134   100.96545227
 C     18   8   3     1.389904306382   118.50175865   279.90635028
 C     19  18   8     1.384220318049   117.04598377   180.23992179
 C     20  18   8     1.394103076569   116.77896141   180.49547654
 C     22  20  18     1.379857374441   120.95009326   359.47341698
 H     21  19  18     1.083346549078   119.26908054   179.78227182
 H     22  20  18     1.084455145453   119.00767572   178.67102045
 H     23  22  20     1.083007055610   119.75079661   179.84594733
 C     11   9   7     1.504668535658   121.76250772     0.76082336
 H     27  11   9     1.097682344032   111.90707920   292.66806908
 H     27  11   9     1.096889042976   111.47771462    53.12490162
 H     27  11   9     1.091594210822   110.32670928   172.88240915
 C     20  18   8     1.510652726539   123.66439677     5.67048355
 H     31  20  18     2.040830295958    97.04958106   247.17963017
 H     28  27  11     1.906236419073   105.16363488    96.44495641
 H     31  20  18     2.147877632106   101.97703887   128.62651766
 C     10   9   7     1.503954386077   121.96376507   359.36295933
 H     35  10   9     1.093573548784   111.91447019    51.91968421
 H     35  10   9     1.088757020368   110.37879578   172.04503085
 H     35  10   9     1.093352025928   111.52680356   291.47557599
 C     19  18   8     1.503838417317   121.75824416     0.53711296
 H     39  19  18     1.092850456558   111.83209768   304.74594671
 H     39  19  18     1.092420390006   111.61464912    65.24279911
 H     39  19  18     1.088115518040   110.35072336   184.78277452

---------------------------
INTERNAL COORDINATES (A.U.)
---------------------------
 C      0   0   0     0.000000000000     0.00000000     0.00000000
 C      1   0   0     2.557145142298     0.00000000     0.00000000
 C      1   2   0     4.149681312502    72.05949051     0.00000000
 H      1   2   3     2.035931043818   131.31857322   179.24353538
 H      2   1   3     2.036094546871   131.45176211   181.18701492
 H      3   1   2     2.039866879128   162.04685993   180.07199535
 N      3   1   2     2.509210823765    36.50248476   180.36432298
 N      3   1   2     2.505164119190    72.38088893     0.05460393
 C      7   3   1     2.730833491881   125.18971419   180.39950301
 C      9   7   3     2.632695963963   118.11942495   257.06413615
 C      9   7   3     2.632502317462   117.88337267    77.27049034
 C     10   9   7     2.624477743508   116.89266886   179.70561516
 C     11   9   7     2.624803865739   116.89701073   180.39166030
 C     12  10   9     2.616932196216   120.79501751     0.11018360
 H     12  10   9     2.047266855962   119.17513695   180.23345943
 H     13  11   9     2.047309543716   119.23180250   180.10332159
 H     14  12  10     2.046457335488   119.68564080   180.03306060
 C      8   3   1     2.730740275760   125.50215866   177.08067856
 C     18   8   3     2.642474269855   117.61505134   100.96545227
 C     18   8   3     2.626538491420   118.50175865   279.90635028
 C     19  18   8     2.615797310122   117.04598377   180.23992179
 C     20  18   8     2.634473017173   116.77896141   180.49547654
 C     22  20  18     2.607552541566   120.95009326   359.47341698
 H     21  19  18     2.047228285887   119.26908054   179.78227182
 H     22  20  18     2.049323229428   119.00767572   178.67102045
 H     23  22  20     2.046586736206   119.75079661   179.84594733
 C     11   9   7     2.843411454722   121.76250772     0.76082336
 H     27  11   9     2.074319012262   111.90707920   292.66806908
 H     27  11   9     2.072819890523   111.47771462    53.12490162
 H     27  11   9     2.062814107827   110.32670928   172.88240915
 C     20  18   8     2.854719936620   123.66439677     5.67048355
 H     31  20  18     3.856610345170    97.04958106   247.17963017
 H     28  27  11     3.602264778555   105.16363488    96.44495641
 H     31  20  18     4.058900493855   101.97703887   128.62651766
 C     10   9   7     2.842061907595   121.96376507   359.36295933
 H     35  10   9     2.066554514502   111.91447019    51.91968421
 H     35  10   9     2.057452594879   110.37879578   172.04503085
 H     35  10   9     2.066135896971   111.52680356   291.47557599
 C     19  18   8     2.841842758400   121.75824416     0.53711296
 H     39  19  18     2.065188068226   111.83209768   304.74594671
 H     39  19  18     2.064375360222   111.61464912    65.24279911
 H     39  19  18     2.056240331166   110.35072336   184.78277452

---------------------
BASIS SET INFORMATION
---------------------
There are 3 groups of distinct atoms

 Group   1 Type C   : 11s6p2d1f contracted to 5s3p2d1f pattern {62111/411/11/1}
 Group   2 Type H   : 5s1p contracted to 3s1p pattern {311/1}
 Group   3 Type N   : 11s6p2d1f contracted to 5s3p2d1f pattern {62111/411/11/1}

Atom   0C    basis set group =>   1
Atom   1C    basis set group =>   1
Atom   2C    basis set group =>   1
Atom   3H    basis set group =>   2
Atom   4H    basis set group =>   2
Atom   5H    basis set group =>   2
Atom   6N    basis set group =>   3
Atom   7N    basis set group =>   3
Atom   8C    basis set group =>   1
Atom   9C    basis set group =>   1
Atom  10C    basis set group =>   1
Atom  11C    basis set group =>   1
Atom  12C    basis set group =>   1
Atom  13C    basis set group =>   1
Atom  14H    basis set group =>   2
Atom  15H    basis set group =>   2
Atom  16H    basis set group =>   2
Atom  17C    basis set group =>   1
Atom  18C    basis set group =>   1
Atom  19C    basis set group =>   1
Atom  20C    basis set group =>   1
Atom  21C    basis set group =>   1
Atom  22C    basis set group =>   1
Atom  23H    basis set group =>   2
Atom  24H    basis set group =>   2
Atom  25H    basis set group =>   2
Atom  26C    basis set group =>   1
Atom  27H    basis set group =>   2
Atom  28H    basis set group =>   2
Atom  29H    basis set group =>   2
Atom  30C    basis set group =>   1
Atom  31H    basis set group =>   2
Atom  32H    basis set group =>   2
Atom  33H    basis set group =>   2
Atom  34C    basis set group =>   1
Atom  35H    basis set group =>   2
Atom  36H    basis set group =>   2
Atom  37H    basis set group =>   2
Atom  38C    basis set group =>   1
Atom  39H    basis set group =>   2
Atom  40H    basis set group =>   2
Atom  41H    basis set group =>   2
---------------------------------
AUXILIARY/J BASIS SET INFORMATION
---------------------------------
There are 3 groups of distinct atoms

 Group   1 Type C   : 12s5p4d2f1g contracted to 6s4p3d1f1g pattern {711111/2111/211/2/1}
 Group   2 Type H   : 5s2p1d contracted to 3s1p1d pattern {311/2/1}
 Group   3 Type N   : 12s5p4d2f1g contracted to 6s4p3d1f1g pattern {711111/2111/211/2/1}

Atom   0C    basis set group =>   1
Atom   1C    basis set group =>   1
Atom   2C    basis set group =>   1
Atom   3H    basis set group =>   2
Atom   4H    basis set group =>   2
Atom   5H    basis set group =>   2
Atom   6N    basis set group =>   3
Atom   7N    basis set group =>   3
Atom   8C    basis set group =>   1
Atom   9C    basis set group =>   1
Atom  10C    basis set group =>   1
Atom  11C    basis set group =>   1
Atom  12C    basis set group =>   1
Atom  13C    basis set group =>   1
Atom  14H    basis set group =>   2
Atom  15H    basis set group =>   2
Atom  16H    basis set group =>   2
Atom  17C    basis set group =>   1
Atom  18C    basis set group =>   1
Atom  19C    basis set group =>   1
Atom  20C    basis set group =>   1
Atom  21C    basis set group =>   1
Atom  22C    basis set group =>   1
Atom  23H    basis set group =>   2
Atom  24H    basis set group =>   2
Atom  25H    basis set group =>   2
Atom  26C    basis set group =>   1
Atom  27H    basis set group =>   2
Atom  28H    basis set group =>   2
Atom  29H    basis set group =>   2
Atom  30C    basis set group =>   1
Atom  31H    basis set group =>   2
Atom  32H    basis set group =>   2
Atom  33H    basis set group =>   2
Atom  34C    basis set group =>   1
Atom  35H    basis set group =>   2
Atom  36H    basis set group =>   2
Atom  37H    basis set group =>   2
Atom  38C    basis set group =>   1
Atom  39H    basis set group =>   2
Atom  40H    basis set group =>   2
Atom  41H    basis set group =>   2


           ************************************************************
           *        Program running with 4 parallel MPI-processes     *
           *              working on a common directory               *
           ************************************************************
------------------------------------------------------------------------------
                           ORCA GTO INTEGRAL CALCULATION
                           -- RI-GTO INTEGRALS CHOSEN --
------------------------------------------------------------------------------
------------------------------------------------------------------------------
                   ___                                                        
                  /   \      - P O W E R E D   B Y -                         
                 /     \                                                     
                 |  |  |   _    _      __       _____    __    __             
                 |  |  |  | |  | |    /  \     |  _  \  |  |  /  |          
                  \  \/   | |  | |   /    \    | | | |  |  | /  /          
                 / \  \   | |__| |  /  /\  \   | |_| |  |  |/  /          
                |  |  |   |  __  | /  /__\  \  |    /   |      \           
                |  |  |   | |  | | |   __   |  |    \   |  |\   \          
                \     /   | |  | | |  |  |  |  | |\  \  |  | \   \       
                 \___/    |_|  |_| |__|  |__|  |_| \__\ |__|  \__/        
                                                                              
                      - O R C A' S   B I G   F R I E N D -                    
                                      &                                       
                       - I N T E G R A L  F E E D E R -                       
                                                                              
 v1 FN, 2020, v2 2021                                                         
------------------------------------------------------------------------------


Reading SHARK input file 8_prot.SHARKINP.tmp ... ok
----------------------
SHARK INTEGRAL PACKAGE
----------------------

Number of atoms                             ...     42
Number of basis functions                   ...    777
Number of shells                            ...    315
Maximum angular momentum                    ...      3
Integral batch strategy                     ... SHARK/LIBINT Hybrid
RI-J (if used) integral strategy            ... SPLIT-RIJ (Revised 2003 algorithm where possible)
Printlevel                                  ...      1
Contraction scheme used                     ... SEGMENTED contraction
Coulomb Range Separation                    ... NOT USED
Exchange Range Separation                   ... Long Range
   Mu parameter                             ...  0.300000
   Scaling (regular/separated)              ...  0.157706  0.842294
Finite Nucleus Model                        ... NOT USED
Auxiliary Coulomb fitting basis             ... AVAILABLE
   # of basis functions in Aux-J            ...   1260
   # of shells in Aux-J                     ...    420
   Maximum angular momentum in Aux-J        ...      4
Auxiliary J/K fitting basis                 ... NOT available
Auxiliary Correlation fitting basis         ... NOT available
Auxiliary 'external' fitting basis          ... NOT available
Integral threshold                          ...     2.500000e-11
Primitive cut-off                           ...     2.500000e-12
Primitive pair pre-selection threshold      ...     2.500000e-12

Calculating pre-screening integrals         ... done (  0.1 sec) Dimension = 315
Organizing shell pair data                  ... done (  0.5 sec)
Shell pair information
Total number of shell pairs                 ...     49770
Shell pairs after pre-screening             ...     36106
Total number of primitive shell pairs       ...    149856
Primitive shell pairs kept                  ...     73110
          la=0 lb=0:   9975 shell pairs
          la=1 lb=0:  10521 shell pairs
          la=1 lb=1:   2808 shell pairs
          la=2 lb=0:   5032 shell pairs
          la=2 lb=1:   2663 shell pairs
          la=2 lb=2:    661 shell pairs
          la=3 lb=0:   2384 shell pairs
          la=3 lb=1:   1294 shell pairs
          la=3 lb=2:    610 shell pairs
          la=3 lb=3:    158 shell pairs

Calculating one electron integrals          ... done (  0.2 sec)
Calculating RI/J V-Matrix + Cholesky decomp.... done (  0.3 sec)
Calculating Nuclear repulsion               ... done (  0.0 sec) ENN=   1613.097326836870 Eh

SHARK setup successfully completed in   2.0 seconds

Maximum memory used throughout the entire GTOINT-calculation: 54.5 MB


           ************************************************************
           *        Program running with 4 parallel MPI-processes     *
           *              working on a common directory               *
           ************************************************************
-------------------------------------------------------------------------------
                                 ORCA SCF
-------------------------------------------------------------------------------

------------
SCF SETTINGS
------------
Hamiltonian:
 Density Functional     Method          .... DFT(GTOs)
 Exchange Functional    Exchange        .... WB97X
 Correlation Functional Correlation     .... WB97X
 Gradients option       PostSCFGGA      .... off
 Hybrid DFT is turned on
   Fraction HF Exchange ScalHFX         ....  0.157706
   Scaling of DF-GGA-X  ScalDFX         ....  0.000000
   Scaling of DF-GGA-C  ScalDFC         ....  1.000000
   Scaling of DF-LDA-C  ScalLDAC        ....  1.000000
   Perturbative correction              ....  0.000000
   Density functional embedding theory  .... OFF
 Long-range corrected/Screened/Range-Separated Hybrid DFT is turned on
   Amount of maximum screened exact exchange              ....  0.842294
   Range separation parameter mu (erf(mu*r12)/r12)        ....  0.300000
 RI-approximation to the Coulomb term is turned on
   Number of AuxJ basis functions       .... 1260
   RIJ-COSX (HFX calculated with COS-X)).... on


General Settings:
 Integral files         IntName         .... 8_prot
 Hartree-Fock type      HFTyp           .... RHF
 Total Charge           Charge          ....    1
 Multiplicity           Mult            ....    1
 Number of Electrons    NEL             ....  148
 Basis Dimension        Dim             ....  777
 Nuclear Repulsion      ENuc            ....   1613.0973268369 Eh

Convergence Acceleration:
 DIIS                   CNVDIIS         .... on
   Start iteration      DIISMaxIt       ....     0
   Startup error        DIISStart       ....  0.200000
   # of expansion vecs  DIISMaxEq       ....     5
   Bias factor          DIISBfac        ....   1.050
   Max. coefficient     DIISMaxC        ....  10.000
 Trust-Rad. Augm. Hess. CNVTRAH         .... auto
   Auto Start mean grad. ratio tolernc. ....  1.125000
   Auto Start start iteration           ....    20
   Auto Start num. interpolation iter.  ....    10
   Max. Number of Micro iterations      ....    16
   Max. Number of Macro iterations      .... Maxiter - #DIIS iter
   Number of Davidson start vectors     ....     2
   Converg. threshold I  (grad. norm)   ....   1.000e-05
   Converg. threshold II (energy diff.) ....   1.000e-08
   Grad. Scal. Fac. for Micro threshold ....   0.100
   Minimum threshold for Micro iter.    ....   0.010
   NR start threshold (gradient norm)   ....   0.001
   Initial trust radius                 ....   0.400
   Minimum AH scaling param. (alpha)    ....   1.000
   Maximum AH scaling param. (alpha)    .... 1000.000
   Orbital update algorithm             .... Taylor
   White noise on init. David. guess    .... on
   Maximum white noise                  ....   0.010
   Quad. conv. algorithm                .... NR
 SOSCF                  CNVSOSCF        .... on
   Start iteration      SOSCFMaxIt      ....   150
   Startup grad/error   SOSCFStart      ....  0.001000
 Level Shifting         CNVShift        .... on
   Level shift para.    LevelShift      ....    0.2500
   Turn off err/grad.   ShiftErr        ....    0.0000
 Zerner damping         CNVZerner       .... off
 Static damping         CNVDamp         .... on
   Fraction old density DampFac         ....    0.8500
   Max. Damping (<1)    DampMax         ....    0.9800
   Min. Damping (>=0)   DampMin         ....    0.0000
   Turn off err/grad.   DampErr         ....    0.0300
 Fernandez-Rico         CNVRico         .... off

SCF Procedure:
 Maximum # iterations   MaxIter         ....   125
 SCF integral mode      SCFMode         .... Direct
   Integral package                     .... SHARK and LIBINT hybrid scheme
 Reset frequency        DirectResetFreq ....    20
 Integral Threshold     Thresh          ....  2.500e-11 Eh
 Primitive CutOff       TCut            ....  2.500e-12 Eh

Convergence Tolerance:
 Convergence Check Mode ConvCheckMode   .... Total+1el-Energy
 Convergence forced     ConvForced      .... 0
 Energy Change          TolE            ....  1.000e-08 Eh
 1-El. energy change                    ....  1.000e-05 Eh
 Orbital Gradient       TolG            ....  1.000e-05
 Orbital Rotation angle TolX            ....  1.000e-05
 DIIS Error             TolErr          ....  5.000e-07


Diagonalization of the overlap matrix:
Smallest eigenvalue                        ... 3.909e-06
Time for diagonalization                   ...    0.174 sec
Threshold for overlap eigenvalues          ... 1.000e-08
Number of eigenvalues below threshold      ... 0
Time for construction of square roots      ...    0.073 sec
Total time needed                          ...    0.251 sec

Time for model grid setup =    0.879 sec

------------------------------
INITIAL GUESS: MODEL POTENTIAL
------------------------------
Loading Hartree-Fock densities                     ... done
Calculating cut-offs                               ... done
Initializing the effective Hamiltonian             ... done
Setting up the integral package (SHARK)            ... done
Starting the Coulomb interaction                   ... done (   1.6 sec)
Reading the grid                                   ... done
Mapping shells                                     ... done
Starting the XC term evaluation                    ... done (   1.1 sec)
  promolecular density results
     # of electrons  =    148.971668464
     EX              =   -116.395780648
     EC              =     -4.943918299
     EX+EC           =   -121.339698946
Transforming the Hamiltonian                       ... done (   0.1 sec)
Diagonalizing the Hamiltonian                      ... done (   0.2 sec)
Back transforming the eigenvectors                 ... done (   0.0 sec)
Now organizing SCF variables                       ... done
                      ------------------
                      INITIAL GUESS DONE (   3.9 sec)
                      ------------------
-------------------
DFT GRID GENERATION
-------------------

General Integration Accuracy     IntAcc      ... 4.388
Radial Grid Type                 RadialGrid  ... OptM3 with GC (2021)
Angular Grid (max. ang.)         AngularGrid ... 4 (Lebedev-302)
Angular grid pruning method      GridPruning ... 4 (adaptive)
Weight generation scheme         WeightScheme... Becke
Basis function cutoff            BFCut       ... 1.0000e-11
Integration weight cutoff        WCut        ... 1.0000e-14
Angular grids for H and He will be reduced by one unit
Partially contracted basis set               ... off
Rotationally invariant grid construction     ... off

Total number of grid points                  ...   191861
Total number of batches                      ...     3022
Average number of points per batch           ...       63
Average number of grid points per atom       ...     4568
Time for grid setup =    2.564 sec

--------------------
COSX GRID GENERATION
--------------------

GRIDX 1
-------
General Integration Accuracy     IntAcc      ... 3.816
Radial Grid Type                 RadialGrid  ... OptM3 with GC (2021)
Angular Grid (max. ang.)         AngularGrid ... 1 (Lebedev-50)
Angular grid pruning method      GridPruning ... 4 (adaptive)
Weight generation scheme         WeightScheme... Becke
Basis function cutoff            BFCut       ... 1.0000e-11
Integration weight cutoff        WCut        ... 1.0000e-14
Angular grids for H and He will be reduced by one unit
Partially contracted basis set               ... on
Rotationally invariant grid construction     ... off

Total number of grid points                  ...    24463
Total number of batches                      ...      398
Average number of points per batch           ...       61
Average number of grid points per atom       ...      582
UseSFitting                                  ... on

GRIDX 2
-------
General Integration Accuracy     IntAcc      ... 4.020
Radial Grid Type                 RadialGrid  ... OptM3 with GC (2021)
Angular Grid (max. ang.)         AngularGrid ... 2 (Lebedev-110)
Angular grid pruning method      GridPruning ... 4 (adaptive)
Weight generation scheme         WeightScheme... Becke
Basis function cutoff            BFCut       ... 1.0000e-11
Integration weight cutoff        WCut        ... 1.0000e-14
Angular grids for H and He will be reduced by one unit
Partially contracted basis set               ... on
Rotationally invariant grid construction     ... off

Total number of grid points                  ...    52125
Total number of batches                      ...      835
Average number of points per batch           ...       62
Average number of grid points per atom       ...     1241
UseSFitting                                  ... on

GRIDX 3
-------
General Integration Accuracy     IntAcc      ... 4.338
Radial Grid Type                 RadialGrid  ... OptM3 with GC (2021)
Angular Grid (max. ang.)         AngularGrid ... 3 (Lebedev-194)
Angular grid pruning method      GridPruning ... 4 (adaptive)
Weight generation scheme         WeightScheme... Becke
Basis function cutoff            BFCut       ... 1.0000e-11
Integration weight cutoff        WCut        ... 1.0000e-14
Angular grids for H and He will be reduced by one unit
Partially contracted basis set               ... on
Rotationally invariant grid construction     ... off

Total number of grid points                  ...   113542
Total number of batches                      ...     1796
Average number of points per batch           ...       63
Average number of grid points per atom       ...     2703
UseSFitting                                  ... on

Time for X-Grid setup             =    4.246 sec

--------------
SCF ITERATIONS
--------------
ITER       Energy         Delta-E        Max-DP      RMS-DP      [F,P]     Damp
               ***  Starting incremental Fock matrix formation  ***
  0   -845.1132728490   0.000000000000 0.04748657  0.00043395  0.1718105 0.8500
  1   -845.2079449518  -0.094672102891 0.05160758  0.00043883  0.1386974 0.8500
                               ***Turning on DIIS***
  2   -845.2798030932  -0.071858141356 0.03893563  0.00035233  0.1068312 0.8500
  3   -845.3323535650  -0.052550471828 0.02165082  0.00025344  0.0812223 0.8500
  4   -845.3725837757  -0.040230210712 0.01707697  0.00020592  0.0645644 0.8500
  5   -845.4041489545  -0.031565178763 0.01490705  0.00017738  0.0531862 0.8500
  6   -845.4297917882  -0.025642833653 0.01297685  0.00015436  0.0446463 0.8500
  7   -845.4510483950  -0.021256606817 0.01127840  0.00013468  0.0378199 0.8500
  8   -845.4688779392  -0.017829544186 0.00972567  0.00011661  0.0320652 0.8500
  9   -845.4838546525  -0.014976713311 0.05560063  0.00066797  0.0271273 0.0000
 10   -845.5656724137  -0.081817761259 0.00254331  0.00003316  0.0014450 0.0000
                      *** Initiating the SOSCF procedure ***
                           *** Shutting down DIIS ***
                      *** Re-Reading the Fockian *** 
                      *** Removing any level shift *** 
ITER      Energy       Delta-E        Grad      Rot      Max-DP    RMS-DP
 11   -845.56573615  -0.0000637387  0.000796  0.000796  0.001067  0.000016
               *** Restarting incremental Fock matrix formation ***
 12   -845.56576270  -0.0000265509  0.000515  0.001405  0.015719  0.000164
 13   -845.56577600  -0.0000132971  0.000286  0.002534  0.011709  0.000126
 14   -845.56577884  -0.0000028413  0.000347  0.000594  0.010416  0.000112
 15   -845.56578169  -0.0000028531  0.000098  0.000265  0.001390  0.000015
 16   -845.56578175  -0.0000000529  0.000040  0.000133  0.000856  0.000009
 17   -845.56578187  -0.0000001242  0.000008  0.000044  0.000281  0.000002
 18   -845.56578190  -0.0000000313  0.000005  0.000025  0.000139  0.000002
                  ***Gradient check signals convergence***
              ***Rediagonalizing the Fockian in SOSCF/NRSCF***

               *****************************************************
               *                     SUCCESS                       *
               *           SCF CONVERGED AFTER  19 CYCLES          *
               *****************************************************

Old exchange energy                            =    -38.073086553 Eh
New exchange energy                            =    -38.073053993 Eh
Exchange energy change after final integration =      0.000032560 Eh
Total energy after final integration           =   -845.565749342 Eh
Final COS-X integration done in                =   150.308 sec

----------------
TOTAL SCF ENERGY
----------------

Total Energy       :         -845.56574934 Eh          -23009.01380 eV

Components:
Nuclear Repulsion  :         1613.09732684 Eh           43894.60982 eV
Electronic Energy  :        -2458.66307618 Eh          -66903.62362 eV
One Electron Energy:        -4325.56031119 Eh         -117704.48005 eV
Two Electron Energy:         1866.89723501 Eh           50800.85643 eV
Max COSX asymmetry :            0.00000099 Eh               0.00003 eV

Virial components:
Potential Energy   :        -1686.85247718 Eh          -45901.58950 eV
Kinetic Energy     :          841.28672784 Eh           22892.57570 eV
Virial Ratio       :            2.00508628


DFT components:
N(Alpha)           :       74.000116307464 electrons
N(Beta)            :       74.000116307464 electrons
N(Total)           :      148.000232614927 electrons
E(XC)              :      -85.961415237827 Eh       
DFET-embed. en.    :        0.000000000000 Eh       

---------------
SCF CONVERGENCE
---------------

  Last Energy change         ...    1.6367e-09  Tolerance :   1.0000e-08
  Last MAX-Density change    ...    2.1094e-15  Tolerance :   1.0000e-07
  Last RMS-Density change    ...    1.3323e-17  Tolerance :   5.0000e-09
  Last Orbital Gradient      ...    1.7523e-06  Tolerance :   1.0000e-05
  Last Orbital Rotation      ...    6.3524e-06  Tolerance :   1.0000e-05

             **** THE GBW FILE WAS UPDATED (8_prot.gbw) ****
             **** DENSITY 8_prot.scfp WAS UPDATED ****
             **** ENERGY FILE WAS UPDATED (8_prot.en.tmp) ****
             **** THE GBW FILE WAS UPDATED (8_prot.gbw) ****
             **** DENSITY 8_prot.scfp WAS UPDATED ****
----------------
ORBITAL ENERGIES
----------------

  NO   OCC          E(Eh)            E(eV) 
   0   2.0000     -14.641064      -398.4036 
   1   2.0000     -14.638494      -398.3337 
   2   2.0000     -10.516377      -286.1652 
   3   2.0000     -10.513524      -286.0875 
   4   2.0000     -10.461636      -284.6756 
   5   2.0000     -10.460898      -284.6555 
   6   2.0000     -10.445219      -284.2289 
   7   2.0000     -10.434590      -283.9396 
   8   2.0000     -10.415998      -283.4337 
   9   2.0000     -10.407780      -283.2101 
  10   2.0000     -10.403164      -283.0845 
  11   2.0000     -10.402985      -283.0796 
  12   2.0000     -10.384582      -282.5788 
  13   2.0000     -10.383806      -282.5577 
  14   2.0000     -10.382166      -282.5131 
  15   2.0000     -10.378146      -282.4037 
  16   2.0000     -10.378114      -282.4028 
  17   2.0000     -10.377283      -282.3802 
  18   2.0000     -10.375687      -282.3368 
  19   2.0000     -10.374992      -282.3179 
  20   2.0000     -10.374859      -282.3143 
  21   2.0000      -1.368440       -37.2371 
  22   2.0000      -1.248608       -33.9764 
  23   2.0000      -1.143268       -31.1099 
  24   2.0000      -1.122487       -30.5444 
  25   2.0000      -1.078654       -29.3517 
  26   2.0000      -1.049540       -28.5594 
  27   2.0000      -1.048303       -28.5258 
  28   2.0000      -1.039697       -28.2916 
  29   2.0000      -1.012499       -27.5515 
  30   2.0000      -0.972732       -26.4694 
  31   2.0000      -0.952359       -25.9150 
  32   2.0000      -0.933220       -25.3942 
  33   2.0000      -0.921368       -25.0717 
  34   2.0000      -0.917258       -24.9599 
  35   2.0000      -0.894380       -24.3373 
  36   2.0000      -0.876241       -23.8437 
  37   2.0000      -0.848657       -23.0931 
  38   2.0000      -0.834338       -22.7035 
  39   2.0000      -0.815646       -22.1948 
  40   2.0000      -0.796157       -21.6645 
  41   2.0000      -0.777022       -21.1438 
  42   2.0000      -0.762290       -20.7430 
  43   2.0000      -0.740530       -20.1508 
  44   2.0000      -0.727801       -19.8045 
  45   2.0000      -0.724953       -19.7270 
  46   2.0000      -0.722152       -19.6508 
  47   2.0000      -0.698740       -19.0137 
  48   2.0000      -0.695733       -18.9319 
  49   2.0000      -0.691929       -18.8283 
  50   2.0000      -0.666289       -18.1306 
  51   2.0000      -0.663804       -18.0630 
  52   2.0000      -0.655192       -17.8287 
  53   2.0000      -0.651361       -17.7244 
  54   2.0000      -0.650737       -17.7075 
  55   2.0000      -0.638969       -17.3872 
  56   2.0000      -0.635959       -17.3053 
  57   2.0000      -0.624231       -16.9862 
  58   2.0000      -0.616439       -16.7742 
  59   2.0000      -0.611485       -16.6394 
  60   2.0000      -0.605167       -16.4674 
  61   2.0000      -0.592935       -16.1346 
  62   2.0000      -0.586458       -15.9583 
  63   2.0000      -0.577239       -15.7075 
  64   2.0000      -0.573170       -15.5968 
  65   2.0000      -0.560381       -15.2487 
  66   2.0000      -0.543415       -14.7871 
  67   2.0000      -0.529629       -14.4119 
  68   2.0000      -0.518462       -14.1081 
  69   2.0000      -0.479549       -13.0492 
  70   2.0000      -0.473018       -12.8715 
  71   2.0000      -0.460406       -12.5283 
  72   2.0000      -0.456068       -12.4102 
  73   2.0000      -0.432686       -11.7740 
  74   0.0000      -0.187802        -5.1104 
  75   0.0000      -0.125011        -3.4017 
  76   0.0000      -0.110235        -2.9996 
  77   0.0000      -0.074200        -2.0191 
  78   0.0000      -0.063916        -1.7392 
  79   0.0000      -0.061347        -1.6693 
  80   0.0000      -0.052459        -1.4275 
  81   0.0000      -0.046253        -1.2586 
  82   0.0000      -0.019943        -0.5427 
  83   0.0000      -0.008862        -0.2412 
[...]
   373. D(H  28,H  32,N   6,C   2)   -148.33  0.000066   -0.06   -148.39   
   374. D(H  28,H  32,N   6,C   0)    104.39  0.000298   -0.65    103.74   
   375. D(C  30,H  32,C  26,C  10)    157.28  0.000320   -0.08    157.20   
   376. D(H  27,H  32,N   6,C   8)     11.80 -0.000252    0.31     12.11   
   377. D(H  27,H  32,N   6,C   2)   -102.12  0.000009   -0.13   -102.25   
   378. D(H  27,H  32,N   6,C   0)    150.59  0.000241   -0.71    149.87   
   379. D(C   2,H  32,H  27,C  26)    -87.94 -0.000048    0.10    -87.84   
   380. D(C  26,H  32,N   6,C   8)     -9.88 -0.000163    0.24     -9.64   
   381. D(C  26,H  32,N   6,C   2)   -123.81  0.000098   -0.20   -124.00   
   382. D(C  26,H  32,N   6,C   0)    128.91  0.000330   -0.78    128.13   
   383. D(N   7,H  32,N   6,C   8)    157.85 -0.000215    0.51    158.36   
   384. D(N   7,H  32,N   6,C   2)     43.93  0.000046    0.07     44.00   
   385. D(N   7,H  32,N   6,C   0)    -63.36  0.000278   -0.51    -63.87   
   386. D(H   5,H  32,N   6,C   8)     83.59 -0.000335    0.70     84.29   
   387. D(N   6,H  32,H  28,C  26)     75.47  0.000188   -0.43     75.03   
   388. D(H   5,H  32,N   6,C   2)    -30.33 -0.000074    0.26    -30.06   
   389. D(H   5,H  32,N   6,C   0)   -137.62  0.000158   -0.32   -137.94   
   390. D(C   2,H  32,N   6,C   8)    113.92 -0.000261    0.44    114.36   
   391. D(C   2,H  32,C  30,C  19)    -31.34 -0.000723    1.46    -29.88   
   392. D(C   2,H  32,N   6,C   0)   -107.29  0.000232   -0.58   -107.87   
   393. D(C  30,H  32,H   5,C   2)   -104.36 -0.001203    2.00   -102.35   
   394. D(H  28,H  32,H   5,C   2)     91.57  0.000548   -1.09     90.48   
   395. D(H   5,H  32,C  30,H  31)    133.94  0.000513   -0.47    133.46   
   396. D(H  27,H  32,H   5,C   2)    126.05  0.000504   -1.06    124.99   
   397. D(C  26,H  32,H   5,C   2)    103.36  0.000518   -0.96    102.40   
   398. D(N   7,H  32,H   5,C   2)    -34.05 -0.000043    0.09    -33.96   
   399. D(N   6,H  32,H   5,C   2)     32.05 -0.000058   -0.13     31.92   
   400. D(C  30,H  32,C   2,N   7)    -11.25  0.000475   -1.12    -12.37   
   401. D(C  30,H  32,C   2,N   6)   -120.14  0.000463   -0.90   -121.04   
   402. D(C  30,H  32,C   2,H   5)    115.25  0.000404   -1.01    114.25   
   403. D(C  26,H  32,C  30,C  19)    160.31 -0.000843    1.34    161.64   
   404. D(H  28,H  32,C   2,N   7)    139.66  0.000260   -0.56    139.10   
   405. D(H  28,H  32,C   2,N   6)     30.77  0.000248   -0.34     30.43   
   406. D(H  27,H  32,C  30,C  19)    129.02 -0.000174    0.58    129.59   
   407. D(H  27,H  32,C  30,H  31)   -114.40 -0.000349    1.40   -113.00   
   408. D(H  28,H  32,C   2,H   5)    -93.84  0.000189   -0.44    -94.28   
   409. D(H  28,H  32,C  30,C  19)   -179.79 -0.000969    1.57   -178.22   
   410. D(H  28,H  32,C  30,H  31)    -63.21 -0.001145    2.40    -60.81   
   411. D(H  28,H  32,C  30,H  33)     58.39 -0.000660    0.63     59.02   
   412. D(H  27,H  32,C   2,N   7)   -176.04  0.000376   -0.92   -176.96   
   413. D(H  24,H  33,C  30,H  31)   -103.47 -0.000013   -0.20   -103.67   
   414. D(H  24,H  33,C  30,H  32)    135.92 -0.000244    1.00    136.91   
   415. D(H  24,H  33,C  30,C  19)     21.22  0.000125   -0.40     20.82   
   416. D(C  30,H  33,H  24,C  21)    -25.09 -0.000302    0.98    -24.11   
   417. D(H  37,C  34,C   9,C  11)    103.74  0.000040   -0.12    103.62   
   418. D(H  37,C  34,C   9,C   8)    -77.02 -0.000035    0.05    -76.96   
   419. D(H  36,C  34,C   9,C  11)    -15.26  0.000059   -0.12    -15.37   
   420. D(H  36,C  34,C   9,C   8)    163.99 -0.000017    0.05    164.04   
   421. D(H  35,C  34,C   9,C  11)   -135.22  0.000084   -0.16   -135.37   
   422. D(H  35,C  34,C   9,C   8)     44.03  0.000009    0.01     44.04   
   423. D(H  41,C  38,C  18,C  20)    -21.54 -0.000067    0.15    -21.39   
   424. D(H  41,C  38,C  18,C  17)    159.48 -0.000105    0.20    159.68   
   425. D(H  40,C  38,C  18,C  20)   -142.05 -0.000040    0.16   -141.90   
   426. D(H  40,C  38,C  18,C  17)     38.97 -0.000078    0.20     39.17   
   427. D(H  39,C  38,C  18,C  20)     97.58 -0.000027    0.15     97.72   
   428. D(H  39,C  38,C  18,C  17)    -81.40 -0.000065    0.20    -81.21   
    ----------------------------------------------------------------------------

         *************************************************************
         *                GEOMETRY OPTIMIZATION CYCLE  56            *
         *************************************************************
---------------------------------
CARTESIAN COORDINATES (ANGSTROEM)
---------------------------------
  C     -0.702672    0.686270   -1.749116
  C     -0.927651   -0.645843   -1.706373
  C     -0.265155   -0.008593    0.280277
  H     -0.804250    1.398317   -2.550198
  H     -1.249364   -1.334936   -2.469100
  H      0.103371   -0.037109    1.292784
  N     -0.266920    1.064497   -0.495818
  N     -0.651741   -1.070385   -0.422960
  C      0.076476    2.399242   -0.054082
  C     -0.959438    3.332029    0.022993
  C      1.399047    2.681940    0.296871
  C     -0.638407    4.608339    0.464177
  C      1.659851    3.976009    0.735669
  C      0.660013    4.928267    0.817418
  H     -1.421819    5.352684    0.540426
  H      2.674019    4.239267    1.010666
  H      0.896232    5.927498    1.161226
  C     -0.281486   -2.433266   -0.075946
  C     -1.244802   -3.329813    0.363585
  C      1.076180   -2.746088   -0.224897
  C     -0.802187   -4.613157    0.672197
  C      1.466077   -4.036222    0.091892
  C      0.530277   -4.959538    0.538634
  H     -1.519568   -5.346996    1.019819
  H      2.502860   -4.329960   -0.016158
  H      0.847009   -5.965553    0.784597
  C      2.546466    1.700204    0.224680
  H      2.521902    0.946584    1.016274
  H      2.612432    1.170722   -0.726103
  H      3.476326    2.251679    0.351305
  C      2.017192   -1.659856   -0.684262
  H      1.999072   -1.563904   -1.772128
  H      1.577874   -0.758612   -0.255006
  H      3.045333   -1.795231   -0.358220
  C     -2.379286    2.990568   -0.339213
  H     -2.689328    2.025871    0.067207
  H     -3.058228    3.746807    0.050107
  H     -2.521820    2.955176   -1.421616
  C     -2.688409   -2.944405    0.525579
  H     -2.848461   -2.425809    1.473669
  H     -3.031705   -2.285867   -0.273067
  H     -3.320611   -3.830618    0.524942

----------------------------
CARTESIAN COORDINATES (A.U.)
----------------------------
  NO LB      ZA    FRAG     MASS         X           Y           Z
   0 C     6.0000    0    12.011   -1.327857    1.296863   -3.305350
   1 C     6.0000    0    12.011   -1.753007   -1.220466   -3.224578
   2 C     6.0000    0    12.011   -0.501071   -0.016238    0.529647
   3 H     1.0000    0     1.008   -1.519812    2.642436   -4.819176
   4 H     1.0000    0     1.008   -2.360956   -2.522664   -4.665922
   5 H     1.0000    0     1.008    0.195344   -0.070126    2.443008
   6 N     7.0000    0    14.007   -0.504405    2.011607   -0.936960
   7 N     7.0000    0    14.007   -1.231611   -2.022734   -0.799279
   8 C     6.0000    0    12.011    0.144518    4.533909   -0.102200
   9 C     6.0000    0    12.011   -1.813076    6.296622    0.043451
  10 C     6.0000    0    12.011    2.643816    5.068131    0.561006
  11 C     6.0000    0    12.011   -1.206414    8.708498    0.877167
  12 C     6.0000    0    12.011    3.136665    7.513568    1.390212
  13 C     6.0000    0    12.011    1.247243    9.313075    1.544696
  14 H     1.0000    0     1.008   -2.686849   10.115107    1.021257
  15 H     1.0000    0     1.008    5.053164    8.011054    1.909882
  16 H     1.0000    0     1.008    1.693632   11.201348    2.194400
  17 C     6.0000    0    12.011   -0.531931   -4.598207   -0.143518
  18 C     6.0000    0    12.011   -2.352336   -6.292435    0.687076
  19 C     6.0000    0    12.011    2.033686   -5.189354   -0.424993
  20 C     6.0000    0    12.011   -1.515913   -8.717603    1.270268
  21 C     6.0000    0    12.011    2.770484   -7.627353    0.173651
  22 C     6.0000    0    12.011    1.002079   -9.372169    1.017870
  23 H     1.0000    0     1.008   -2.871567  -10.104358    1.927178
  24 H     1.0000    0     1.008    4.729720   -8.182438   -0.030535
  25 H     1.0000    0     1.008    1.600615  -11.273261    1.482673
  26 C     6.0000    0    12.011    4.812124    3.212920    0.424583
  27 H     1.0000    0     1.008    4.765704    1.788785    1.920479
  28 H     1.0000    0     1.008    4.936780    2.212344   -1.372136
  29 H     1.0000    0     1.008    6.569304    4.255056    0.663870
  30 C     6.0000    0    12.011    3.811940   -3.136672   -1.293068
  31 H     1.0000    0     1.008    3.777699   -2.955350   -3.348836
  32 H     1.0000    0     1.008    2.981750   -1.433569   -0.481891
  33 H     1.0000    0     1.008    5.754845   -3.392495   -0.676937
  34 C     6.0000    0    12.011   -4.496200    5.651354   -0.641020
  35 H     1.0000    0     1.008   -5.082093    3.828342    0.127002
  36 H     1.0000    0     1.008   -5.779213    7.080438    0.094688
  37 H     1.0000    0     1.008   -4.765548    5.584474   -2.686465
  38 C     6.0000    0    12.011   -5.080357   -5.564118    0.993201
  39 H     1.0000    0     1.008   -5.382811   -4.584115    2.784830
  40 H     1.0000    0     1.008   -5.729092   -4.319662   -0.516022
  41 H     1.0000    0     1.008   -6.275045   -7.238820    0.991997

--------------------------------
INTERNAL COORDINATES (ANGSTROEM)
--------------------------------
 C      0   0   0     0.000000000000     0.00000000     0.00000000
 C      1   0   0     1.351654035879     0.00000000     0.00000000
 C      2   1   0     2.189010685569    72.02630228     0.00000000
 H      1   2   3     1.076597081353   131.27317770   180.44991641
 H      2   1   3     1.077079435606   131.13635891   180.78100553
 H      3   2   1     1.077866557318   161.49545011   195.07967378
 N      3   2   1     1.324328970045    72.76022704   359.05152377
 N      3   2   1     1.330936536944    36.90015743   179.76646073
 C      7   3   2     1.447271504231   124.61819287   178.36259542
 C      9   7   3     1.396119795024   117.19224319   249.99645010
 C      9   7   3     1.397240744909   119.19934029    68.63906405
 C     10   9   7     1.388045600606   117.40527659   179.11363930
 C     11   9   7     1.391106735468   116.41706080   181.10299320
 C     12  10   9     1.383122184769   120.72935805   359.66180173
 H     12  10   9     1.083327412806   119.13701323   180.36512571
 H     13  11   9     1.083265649712   118.79430918   180.45380970
 H     14  12  10     1.082804971093   119.95649578   180.08141219
 C      8   3   2     1.454287892550   123.20297649   155.92814440
 C     18   8   3     1.387430394832   120.29149181   112.25152771
 C     18   8   3     1.401178244506   115.50229421   292.00223463
 C     19  18   8     1.392163726694   116.43368491   179.92617635
 C     20  18   8     1.384492507387   117.16718282   180.20285619
 C     21  19  18     1.383213624330   121.04475099   359.84473437
 H     21  19  18     1.083511229514   119.00976241   179.97880755
 H     22  20  18     1.082993938725   119.96788552   179.38096135
 H     23  21  19     1.082996493872   119.49949654   180.07823357
 C     11   9   7     1.511816004457   125.10162267     1.55874562
 H     27  11   9     1.093236854957   113.32929491   285.96174997
 H     27  11   9     1.090270771911   113.76126393    48.95155974
 H     27  11   9     1.088483902815   108.28872337   168.02324499
 C     20  18   8     1.508780998621   118.42162682     1.59813149
 H     31  20  18     1.092239248387   110.86342621   276.94126046
 H     31  20  18     1.090642464954   102.93585184    32.46789867
 H     31  20  18     1.087062320295   114.13644418   153.41456699
 C     10   9   7     1.504578952285   122.36348741   359.68465062
 H     35  10   9     1.091760827161   112.26607994    44.03890937
 H     35  10   9     1.088314428236   110.17552709   164.04112415
 H     35  10   9     1.092320719904   111.65652615   283.03591114
 C     19  18   8     1.502924638434   122.36768044   358.90213215
 H     39  19  18     1.092443079187   110.85498348   278.79513201
 H     39  19  18     1.090578016580   112.22688607    39.17234111
 H     39  19  18     1.088601908438   110.42609431   159.67810880

---------------------------
INTERNAL COORDINATES (A.U.)
---------------------------
 C      0   0   0     0.000000000000     0.00000000     0.00000000
 C      1   0   0     2.554255955621     0.00000000     0.00000000
 C      2   1   0     4.136630699952    72.02630228     0.00000000
 H      1   2   3     2.034473640337   131.27317770   180.44991641
 H      2   1   3     2.035385157774   131.13635891   180.78100553
 H      3   2   1     2.036872602243   161.49545011   195.07967378
 N      3   2   1     2.502619064604    72.76022704   359.05152377
 N      3   2   1     2.515105556454    36.90015743   179.76646073
 C      7   3   2     2.734946784426   124.61819287   178.36259542
 C      9   7   3     2.638284062742   117.19224319   249.99645010
 C      9   7   3     2.640402351034   119.19934029    68.63906405
 C     10   9   7     2.623026046539   117.40527659   179.11363930
 C     11   9   7     2.628810753088   116.41706080   181.10299320
 C     12  10   9     2.613722138965   120.72935805   359.66180173
 H     12  10   9     2.047192123574   119.13701323   180.36512571
 H     13  11   9     2.047075408240   118.79430918   180.45380970
 H     14  12  10     2.046204851813   119.95649578   180.08141219
 C      8   3   2     2.748205836797   123.20297649   155.92814440
 C     18   8   3     2.621863476111   120.29149181   112.25152771
 C     18   8   3     2.647843146924   115.50229421   292.00223463
 C     19  18   8     2.630808177032   116.43368491   179.92617635
 C     20  18   8     2.616311673427   117.16718282   180.20285619
 C     21  19  18     2.613894934693   121.04475099   359.84473437
 H     21  19  18     2.047539486810   119.00976241   179.97880755
 H     22  20  18     2.046561948886   119.96788552   179.38096135
 H     23  21  19     2.046566777415   119.49949654   180.07823357
 C     11   9   7     2.856918213304   125.10162267     1.55874562
 H     27  11   9     2.065918255377   113.32929491   285.96174997
 H     27  11   9     2.060313170730   113.76126393    48.95155974
 H     27  11   9     2.056936477503   108.28872337   168.02324499
 C     20  18   8     2.851182883457   118.42162682     1.59813149
 H     31  20  18     2.064033052172   110.86342621   276.94126046
 H     31  20  18     2.061015568787   102.93585184    32.46789867
 H     31  20  18     2.054250075863   114.13644418   153.41456699
 C     10   9   7     2.843242166680   122.36348741   359.68465062
 H     35  10   9     2.063128967078   112.26607994    44.03890937
 H     35  10   9     2.056616216962   110.17552709   164.04112415
 H     35  10   9     2.064187011027   111.65652615   283.03591114
 C     19  18   8     2.840115966563   122.36768044   358.90213215
 H     39  19  18     2.064418236562   110.85498348   278.79513201
 H     39  19  18     2.060893779012   112.22688607    39.17234111
 H     39  19  18     2.057159475812   110.42609431   159.67810880



           ************************************************************
           *        Program running with 4 parallel MPI-processes     *
           *              working on a common directory               *
           ************************************************************
------------------------------------------------------------------------------
                   ___                                                        
                  /   \      - P O W E R E D   B Y -                         
                 /     \                                                     
                 |  |  |   _    _      __       _____    __    __             
                 |  |  |  | |  | |    /  \     |  _  \  |  |  /  |          
                  \  \/   | |  | |   /    \    | | | |  |  | /  /          
                 / \  \   | |__| |  /  /\  \   | |_| |  |  |/  /          
                |  |  |   |  __  | /  /__\  \  |    /   |      \           
                |  |  |   | |  | | |   __   |  |    \   |  |\   \          
                \     /   | |  | | |  |  |  |  | |\  \  |  | \   \       
                 \___/    |_|  |_| |__|  |__|  |_| \__\ |__|  \__/        
                                                                              
                      - O R C A' S   B I G   F R I E N D -                    
                                      &                                       
                       - I N T E G R A L  F E E D E R -                       
                                                                              
 v1 FN, 2020, v2 2021                                                         
------------------------------------------------------------------------------


Reading SHARK input file 8_prot.SHARKINP.tmp ... ok
----------------------
SHARK INTEGRAL PACKAGE
----------------------

Number of atoms                             ...     42
Number of basis functions                   ...    777
Number of shells                            ...    315
Maximum angular momentum                    ...      3
Integral batch strategy                     ... SHARK/LIBINT Hybrid
RI-J (if used) integral strategy            ... SPLIT-RIJ (Revised 2003 algorithm where possible)
Printlevel                                  ...      1
Contraction scheme used                     ... SEGMENTED contraction
Coulomb Range Separation                    ... NOT USED
Exchange Range Separation                   ... Long Range
   Mu parameter                             ...  0.300000
   Scaling (regular/separated)              ...  0.157706  0.842294
Finite Nucleus Model                        ... NOT USED
Auxiliary Coulomb fitting basis             ... AVAILABLE
   # of basis functions in Aux-J            ...   1260
   # of shells in Aux-J                     ...    420
   Maximum angular momentum in Aux-J        ...      4
Auxiliary J/K fitting basis                 ... NOT available
Auxiliary Correlation fitting basis         ... NOT available
Auxiliary 'external' fitting basis          ... NOT available
Integral threshold                          ...     2.500000e-11
Primitive cut-off                           ...     2.500000e-12
Primitive pair pre-selection threshold      ...     2.500000e-12

Calculating pre-screening integrals         ... done (  0.1 sec) Dimension = 315
Organizing shell pair data                  ... done (  0.5 sec)
Shell pair information
Total number of shell pairs                 ...     49770
Shell pairs after pre-screening             ...     36429
Total number of primitive shell pairs       ...    149856
Primitive shell pairs kept                  ...     73973
          la=0 lb=0:  10042 shell pairs
          la=1 lb=0:  10617 shell pairs
          la=1 lb=1:   2831 shell pairs
          la=2 lb=0:   5089 shell pairs
          la=2 lb=1:   2696 shell pairs
          la=2 lb=2:    664 shell pairs
          la=3 lb=0:   2397 shell pairs
          la=3 lb=1:   1316 shell pairs
          la=3 lb=2:    619 shell pairs
          la=3 lb=3:    158 shell pairs

Calculating one electron integrals          ... done (  0.2 sec)
Calculating RI/J V-Matrix + Cholesky decomp.... done (  0.1 sec)
Calculating Nuclear repulsion               ... done (  0.0 sec) ENN=   1628.689349536496 Eh

SHARK setup successfully completed in   1.5 seconds

Maximum memory used throughout the entire GTOINT-calculation: 54.9 MB

ORCA finished by error termination in SCF
Calling Command: mpirun -np 4  /opt/software/orca/5.0.4/orca_scf_mpi 8_prot.gbw b 8_prot 
[file orca_tools/qcmsg.cpp, line 465]: 
  .... aborting the run

