
                                 *****************
                                 * O   R   C   A *
                                 *****************

                                            #,                                       
                                            ###                                      
                                            ####                                     
                                            #####                                    
                                            ######                                   
                                           ########,                                 
                                     ,,################,,,,,                         
                               ,,#################################,,                 
                          ,,##########################################,,             
                       ,#########################################, ''#####,          
                    ,#############################################,,   '####,        
                  ,##################################################,,,,####,       
                ,###########''''           ''''###############################       
              ,#####''   ,,,,##########,,,,          '''####'''          '####       
            ,##' ,,,,###########################,,,                        '##       
           ' ,,###''''                  '''############,,,                           
         ,,##''                                '''############,,,,        ,,,,,,###''
      ,#''                                            '''#######################'''  
     '                                                          ''''####''''         
             ,#######,   #######,   ,#######,      ##                                
            ,#'     '#,  ##    ##  ,#'     '#,    #''#        ######   ,####,        
            ##       ##  ##   ,#'  ##            #'  '#       #        #'  '#        
            ##       ##  #######   ##           ,######,      #####,   #    #        
            '#,     ,#'  ##    ##  '#,     ,#' ,#      #,         ##   #,  ,#        
             '#######'   ##     ##  '#######'  #'      '#     #####' # '####'        



                  #######################################################
                  #                        -***-                        #
                  #          Department of theory and spectroscopy      #
                  #    Directorship and core code : Frank Neese         #
                  #        Max Planck Institute fuer Kohlenforschung    #
                  #                Kaiser Wilhelm Platz 1               #
                  #                 D-45470 Muelheim/Ruhr               #
                  #                      Germany                        #
                  #                                                     #
                  #                  All rights reserved                #
                  #                        -***-                        #
                  #######################################################


                         Program Version 5.0.4 -  RELEASE  -


 With contributions from (in alphabetic order):
   Daniel Aravena         : Magnetic Suceptibility
   Michael Atanasov       : Ab Initio Ligand Field Theory (pilot matlab implementation)
   Alexander A. Auer      : GIAO ZORA, VPT2 properties, NMR spectrum
   Ute Becker             : Parallelization
   Giovanni Bistoni       : ED, misc. LED, open-shell LED, HFLD
   Martin Brehm           : Molecular dynamics
   Dmytro Bykov           : SCF Hessian
   Vijay G. Chilkuri      : MRCI spin determinant printing, contributions to CSF-ICE
   Dipayan Datta          : RHF DLPNO-CCSD density
   Achintya Kumar Dutta   : EOM-CC, STEOM-CC
   Dmitry Ganyushin       : Spin-Orbit,Spin-Spin,Magnetic field MRCI
   Miquel Garcia          : C-PCM and meta-GGA Hessian, CC/C-PCM, Gaussian charge scheme
   Yang Guo               : DLPNO-NEVPT2, F12-NEVPT2, CIM, IAO-localization
   Andreas Hansen         : Spin unrestricted coupled pair/coupled cluster methods
   Benjamin Helmich-Paris : MC-RPA, TRAH-SCF, COSX integrals
   Lee Huntington         : MR-EOM, pCC
   Robert Izsak           : Overlap fitted RIJCOSX, COSX-SCS-MP3, EOM
   Marcus Kettner         : VPT2
   Christian Kollmar      : KDIIS, OOCD, Brueckner-CCSD(T), CCSD density, CASPT2, CASPT2-K
   Simone Kossmann        : Meta GGA functionals, TD-DFT gradient, OOMP2, MP2 Hessian
   Martin Krupicka        : Initial AUTO-CI
   Lucas Lang             : DCDCAS
   Marvin Lechner         : AUTO-CI (C++ implementation), FIC-MRCC
   Dagmar Lenk            : GEPOL surface, SMD
   Dimitrios Liakos       : Extrapolation schemes; Compound Job, initial MDCI parallelization
   Dimitrios Manganas     : Further ROCIS development; embedding schemes
   Dimitrios Pantazis     : SARC Basis sets
   Anastasios Papadopoulos: AUTO-CI, single reference methods and gradients
   Taras Petrenko         : DFT Hessian,TD-DFT gradient, ASA, ECA, R-Raman, ABS, FL, XAS/XES, NRVS
   Peter Pinski           : DLPNO-MP2, DLPNO-MP2 Gradient
   Christoph Reimann      : Effective Core Potentials
   Marius Retegan         : Local ZFS, SOC
   Christoph Riplinger    : Optimizer, TS searches, QM/MM, DLPNO-CCSD(T), (RO)-DLPNO pert. Triples
   Tobias Risthaus        : Range-separated hybrids, TD-DFT gradient, RPA, STAB
   Michael Roemelt        : Original ROCIS implementation
   Masaaki Saitow         : Open-shell DLPNO-CCSD energy and density
   Barbara Sandhoefer     : DKH picture change effects
   Avijit Sen             : IP-ROCIS
   Kantharuban Sivalingam : CASSCF convergence, NEVPT2, FIC-MRCI
   Bernardo de Souza      : ESD, SOC TD-DFT
   Georgi Stoychev        : AutoAux, RI-MP2 NMR, DLPNO-MP2 response
   Willem Van den Heuvel  : Paramagnetic NMR
   Boris Wezisla          : Elementary symmetry handling
   Frank Wennmohs         : Technical directorship


 We gratefully acknowledge several colleagues who have allowed us to
 interface, adapt or use parts of their codes:
   Stefan Grimme, W. Hujo, H. Kruse, P. Pracht,  : VdW corrections, initial TS optimization,
                  C. Bannwarth, S. Ehlert          DFT functionals, gCP, sTDA/sTD-DF
   Ed Valeev, F. Pavosevic, A. Kumar             : LibInt (2-el integral package), F12 methods
   Garnet Chan, S. Sharma, J. Yang, R. Olivares  : DMRG
   Ulf Ekstrom                                   : XCFun DFT Library
   Mihaly Kallay                                 : mrcc  (arbitrary order and MRCC methods)
   Jiri Pittner, Ondrej Demel                    : Mk-CCSD
   Frank Weinhold                                : gennbo (NPA and NBO analysis)
   Christopher J. Cramer and Donald G. Truhlar   : smd solvation model
   Lars Goerigk                                  : TD-DFT with DH, B97 family of functionals
   V. Asgeirsson, H. Jonsson                     : NEB implementation
   FAccTs GmbH                                   : IRC, NEB, NEB-TS, DLPNO-Multilevel, CI-OPT
                                                   MM, QMMM, 2- and 3-layer-ONIOM, Crystal-QMMM,
                                                   LR-CPCM, SF, NACMEs, symmetry and pop. for TD-DFT,
                                                   nearIR, NL-DFT gradient (VV10), updates on ESD,
                                                   ML-optimized integration grids
   S Lehtola, MJT Oliveira, MAL Marques          : LibXC Library
   Liviu Ungur et al                             : ANISO software


 Your calculation uses the libint2 library for the computation of 2-el integrals
 For citations please refer to: http://libint.valeyev.net

 Your ORCA version has been built with support for libXC version: 5.1.0
 For citations please refer to: https://tddft.org/programs/libxc/

 This ORCA versions uses:
   CBLAS   interface :  Fast vector & matrix operations
   LAPACKE interface :  Fast linear algebra routines
   SCALAPACK package :  Parallel linear algebra routines
   Shared memory     :  Shared parallel matrices
   BLAS/LAPACK       :  OpenBLAS 0.3.15  USE64BITINT DYNAMIC_ARCH NO_AFFINITY SkylakeX SINGLE_THREADED
        Core in use  :  SkylakeX
   Copyright (c) 2011-2014, The OpenBLAS Project




***************************************
The coordinates will be read from file: 11+.xyz
***************************************


Your calculation utilizes the atom-pairwise dispersion correction
based on tight binding partial charges (D4)
Cite in your paper:
E.Caldeweyher, C.Bannwarth, S.Grimme, J.Chem.Phys., (2017), 147, 034112.
E.Caldeweyher, S.Ehlert, A.Hansen, H.Neugebauer, S.Grimme, J.Chem.Phys., (2018), in progress.
   

XCFun DFT library Copyright 2009-2010 Ulf Ekstrom and contributors.
See http://admol.org/xcfun for more information.
This is free software; see the source code for copying conditions.
There is ABSOLUTELY NO WARRANTY; not even for MERCHANTABILITY or FITNESS FOR A PARTICULAR PURPOSE.
For details see the documentation.
Scientific users of this library should cite U. Ekstrom, L. Visscher, R. Bast, A. J. Thorvaldsen and K. Ruud;
J.Chem.Theor.Comp. 2010, DOI: 10.1021/ct100117s
XCFun Version 0.99 

================================================================================

----- Orbital basis set information -----
Your calculation utilizes the basis: def2-SVP
   F. Weigend and R. Ahlrichs, Phys. Chem. Chem. Phys. 7, 3297 (2005).

----- AuxJ basis set information -----
Your calculation utilizes the auxiliary basis: def2/J
   F. Weigend, Phys. Chem. Chem. Phys. 8, 1057 (2006).

================================================================================
                                        WARNINGS
                       Please study these warnings very carefully!
================================================================================


WARNING: Geometry Optimization
  ===> : Switching off AutoStart
         For restart on a previous wavefunction, please use MOREAD

INFO   : the flag for use of the SHARK integral package has been found!

================================================================================
                                       INPUT FILE
================================================================================
NAME = 11+_Water.inp
|  1> # ORCAForces - ../2023_04/pKa_prediction/extra_carbenes/Water/11+_Water.inp
|  2> # Basic Mode
|  3> #
|  4> ! Opt FREQ wB97X D4 Def2-SVP SlowConv TightSCF DEFGRID2 Def2/J RIJCOSX CPCM(Water)
|  5> 
|  6> %maxcore 4500
|  7> 
|  8> %PAL NPROCS 4 END
|  9> 
| 10> %geom 
| 11> Maxiter 150
| 12> END
| 13> 
| 14> * xyzfile 1 1 11+.xyz
| 15> 
| 16>                          ****END OF INPUT****
================================================================================

                       *****************************
                       * Geometry Optimization Run *
                       *****************************

Geometry optimization settings:
Update method            Update   .... BFGS
Choice of coordinates    CoordSys .... Z-matrix Internals
Initial Hessian          InHess   .... Almoef's Model

Convergence Tolerances:
Energy Change            TolE     ....  5.0000e-06 Eh
Max. Gradient            TolMAXG  ....  3.0000e-04 Eh/bohr
RMS Gradient             TolRMSG  ....  1.0000e-04 Eh/bohr
Max. Displacement        TolMAXD  ....  4.0000e-03 bohr
RMS Displacement         TolRMSD  ....  2.0000e-03 bohr
Strict Convergence                ....  False
------------------------------------------------------------------------------
                        ORCA OPTIMIZATION COORDINATE SETUP
------------------------------------------------------------------------------

The optimization will be done in new redundant internal coordinates
Making redundant internal coordinates   ...  (new redundants) done
Evaluating the initial hessian          ...  (Almloef) done
Evaluating the coordinates              ...  done
Calculating the B-matrix                .... done
Calculating the G-matrix                .... done
Diagonalizing the G-matrix              .... done
Small eigenvalue found = 1.291e-02
The first mode is                       ....   30
The number of degrees of freedom        ....   54

    -----------------------------------------------------------------
                    Redundant Internal Coordinates


    -----------------------------------------------------------------
         Definition                    Initial Value    Approx d2E/dq
    -----------------------------------------------------------------
      1. B(N   1,C   0)                  1.3234         0.714777   
      2. B(N   2,C   0)                  1.3234         0.714777   
      3. B(C   3,N   1)                  1.4690         0.418609   
      4. B(C   4,N   2)                  1.4690         0.418609   
      5. B(H   5,C   3)                  1.0938         0.355168   
      6. B(H   6,C   4)                  1.0938         0.355168   
      7. B(H   7,C   3)                  1.0895         0.360698   
      8. B(H   8,C   4)                  1.0895         0.360698   
      9. B(H   9,C   3)                  1.0959         0.352414   
     10. B(H  10,C   4)                  1.0959         0.352414   
     11. B(C  11,N   1)                  1.4703         0.416569   
     12. B(C  12,N   2)                  1.4703         0.416569   
     13. B(H  13,C  11)                  1.0925         0.356757   
     14. B(H  14,C  12)                  1.0925         0.356757   
     15. B(H  15,C  11)                  1.0952         0.353334   
     16. B(H  16,C  12)                  1.0952         0.353334   
     17. B(H  17,C  11)                  1.0960         0.352192   
     18. B(H  18,C  12)                  1.0960         0.352192   
     19. B(H  19,C   0)                  1.0900         0.360136   
     20. A(N   1,C   0,N   2)          130.2814         0.450986   
     21. A(N   2,C   0,H  19)          114.8593         0.359308   
     22. A(N   1,C   0,H  19)          114.8593         0.359308   
     23. A(C   0,N   1,C   3)          126.7678         0.409700   
     24. A(C   0,N   1,C  11)          118.5062         0.409346   
     25. A(C   3,N   1,C  11)          114.7257         0.372809   
     26. A(C   0,N   2,C   4)          126.7678         0.409700   
     27. A(C   4,N   2,C  12)          114.7257         0.372809   
     28. A(C   0,N   2,C  12)          118.5062         0.409346   
     29. A(N   1,C   3,H   7)          110.9778         0.328563   
     30. A(H   7,C   3,H   9)          110.4220         0.289932   
     31. A(H   5,C   3,H   7)          108.1172         0.290286   
     32. A(N   1,C   3,H   9)          111.2781         0.327306   
     33. A(N   1,C   3,H   5)          107.3095         0.327727   
     34. A(H   5,C   3,H   9)          108.6031         0.289230   
     35. A(H   8,C   4,H  10)          110.4220         0.289932   
     36. A(H   6,C   4,H  10)          108.6031         0.289230   
     37. A(N   2,C   4,H  10)          111.2781         0.327306   
     38. A(N   2,C   4,H   6)          107.3095         0.327727   
     39. A(H   6,C   4,H   8)          108.1172         0.290286   
     40. A(N   2,C   4,H   8)          110.9778         0.328563   
     41. A(H  15,C  11,H  17)          109.1933         0.288967   
     42. A(H  13,C  11,H  17)          108.9866         0.289404   
     43. A(N   1,C  11,H  17)          109.3789         0.327009   
     44. A(H  13,C  11,H  15)          109.6949         0.289551   
     45. A(N   1,C  11,H  15)          109.4322         0.327184   
     46. A(N   1,C  11,H  13)          110.1366         0.327704   
     47. A(H  16,C  12,H  18)          109.1933         0.288967   
     48. A(H  14,C  12,H  18)          108.9866         0.289404   
     49. A(N   2,C  12,H  18)          109.3789         0.327009   
     50. A(H  14,C  12,H  16)          109.6949         0.289551   
     51. A(N   2,C  12,H  16)          109.4322         0.327184   
     52. A(N   2,C  12,H  14)          110.1366         0.327704   
     53. D(C  11,N   1,C   0,H  19)    -10.2203         0.042460   
     54. D(C  11,N   1,C   0,N   2)    169.7797         0.042460   
     55. D(C   3,N   1,C   0,N   2)    -10.4136         0.042460   
     56. D(C   3,N   1,C   0,H  19)    169.5864         0.042460   
     57. D(C  12,N   2,C   0,N   1)    169.7797         0.042460   
     58. D(C   4,N   2,C   0,N   1)    -10.4136         0.042460   
     59. D(C   4,N   2,C   0,H  19)    169.5864         0.042460   
     60. D(C  12,N   2,C   0,H  19)    -10.2203         0.042460   
     61. D(H   7,C   3,N   1,C   0)    -29.7998         0.014943   
     62. D(H   7,C   3,N   1,C  11)    150.0131         0.014943   
     63. D(H   9,C   3,N   1,C   0)     93.5919         0.014943   
     64. D(H   5,C   3,N   1,C  11)     32.0875         0.014943   
     65. D(H   9,C   3,N   1,C  11)    -86.5952         0.014943   
     66. D(H   5,C   3,N   1,C   0)   -147.7255         0.014943   
     67. D(H   6,C   4,N   2,C   0)   -147.7255         0.014943   
     68. D(H  10,C   4,N   2,C  12)    -86.5952         0.014943   
     69. D(H  10,C   4,N   2,C   0)     93.5919         0.014943   
     70. D(H   8,C   4,N   2,C  12)    150.0131         0.014943   
     71. D(H   8,C   4,N   2,C   0)    -29.7998         0.014943   
     72. D(H   6,C   4,N   2,C  12)     32.0875         0.014943   
     73. D(H  17,C  11,N   1,C   3)     61.8459         0.014799   
     74. D(H  17,C  11,N   1,C   0)   -118.3246         0.014799   
     75. D(H  15,C  11,N   1,C   3)    -57.7343         0.014799   
     76. D(H  15,C  11,N   1,C   0)    122.0952         0.014799   
     77. D(H  13,C  11,N   1,C   3)   -178.3976         0.014799   
     78. D(H  13,C  11,N   1,C   0)      1.4319         0.014799   
     79. D(H  16,C  12,N   2,C   4)    -57.7343         0.014799   
     80. D(H  16,C  12,N   2,C   0)    122.0952         0.014799   
     81. D(H  14,C  12,N   2,C   4)   -178.3976         0.014799   
     82. D(H  18,C  12,N   2,C   0)   -118.3246         0.014799   
     83. D(H  14,C  12,N   2,C   0)      1.4319         0.014799   
     84. D(H  18,C  12,N   2,C   4)     61.8459         0.014799   
    -----------------------------------------------------------------

Number of atoms                         .... 20
Number of degrees of freedom            .... 84

         *************************************************************
         *                GEOMETRY OPTIMIZATION CYCLE   1            *
         *************************************************************
---------------------------------
CARTESIAN COORDINATES (ANGSTROEM)
---------------------------------
  C      0.000000    0.000000    0.660933
  N      0.000000    1.200755    0.104597
  N      0.000000   -1.200755    0.104597
  C      0.212707    1.512035   -1.315217
  C     -0.212707   -1.512035   -1.315217
  H      0.712709    2.483588   -1.364012
  H     -0.712709   -2.483588   -1.364012
  H      0.861958    0.772957   -1.783568
  H     -0.861958   -0.772957   -1.783568
  H     -0.739005    1.581194   -1.854103
  H      0.739005   -1.581194   -1.854103
  C     -0.229259    2.372029    0.963362
  C      0.229259   -2.372029    0.963362
  H     -0.349513    2.058404    2.002987
  H      0.349513   -2.058404    2.002987
  H      0.621451    3.056719    0.880448
  H     -0.621451   -3.056719    0.880448
  H     -1.140139    2.888138    0.638950
  H      1.140139   -2.888138    0.638950
  H      0.000000    0.000000    1.750906

----------------------------
CARTESIAN COORDINATES (A.U.)
----------------------------
  NO LB      ZA    FRAG     MASS         X           Y           Z
   0 C     6.0000    0    12.011    0.000000    0.000000    1.248982
   1 N     7.0000    0    14.007    0.000000    2.269098    0.197660
   2 N     7.0000    0    14.007    0.000000   -2.269098    0.197660
   3 C     6.0000    0    12.011    0.401958    2.857332   -2.485400
   4 C     6.0000    0    12.011   -0.401958   -2.857332   -2.485400
   5 H     1.0000    0     1.008    1.346825    4.693301   -2.577609
   6 H     1.0000    0     1.008   -1.346825   -4.693301   -2.577609
   7 H     1.0000    0     1.008    1.628865    1.460677   -3.370455
   8 H     1.0000    0     1.008   -1.628865   -1.460677   -3.370455
   9 H     1.0000    0     1.008   -1.396517    2.988024   -3.503747
  10 H     1.0000    0     1.008    1.396517   -2.988024   -3.503747
  11 C     6.0000    0    12.011   -0.433237    4.482485    1.820490
  12 C     6.0000    0    12.011    0.433237   -4.482485    1.820490
  13 H     1.0000    0     1.008   -0.660484    3.889820    3.785097
  14 H     1.0000    0     1.008    0.660484   -3.889820    3.785097
  15 H     1.0000    0     1.008    1.174372    5.776362    1.663806
  16 H     1.0000    0     1.008   -1.174372   -5.776362    1.663806
  17 H     1.0000    0     1.008   -2.154550    5.457790    1.207441
  18 H     1.0000    0     1.008    2.154550   -5.457790    1.207441
  19 H     1.0000    0     1.008    0.000000    0.000000    3.308733

--------------------------------
INTERNAL COORDINATES (ANGSTROEM)
--------------------------------
 C      0   0   0     0.000000000000     0.00000000     0.00000000
 N      1   0   0     1.323375349219     0.00000000     0.00000000
 N      1   2   0     1.323375349219   130.28136199     0.00000000
 C      2   1   3     1.469017120678   126.76784568   349.58636867
 C      3   1   2     1.469017120678   126.76784568   349.58636867
 H      4   2   1     1.093754169747   107.30947168   212.27454337
 H      5   3   1     1.093754169747   107.30947168   212.27454337
 H      4   2   1     1.089548443295   110.97776323   330.20021234
 H      5   3   1     1.089548443295   110.97776323   330.20021234
 H      4   2   1     1.095872629105   111.27814544    93.59189340
 H      5   3   1     1.095872629105   111.27814544    93.59189340
 C      2   1   3     1.470346828943   118.50622595   169.77974105
 C      3   1   2     1.470346828943   118.50622595   169.77974105
 H     12   2   1     1.092539155255   110.13658627     1.43187778
 H     13   3   1     1.092539155255   110.13658627     1.43187778
 H     12   2   1     1.095163289923   109.43221765   122.09518606
 H     13   3   1     1.095163289923   109.43221765   122.09518606
 H     12   2   1     1.096044716252   109.37886599   241.67539927
 H     13   3   1     1.096044716252   109.37886599   241.67539927
 H      1   2   3     1.089973000000   114.85931900   180.00000085

---------------------------
INTERNAL COORDINATES (A.U.)
---------------------------
 C      0   0   0     0.000000000000     0.00000000     0.00000000
 N      1   0   0     2.500816982407     0.00000000     0.00000000
 N      1   2   0     2.500816982407   130.28136199     0.00000000
 C      2   1   3     2.776040044123   126.76784568   349.58636867
 C      3   1   2     2.776040044123   126.76784568   349.58636867
 H      4   2   1     2.066895838655   107.30947168   212.27454337
 H      5   3   1     2.066895838655   107.30947168   212.27454337
 H      4   2   1     2.058948167467   110.97776323   330.20021234
 H      5   3   1     2.058948167467   110.97776323   330.20021234
 H      4   2   1     2.070899146668   111.27814544    93.59189340
 H      5   3   1     2.070899146668   111.27814544    93.59189340
 C      2   1   3     2.778552828581   118.50622595   169.77974105
 C      3   1   2     2.778552828581   118.50622595   169.77974105
 H     12   2   1     2.064599794018   110.13658627     1.43187778
 H     13   3   1     2.064599794018   110.13658627     1.43187778
 H     12   2   1     2.069558689880   109.43221765   122.09518606
 H     13   3   1     2.069558689880   109.43221765   122.09518606
 H     12   2   1     2.071224344249   109.37886599   241.67539927
 H     13   3   1     2.071224344249   109.37886599   241.67539927
 H      1   2   3     2.059750463369   114.85931900   180.00000085

---------------------
BASIS SET INFORMATION
---------------------
There are 3 groups of distinct atoms

 Group   1 Type C   : 7s4p1d contracted to 3s2p1d pattern {511/31/1}
 Group   2 Type N   : 7s4p1d contracted to 3s2p1d pattern {511/31/1}
 Group   3 Type H   : 4s1p contracted to 2s1p pattern {31/1}

Atom   0C    basis set group =>   1
Atom   1N    basis set group =>   2
Atom   2N    basis set group =>   2
Atom   3C    basis set group =>   1
Atom   4C    basis set group =>   1
Atom   5H    basis set group =>   3
Atom   6H    basis set group =>   3
Atom   7H    basis set group =>   3
Atom   8H    basis set group =>   3
Atom   9H    basis set group =>   3
Atom  10H    basis set group =>   3
Atom  11C    basis set group =>   1
Atom  12C    basis set group =>   1
Atom  13H    basis set group =>   3
Atom  14H    basis set group =>   3
Atom  15H    basis set group =>   3
Atom  16H    basis set group =>   3
Atom  17H    basis set group =>   3
Atom  18H    basis set group =>   3
Atom  19H    basis set group =>   3
---------------------------------
AUXILIARY/J BASIS SET INFORMATION
---------------------------------
There are 3 groups of distinct atoms

 Group   1 Type C   : 12s5p4d2f1g contracted to 6s4p3d1f1g pattern {711111/2111/211/2/1}
 Group   2 Type N   : 12s5p4d2f1g contracted to 6s4p3d1f1g pattern {711111/2111/211/2/1}
 Group   3 Type H   : 5s2p1d contracted to 3s1p1d pattern {311/2/1}

Atom   0C    basis set group =>   1
Atom   1N    basis set group =>   2
Atom   2N    basis set group =>   2
Atom   3C    basis set group =>   1
Atom   4C    basis set group =>   1
Atom   5H    basis set group =>   3
Atom   6H    basis set group =>   3
Atom   7H    basis set group =>   3
Atom   8H    basis set group =>   3
Atom   9H    basis set group =>   3
Atom  10H    basis set group =>   3
Atom  11C    basis set group =>   1
Atom  12C    basis set group =>   1
Atom  13H    basis set group =>   3
Atom  14H    basis set group =>   3
Atom  15H    basis set group =>   3
Atom  16H    basis set group =>   3
Atom  17H    basis set group =>   3
Atom  18H    basis set group =>   3
Atom  19H    basis set group =>   3


           ************************************************************
           *        Program running with 4 parallel MPI-processes     *
           *              working on a common directory               *
           ************************************************************
------------------------------------------------------------------------------
                           ORCA GTO INTEGRAL CALCULATION
                           -- RI-GTO INTEGRALS CHOSEN --
------------------------------------------------------------------------------
------------------------------------------------------------------------------
                   ___                                                        
                  /   \      - P O W E R E D   B Y -                         
                 /     \                                                     
                 |  |  |   _    _      __       _____    __    __             
                 |  |  |  | |  | |    /  \     |  _  \  |  |  /  |          
                  \  \/   | |  | |   /    \    | | | |  |  | /  /          
                 / \  \   | |__| |  /  /\  \   | |_| |  |  |/  /          
                |  |  |   |  __  | /  /__\  \  |    /   |      \           
                |  |  |   | |  | | |   __   |  |    \   |  |\   \          
                \     /   | |  | | |  |  |  |  | |\  \  |  | \   \       
                 \___/    |_|  |_| |__|  |__|  |_| \__\ |__|  \__/        
                                                                              
                      - O R C A' S   B I G   F R I E N D -                    
                                      &                                       
                       - I N T E G R A L  F E E D E R -                       
                                                                              
 v1 FN, 2020, v2 2021                                                         
------------------------------------------------------------------------------


Reading SHARK input file 11+_Water.SHARKINP.tmp ... ok
----------------------
SHARK INTEGRAL PACKAGE
----------------------

Number of atoms                             ...     20
Number of basis functions                   ...    163
Number of shells                            ...     81
Maximum angular momentum                    ...      2
Integral batch strategy                     ... SHARK/LIBINT Hybrid
RI-J (if used) integral strategy            ... SPLIT-RIJ (Revised 2003 algorithm where possible)
Printlevel                                  ...      1
Contraction scheme used                     ... SEGMENTED contraction
Coulomb Range Separation                    ... NOT USED
Exchange Range Separation                   ... Long Range
   Mu parameter                             ...  0.300000
   Scaling (regular/separated)              ...  0.157706  0.842294
Finite Nucleus Model                        ... NOT USED
Auxiliary Coulomb fitting basis             ... AVAILABLE
   # of basis functions in Aux-J            ...    486
   # of shells in Aux-J                     ...    170
   Maximum angular momentum in Aux-J        ...      4
Auxiliary J/K fitting basis                 ... NOT available
Auxiliary Correlation fitting basis         ... NOT available
Auxiliary 'external' fitting basis          ... NOT available
Integral threshold                          ...     2.500000e-11
Primitive cut-off                           ...     2.500000e-12
Primitive pair pre-selection threshold      ...     2.500000e-12

Calculating pre-screening integrals         ... done (  0.0 sec) Dimension = 81
Organizing shell pair data                  ... done (  0.0 sec)
Shell pair information
Total number of shell pairs                 ...      3321
Shell pairs after pre-screening             ...      3133
Total number of primitive shell pairs       ...     11305
Primitive shell pairs kept                  ...      7977
          la=0 lb=0:   1079 shell pairs
          la=1 lb=0:   1193 shell pairs
          la=1 lb=1:    345 shell pairs
          la=2 lb=0:    313 shell pairs
          la=2 lb=1:    175 shell pairs
          la=2 lb=2:     28 shell pairs

Calculating one electron integrals          ... done (  0.0 sec)
Calculating RI/J V-Matrix + Cholesky decomp.... done (  0.0 sec)
Calculating Nuclear repulsion               ... done (  0.0 sec) ENN=    331.628552273303 Eh

SHARK setup successfully completed in   0.6 seconds

Maximum memory used throughout the entire GTOINT-calculation: 11.7 MB


           ************************************************************
           *        Program running with 4 parallel MPI-processes     *
           *              working on a common directory               *
           ************************************************************
-------------------------------------------------------------------------------
                                 ORCA SCF
-------------------------------------------------------------------------------

------------
SCF SETTINGS
------------
Hamiltonian:
 Density Functional     Method          .... DFT(GTOs)
 Exchange Functional    Exchange        .... WB97X
 Correlation Functional Correlation     .... WB97X
 Gradients option       PostSCFGGA      .... off
 Hybrid DFT is turned on
   Fraction HF Exchange ScalHFX         ....  0.157706
   Scaling of DF-GGA-X  ScalDFX         ....  0.000000
   Scaling of DF-GGA-C  ScalDFC         ....  1.000000
   Scaling of DF-LDA-C  ScalLDAC        ....  1.000000
   Perturbative correction              ....  0.000000
   Density functional embedding theory  .... OFF
 Long-range corrected/Screened/Range-Separated Hybrid DFT is turned on
   Amount of maximum screened exact exchange              ....  0.842294
   Range separation parameter mu (erf(mu*r12)/r12)        ....  0.300000
 RI-approximation to the Coulomb term is turned on
   Number of AuxJ basis functions       .... 486
   RIJ-COSX (HFX calculated with COS-X)).... on


General Settings:
 Integral files         IntName         .... 11+_Water
 Hartree-Fock type      HFTyp           .... RHF
 Total Charge           Charge          ....    1
 Multiplicity           Mult            ....    1
 Number of Electrons    NEL             ....   56
 Basis Dimension        Dim             ....  163
 Nuclear Repulsion      ENuc            ....    331.6285522733 Eh

Convergence Acceleration:
 DIIS                   CNVDIIS         .... on
   Start iteration      DIISMaxIt       ....     0
   Startup error        DIISStart       ....  0.200000
   # of expansion vecs  DIISMaxEq       ....     5
   Bias factor          DIISBfac        ....   1.050
   Max. coefficient     DIISMaxC        ....  10.000
 Trust-Rad. Augm. Hess. CNVTRAH         .... auto
   Auto Start mean grad. ratio tolernc. ....  1.125000
   Auto Start start iteration           ....    20
   Auto Start num. interpolation iter.  ....    10
   Max. Number of Micro iterations      ....    16
   Max. Number of Macro iterations      .... Maxiter - #DIIS iter
   Number of Davidson start vectors     ....     2
   Converg. threshold I  (grad. norm)   ....   1.000e-05
   Converg. threshold II (energy diff.) ....   1.000e-08
   Grad. Scal. Fac. for Micro threshold ....   0.100
   Minimum threshold for Micro iter.    ....   0.010
   NR start threshold (gradient norm)   ....   0.001
   Initial trust radius                 ....   0.400
   Minimum AH scaling param. (alpha)    ....   1.000
   Maximum AH scaling param. (alpha)    .... 1000.000
   Orbital update algorithm             .... Taylor
   White noise on init. David. guess    .... on
   Maximum white noise                  ....   0.010
   Quad. conv. algorithm                .... NR
 SOSCF                  CNVSOSCF        .... on
   Start iteration      SOSCFMaxIt      ....   150
   Startup grad/error   SOSCFStart      ....  0.001000
 Level Shifting         CNVShift        .... on
   Level shift para.    LevelShift      ....    0.2500
   Turn off err/grad.   ShiftErr        ....    0.0000
 Zerner damping         CNVZerner       .... off
 Static damping         CNVDamp         .... on
   Fraction old density DampFac         ....    0.8500
   Max. Damping (<1)    DampMax         ....    0.9800
   Min. Damping (>=0)   DampMin         ....    0.0000
   Turn off err/grad.   DampErr         ....    0.0300
 Fernandez-Rico         CNVRico         .... off

SCF Procedure:
 Maximum # iterations   MaxIter         ....   125
 SCF integral mode      SCFMode         .... Direct
   Integral package                     .... SHARK and LIBINT hybrid scheme
 Reset frequency        DirectResetFreq ....    20
 Integral Threshold     Thresh          ....  2.500e-11 Eh
 Primitive CutOff       TCut            ....  2.500e-12 Eh

Convergence Tolerance:
 Convergence Check Mode ConvCheckMode   .... Total+1el-Energy
 Convergence forced     ConvForced      .... 0
 Energy Change          TolE            ....  1.000e-08 Eh
 1-El. energy change                    ....  1.000e-05 Eh
 Orbital Gradient       TolG            ....  1.000e-05
 Orbital Rotation angle TolX            ....  1.000e-05
 DIIS Error             TolErr          ....  5.000e-07


Diagonalization of the overlap matrix:
Smallest eigenvalue                        ... 4.771e-03
Time for diagonalization                   ...    0.005 sec
Threshold for overlap eigenvalues          ... 1.000e-08
Number of eigenvalues below threshold      ... 0
Time for construction of square roots      ...    0.004 sec
Total time needed                          ...    0.009 sec

Time for model grid setup =    0.422 sec

------------------------------
INITIAL GUESS: MODEL POTENTIAL
------------------------------
Loading Hartree-Fock densities                     ... done
Calculating cut-offs                               ... done
Initializing the effective Hamiltonian             ... done
Setting up the integral package (SHARK)            ... done
Starting the Coulomb interaction                   ... done (   0.1 sec)
Reading the grid                                   ... done
Mapping shells                                     ... done
Starting the XC term evaluation                    ... done (   0.1 sec)
  promolecular density results
     # of electrons  =     56.988634741
     EX              =    -42.520252936
     EC              =     -1.867850424
     EX+EC           =    -44.388103360
Transforming the Hamiltonian                       ... done (   0.0 sec)
Diagonalizing the Hamiltonian                      ... done (   0.0 sec)
Back transforming the eigenvectors                 ... done (   0.0 sec)
Now organizing SCF variables                       ... done
                      ------------------
                      INITIAL GUESS DONE (   0.6 sec)
                      ------------------
-------------------
DFT GRID GENERATION
-------------------

General Integration Accuracy     IntAcc      ... 4.388
Radial Grid Type                 RadialGrid  ... OptM3 with GC (2021)
Angular Grid (max. ang.)         AngularGrid ... 4 (Lebedev-302)
Angular grid pruning method      GridPruning ... 4 (adaptive)
Weight generation scheme         WeightScheme... Becke
Basis function cutoff            BFCut       ... 1.0000e-11
Integration weight cutoff        WCut        ... 1.0000e-14
Angular grids for H and He will be reduced by one unit
Partially contracted basis set               ... off
Rotationally invariant grid construction     ... off

Total number of grid points                  ...    83837
Total number of batches                      ...     1320
Average number of points per batch           ...       63
Average number of grid points per atom       ...     4192
Time for grid setup =    0.524 sec

--------------------
COSX GRID GENERATION
--------------------

GRIDX 1
-------
General Integration Accuracy     IntAcc      ... 3.816
Radial Grid Type                 RadialGrid  ... OptM3 with GC (2021)
Angular Grid (max. ang.)         AngularGrid ... 1 (Lebedev-50)
Angular grid pruning method      GridPruning ... 4 (adaptive)
Weight generation scheme         WeightScheme... Becke
Basis function cutoff            BFCut       ... 1.0000e-11
Integration weight cutoff        WCut        ... 1.0000e-14
Angular grids for H and He will be reduced by one unit
Partially contracted basis set               ... on
Rotationally invariant grid construction     ... off

Total number of grid points                  ...    10792
Total number of batches                      ...      183
Average number of points per batch           ...       58
Average number of grid points per atom       ...      540
UseSFitting                                  ... on

GRIDX 2
-------
General Integration Accuracy     IntAcc      ... 4.020
Radial Grid Type                 RadialGrid  ... OptM3 with GC (2021)
Angular Grid (max. ang.)         AngularGrid ... 2 (Lebedev-110)
Angular grid pruning method      GridPruning ... 4 (adaptive)
Weight generation scheme         WeightScheme... Becke
Basis function cutoff            BFCut       ... 1.0000e-11
Integration weight cutoff        WCut        ... 1.0000e-14
Angular grids for H and He will be reduced by one unit
Partially contracted basis set               ... on
Rotationally invariant grid construction     ... off

Total number of grid points                  ...    22357
Total number of batches                      ...      360
Average number of points per batch           ...       62
Average number of grid points per atom       ...     1118
UseSFitting                                  ... on

GRIDX 3
-------
General Integration Accuracy     IntAcc      ... 4.338
Radial Grid Type                 RadialGrid  ... OptM3 with GC (2021)
Angular Grid (max. ang.)         AngularGrid ... 3 (Lebedev-194)
Angular grid pruning method      GridPruning ... 4 (adaptive)
Weight generation scheme         WeightScheme... Becke
Basis function cutoff            BFCut       ... 1.0000e-11
Integration weight cutoff        WCut        ... 1.0000e-14
Angular grids for H and He will be reduced by one unit
Partially contracted basis set               ... on
Rotationally invariant grid construction     ... off

Total number of grid points                  ...    48796
Total number of batches                      ...      773
Average number of points per batch           ...       63
Average number of grid points per atom       ...     2440
UseSFitting                                  ... on

Time for X-Grid setup             =    1.158 sec


--------------------
CPCM SOLVATION MODEL
--------------------
CPCM parameters:
  Epsilon                                         ...      80.4000
  Refrac                                          ...       1.3300
  Rsolv                                           ...       1.3000
  Surface type                                    ... GAUSSIAN VDW
  Epsilon function type                           ...         CPCM
Radii:
 Radius for C  used is    3.8550 Bohr (=   2.0400 Ang.)
 Radius for N  used is    3.5149 Bohr (=   1.8600 Ang.)
 Radius for H  used is    2.4944 Bohr (=   1.3200 Ang.)
Calculating surface                               ...        done! (  0.0s)
GEPOL surface points                              ...         1097
GEPOL Volume                                      ...    1011.4775
GEPOL Surface-area                                ...     590.6546
Calculating surface distance matrix               ...        done! (  0.0s)
Performing Cholesky decomposition & store         ...        done! (  0.1s)
Overall time for CPCM initialization              ...                 0.1s
--------------
SCF ITERATIONS
--------------
ITER       Energy         Delta-E        Max-DP      RMS-DP      [F,P]     Damp
               ***  Starting incremental Fock matrix formation  ***
  0   -307.3082784874   0.000000000000 0.02377207  0.00062286  0.1068210 0.8500
  1   -307.3288581057  -0.020579618231 0.02162256  0.00057609  0.0866438 0.8500
                               ***Turning on DIIS***
  2   -307.3445277855  -0.015669679847 0.01708925  0.00046486  0.0671328 0.8500
  3   -307.3562466018  -0.011718816287 0.01104776  0.00032602  0.0514334 0.8500
  4   -307.3653418956  -0.009095293830 0.00757888  0.00024811  0.0412323 0.8500
  5   -307.3725350048  -0.007193109142 0.00584595  0.00020389  0.0342723 0.8500
  6   -307.3784015785  -0.005866573760 0.03195954  0.00114967  0.0289394 0.0000
  7   -307.4093454716  -0.030943893026 0.00161092  0.00004583  0.0012609 0.0000
                      *** Initiating the SOSCF procedure ***
                           *** Shutting down DIIS ***
                      *** Re-Reading the Fockian *** 
                      *** Removing any level shift *** 
ITER      Energy       Delta-E        Grad      Rot      Max-DP    RMS-DP
  8   -307.40936096  -0.0000154908  0.000596  0.000596  0.000898  0.000020
               *** Restarting incremental Fock matrix formation ***
  9   -307.40936021   0.0000007552  0.000161  0.000294  0.000450  0.000014
 10   -307.40936095  -0.0000007418  0.000168  0.000391  0.000374  0.000008
 11   -307.40936114  -0.0000001863  0.000025  0.000050  0.000044  0.000002
 12   -307.40936115  -0.0000000169  0.000004  0.000005  0.000019  0.000000
 13   -307.40936115   0.0000000015  0.000004  0.000007  0.000008  0.000000
                  ***Gradient check signals convergence***
              ***Rediagonalizing the Fockian in SOSCF/NRSCF***

               *****************************************************
               *                     SUCCESS                       *
               *           SCF CONVERGED AFTER  14 CYCLES          *
               *****************************************************

Old exchange energy                            =    -14.224262674 Eh
New exchange energy                            =    -14.224281291 Eh
Exchange energy change after final integration =     -0.000018617 Eh
Total energy after final integration           =   -307.409379767 Eh
Final COS-X integration done in                =     5.990 sec

----------------
TOTAL SCF ENERGY
----------------

Total Energy       :         -307.40937977 Eh           -8365.03449 eV

Components:
Nuclear Repulsion  :          331.62855227 Eh            9024.07168 eV
Electronic Energy  :         -639.03793204 Eh          -17389.10618 eV
One Electron Energy:        -1059.19270509 Eh          -28822.09879 eV
Two Electron Energy:          420.15477305 Eh           11432.99262 eV
Max COSX asymmetry :            0.00000228 Eh               0.00006 eV
CPCM Dielectric    :           -0.08208110 Eh              -2.23354 eV

Virial components:
Potential Energy   :         -610.94115060 Eh          -16624.55388 eV
Kinetic Energy     :          303.53177083 Eh            8259.51939 eV
Virial Ratio       :            2.01277497


DFT components:
N(Alpha)           :       27.999939150098 electrons
N(Beta)            :       27.999939150098 electrons
N(Total)           :       55.999878300196 electrons
E(XC)              :      -31.184560387111 Eh       
DFET-embed. en.    :        0.000000000000 Eh       
CPCM Solvation Model Properties:
Surface-charge          :           -1.01519169
Charge-correction       :            0.00122829 Eh               0.03342 eV
Free-energy (cav+disp)  :  This term is not implemented in the current solvation scheme

---------------
SCF CONVERGENCE
---------------

  Last Energy change         ...    2.4056e-10  Tolerance :   1.0000e-08
  Last MAX-Density change    ...    4.4409e-15  Tolerance :   1.0000e-07
  Last RMS-Density change    ...    5.4331e-17  Tolerance :   5.0000e-09
  Last Orbital Gradient      ...    4.0463e-07  Tolerance :   1.0000e-05
  Last Orbital Rotation      ...    1.0445e-06  Tolerance :   1.0000e-05

             **** THE GBW FILE WAS UPDATED (11+_Water.gbw) ****
             **** DENSITY 11+_Water.scfp WAS UPDATED ****
             **** ENERGY FILE WAS UPDATED (11+_Water.en.tmp) ****
             **** THE GBW FILE WAS UPDATED (11+_Water.gbw) ****
             **** DENSITY 11+_Water.scfp WAS UPDATED ****
----------------
ORBITAL ENERGIES
----------------

  NO   OCC          E(Eh)            E(eV) 
   0   2.0000     -14.486461      -394.1966 
   1   2.0000     -14.486460      -394.1966 
   2   2.0000     -10.401062      -283.0273 
   3   2.0000     -10.318319      -280.7757 
   4   2.0000     -10.318305      -280.7754 
   5   2.0000     -10.317288      -280.7477 
   6   2.0000     -10.317274      -280.7473 
   7   2.0000      -1.149201       -31.2714 
   8   2.0000      -1.086132       -29.5552 
   9   2.0000      -0.896593       -24.3975 
  10   2.0000      -0.872334       -23.7374 
  11   2.0000      -0.856761       -23.3137 
  12   2.0000      -0.807811       -21.9817 
  13   2.0000      -0.710147       -19.3241 
  14   2.0000      -0.655249       -17.8302 
  15   2.0000      -0.651031       -17.7155 
  16   2.0000      -0.625160       -17.0115 
  17   2.0000      -0.589202       -16.0330 
  18   2.0000      -0.578064       -15.7299 
  19   2.0000      -0.551195       -14.9988 
  20   2.0000      -0.532497       -14.4900 
  21   2.0000      -0.528961       -14.3938 
  22   2.0000      -0.519954       -14.1487 
  23   2.0000      -0.519168       -14.1273 
  24   2.0000      -0.510249       -13.8846 
  25   2.0000      -0.488439       -13.2911 
  26   2.0000      -0.470593       -12.8055 
  27   2.0000      -0.358148        -9.7457 
  28   0.0000       0.058961         1.6044 
  29   0.0000       0.134343         3.6557 
  30   0.0000       0.164251         4.4695 
  31   0.0000       0.165453         4.5022 
  32   0.0000       0.189037         5.1440 
  33   0.0000       0.189218         5.1489 
  34   0.0000       0.195384         5.3167 
  35   0.0000       0.221527         6.0281 
  36   0.0000       0.221956         6.0397 
  37   0.0000       0.223549         6.0831 
  38   0.0000       0.233550         6.3552 
  39   0.0000       0.243931         6.6377 
  40   0.0000       0.248654         6.7662 
  41   0.0000       0.257320         7.0020 
  42   0.0000       0.262247         7.1361 
  43   0.0000       0.299781         8.1575 
  44   0.0000       0.308415         8.3924 
  45   0.0000       0.321744         8.7551 
  46   0.0000       0.372943        10.1483 
  47   0.0000       0.416663        11.3380 
  48   0.0000       0.462806        12.5936 
  49   0.0000       0.488860        13.3026 
  50   0.0000       0.496410        13.5080 
  51   0.0000       0.515383        14.0243 
  52   0.0000       0.526548        14.3281 
  53   0.0000       0.551890        15.0177 
  54   0.0000       0.560964        15.2646 
  55   0.0000       0.567785        15.4502 
  56   0.0000       0.619475        16.8568 
  57   0.0000       0.664294        18.0764 
  58   0.0000       0.668481        18.1903 
  59   0.0000       0.678852        18.4725 
  60   0.0000       0.688827        18.7439 
  61   0.0000       0.713247        19.4084 
  62   0.0000       0.714446        19.4411 
  63   0.0000       0.725739        19.7484 
  64   0.0000       0.743202        20.2236 
  65   0.0000       0.749055        20.3828 
  66   0.0000       0.757503        20.6127 
  67   0.0000       0.761094        20.7104 
  68   0.0000       0.763698        20.7813 
  69   0.0000       0.780380        21.2352 
  70   0.0000       0.783608        21.3231 
  71   0.0000       0.787856        21.4387 
  72   0.0000       0.792998        21.5786 
  73   0.0000       0.802995        21.8506 
  74   0.0000       0.812389        22.1062 
  75   0.0000       0.824320        22.4309 
  76   0.0000       0.837019        22.7764 
  77   0.0000       0.875639        23.8273 
  78   0.0000       0.881847        23.9963 
  79   0.0000       0.948665        25.8145 
  80   0.0000       0.948835        25.8191 
  81   0.0000       1.000859        27.2348 
  82   0.0000       1.059081        28.8191 
  83   0.0000       1.097476        29.8639 
  84   0.0000       1.175908        31.9981 
  85   0.0000       1.188326        32.3360 
  86   0.0000       1.210729        32.9456 
  87   0.0000       1.269399        34.5421 
  88   0.0000       1.285713        34.9860 
  89   0.0000       1.310901        35.6714 
  90   0.0000       1.344971        36.5985 
  91   0.0000       1.357248        36.9326 
  92   0.0000       1.460815        39.7508 
  93   0.0000       1.500920        40.8421 
  94   0.0000       1.516616        41.2692 
  95   0.0000       1.580697        43.0129 
  96   0.0000       1.616474        43.9865 
  97   0.0000       1.626236        44.2521 
  98   0.0000       1.630703        44.3737 
  99   0.0000       1.633765        44.4570 
 100   0.0000       1.643095        44.7109 
 101   0.0000       1.656098        45.0647 
 102   0.0000       1.657404        45.1002 
 103   0.0000       1.755847        47.7790 
 104   0.0000       1.764639        48.0183 
 105   0.0000       1.845035        50.2059 
 106   0.0000       1.845457        50.2174 
 107   0.0000       1.857148        50.5356 
 108   0.0000       1.867763        50.8244 
 109   0.0000       1.869912        50.8829 
 110   0.0000       1.883104        51.2419 
 111   0.0000       1.898896        51.6716 
 112   0.0000       1.908845        51.9423 
 113   0.0000       1.915495        52.1233 
 114   0.0000       1.935440        52.6660 
 115   0.0000       1.938969        52.7620 
 116   0.0000       1.976364        53.7796 
 117   0.0000       1.991918        54.2028 
 118   0.0000       1.998283        54.3760 
 119   0.0000       2.004270        54.5389 
 120   0.0000       2.082062        56.6558 
 121   0.0000       2.096146        57.0390 
 122   0.0000       2.097069        57.0642 
 123   0.0000       2.132901        58.0392 
 124   0.0000       2.138987        58.2048 
 125   0.0000       2.153261        58.5932 
 126   0.0000       2.167122        58.9704 
 127   0.0000       2.192120        59.6506 
 128   0.0000       2.262885        61.5762 
 129   0.0000       2.264090        61.6090 
 130   0.0000       2.336980        63.5925 
 131   0.0000       2.341764        63.7226 
 132   0.0000       2.376988        64.6811 
 133   0.0000       2.394007        65.1443 
 134   0.0000       2.470176        67.2169 
 135   0.0000       2.494706        67.8844 
 136   0.0000       2.498430        67.9857 
 137   0.0000       2.526284        68.7437 
 138   0.0000       2.541015        69.1445 
 139   0.0000       2.566061        69.8261 
 140   0.0000       2.695244        73.3413 
 141   0.0000       2.699906        73.4682 
 142   0.0000       2.712512        73.8112 
 143   0.0000       2.727955        74.2314 
 144   0.0000       2.761999        75.1578 
 145   0.0000       2.783850        75.7524 
 146   0.0000       2.801429        76.2308 
 147   0.0000       2.879866        78.3651 
 148   0.0000       2.881753        78.4165 
 149   0.0000       2.887497        78.5728 
 150   0.0000       2.974213        80.9325 
 151   0.0000       3.008650        81.8695 
 152   0.0000       3.011516        81.9475 
 153   0.0000       3.016721        82.0891 
 154   0.0000       3.042310        82.7855 
 155   0.0000       3.047303        82.9213 
 156   0.0000       3.060587        83.2828 
 157   0.0000       3.079831        83.8065 
 158   0.0000       3.110703        84.6465 
 159   0.0000       3.185509        86.6821 
 160   0.0000       3.201018        87.1041 
 161   0.0000       3.403833        92.6230 
 162   0.0000       3.560984        96.8993 

                    ********************************
                    * MULLIKEN POPULATION ANALYSIS *
                    ********************************

-----------------------
MULLIKEN ATOMIC CHARGES
-----------------------
   0 C :    0.240357
   1 N :   -0.314962
   2 N :   -0.314962
   3 C :    0.064281
   4 C :    0.064281
   5 H :    0.076735
   6 H :    0.076735
   7 H :    0.083923
   8 H :    0.083923
   9 H :    0.094580
  10 H :    0.094580
  11 C :    0.073407
  12 C :    0.073407
  13 H :    0.081806
  14 H :    0.081806
  15 H :    0.081998
  16 H :    0.081998
  17 H :    0.081177
  18 H :    0.081177
  19 H :    0.113751
Sum of atomic charges:    1.0000000

--------------------------------
MULLIKEN REDUCED ORBITAL CHARGES
--------------------------------
  0 C s       :     3.068687  s :     3.068687
      pz      :     0.975881  p :     2.615000
      px      :     0.800437
      py      :     0.838682
      dz2     :     0.012925  d :     0.075955
      dxz     :     0.003263
      dyz     :     0.018746
      dx2y2   :     0.013136
      dxy     :     0.027884
  1 N s       :     3.414221  s :     3.414221
      pz      :     1.202676  p :     3.872265
      px      :     1.553138
      py      :     1.116451
      dz2     :     0.006731  d :     0.028475
      dxz     :     0.003815
      dyz     :     0.008839
      dx2y2   :     0.003819
      dxy     :     0.005272
  2 N s       :     3.414221  s :     3.414221
      pz      :     1.202676  p :     3.872265
      px      :     1.553138
      py      :     1.116451
      dz2     :     0.006731  d :     0.028475
      dxz     :     0.003815
      dyz     :     0.008839
      dx2y2   :     0.003819
      dxy     :     0.005272
  3 C s       :     3.017599  s :     3.017599
      pz      :     0.760487  p :     2.880926
      px      :     1.057194
      py      :     1.063245
      dz2     :     0.012765  d :     0.037194
      dxz     :     0.009803
      dyz     :     0.005208
      dx2y2   :     0.003820
      dxy     :     0.005598
  4 C s       :     3.017599  s :     3.017599
      pz      :     0.760488  p :     2.880926
      px      :     1.057194
      py      :     1.063245
      dz2     :     0.012765  d :     0.037194
      dxz     :     0.009803
      dyz     :     0.005208
      dx2y2   :     0.003820
      dxy     :     0.005598
  5 H s       :     0.899484  s :     0.899484
      pz      :     0.002576  p :     0.023780
      px      :     0.007389
      py      :     0.013815
  6 H s       :     0.899484  s :     0.899484
      pz      :     0.002576  p :     0.023780
      px      :     0.007389
      py      :     0.013815
  7 H s       :     0.891869  s :     0.891869
      pz      :     0.005245  p :     0.024208
      px      :     0.009152
      py      :     0.009810
  8 H s       :     0.891869  s :     0.891869
      pz      :     0.005245  p :     0.024208
      px      :     0.009152
      py      :     0.009810
  9 H s       :     0.882055  s :     0.882055
      pz      :     0.005512  p :     0.023365
      px      :     0.013153
      py      :     0.004700
 10 H s       :     0.882055  s :     0.882055
      pz      :     0.005512  p :     0.023365
      px      :     0.013153
      py      :     0.004700
 11 C s       :     3.025605  s :     3.025605
      pz      :     0.953258  p :     2.863328
      px      :     1.057390
      py      :     0.852679
      dz2     :     0.007057  d :     0.037660
      dxz     :     0.003008
      dyz     :     0.010485
      dx2y2   :     0.005927
      dxy     :     0.011183
 12 C s       :     3.025605  s :     3.025605
      pz      :     0.953258  p :     2.863328
      px      :     1.057390
      py      :     0.852679
      dz2     :     0.007057  d :     0.037659
      dxz     :     0.003008
      dyz     :     0.010485
      dx2y2   :     0.005927
      dxy     :     0.011183
 13 H s       :     0.894277  s :     0.894277
      pz      :     0.015053  p :     0.023917
      px      :     0.005018
      py      :     0.003846
 14 H s       :     0.894277  s :     0.894277
      pz      :     0.015053  p :     0.023917
      px      :     0.005018
      py      :     0.003846
 15 H s       :     0.894678  s :     0.894678
      pz      :     0.003808  p :     0.023324
      px      :     0.011569
      py      :     0.007947
 16 H s       :     0.894678  s :     0.894678
      pz      :     0.003808  p :     0.023324
      px      :     0.011569
      py      :     0.007947
 17 H s       :     0.895504  s :     0.895504
      pz      :     0.004658  p :     0.023319
      px      :     0.012769
      py      :     0.005892
 18 H s       :     0.895504  s :     0.895504
      pz      :     0.004658  p :     0.023319
      px      :     0.012769
      py      :     0.005892
 19 H s       :     0.863552  s :     0.863552
      pz      :     0.018294  p :     0.022697
      px      :     0.002882
      py      :     0.001521


                     *******************************
                     * LOEWDIN POPULATION ANALYSIS *
                     *******************************

----------------------
LOEWDIN ATOMIC CHARGES
----------------------
   0 C :    0.174578
   1 N :    0.009746
   2 N :    0.009746
   3 C :    0.045015
   4 C :    0.045015
   5 H :    0.048122
   6 H :    0.048122
   7 H :    0.045265
   8 H :    0.045265
   9 H :    0.045399
  10 H :    0.045399
  11 C :    0.054934
  12 C :    0.054934
  13 H :    0.046209
  14 H :    0.046209
  15 H :    0.042385
  16 H :    0.042385
  17 H :    0.043752
  18 H :    0.043752
  19 H :    0.063769

-------------------------------
LOEWDIN REDUCED ORBITAL CHARGES
-------------------------------
  0 C s       :     2.833214  s :     2.833214
      pz      :     1.037379  p :     2.814099
      px      :     0.821121
      py      :     0.955599
      dz2     :     0.035681  d :     0.178109
      dxz     :     0.005565
      dyz     :     0.047151
      dx2y2   :     0.033715
      dxy     :     0.055997
  1 N s       :     3.060331  s :     3.060331
      pz      :     1.203587  p :     3.866448
      px      :     1.485515
      py      :     1.177346
      dz2     :     0.015607  d :     0.063475
      dxz     :     0.006489
      dyz     :     0.023189
      dx2y2   :     0.009254
      dxy     :     0.008936
  2 N s       :     3.060331  s :     3.060331
      pz      :     1.203587  p :     3.866448
      px      :     1.485515
      py      :     1.177346
      dz2     :     0.015607  d :     0.063475
      dxz     :     0.006489
      dyz     :     0.023189
      dx2y2   :     0.009254
      dxy     :     0.008936
  3 C s       :     2.831671  s :     2.831671
      pz      :     0.860541  p :     3.030878
      px      :     1.087727
      py      :     1.082610
      dz2     :     0.031154  d :     0.092436
      dxz     :     0.024748
      dyz     :     0.012308
      dx2y2   :     0.009658
      dxy     :     0.014568
  4 C s       :     2.831671  s :     2.831671
      pz      :     0.860541  p :     3.030878
      px      :     1.087727
      py      :     1.082610
      dz2     :     0.031154  d :     0.092436
      dxz     :     0.024748
      dyz     :     0.012308
      dx2y2   :     0.009658
      dxy     :     0.014568
  5 H s       :     0.885527  s :     0.885527
      pz      :     0.008365  p :     0.066352
      px      :     0.020036
      py      :     0.037951
  6 H s       :     0.885527  s :     0.885527
      pz      :     0.008365  p :     0.066352
      px      :     0.020036
      py      :     0.037951
  7 H s       :     0.886666  s :     0.886666
      pz      :     0.015981  p :     0.068069
      px      :     0.025130
      py      :     0.026959
  8 H s       :     0.886666  s :     0.886666
      pz      :     0.015981  p :     0.068069
      px      :     0.025130
      py      :     0.026959
  9 H s       :     0.887908  s :     0.887908
      pz      :     0.017569  p :     0.066693
      px      :     0.036199
      py      :     0.012925
 10 H s       :     0.887908  s :     0.887908
      pz      :     0.017569  p :     0.066693
      px      :     0.036199
      py      :     0.012925
 11 C s       :     2.834364  s :     2.834364
      pz      :     1.003502  p :     3.017493
      px      :     1.087777
      py      :     0.926213
      dz2     :     0.018803  d :     0.093209
      dxz     :     0.006299
      dyz     :     0.025384
      dx2y2   :     0.013157
      dxy     :     0.029568
 12 C s       :     2.834364  s :     2.834364
      pz      :     1.003502  p :     3.017493
      px      :     1.087777
      py      :     0.926213
      dz2     :     0.018803  d :     0.093209
      dxz     :     0.006299
      dyz     :     0.025384
      dx2y2   :     0.013157
      dxy     :     0.029568
 13 H s       :     0.887105  s :     0.887105
      pz      :     0.041941  p :     0.066687
      px      :     0.013427
      py      :     0.011319
 14 H s       :     0.887105  s :     0.887105
      pz      :     0.041941  p :     0.066687
      px      :     0.013427
      py      :     0.011319
 15 H s       :     0.891649  s :     0.891649
      pz      :     0.010959  p :     0.065966
      px      :     0.031626
      py      :     0.023382
 16 H s       :     0.891649  s :     0.891649
      pz      :     0.010959  p :     0.065967
      px      :     0.031626
      py      :     0.023382
 17 H s       :     0.890222  s :     0.890222
      pz      :     0.013347  p :     0.066026
      px      :     0.035035
      py      :     0.017644
 18 H s       :     0.890222  s :     0.890222
      pz      :     0.013347  p :     0.066026
      px      :     0.035035
      py      :     0.017644
 19 H s       :     0.867162  s :     0.867162
      pz      :     0.052403  p :     0.069069
      px      :     0.009618
      py      :     0.007048


                      *****************************
                      * MAYER POPULATION ANALYSIS *
                      *****************************

  NA   - Mulliken gross atomic population
  ZA   - Total nuclear charge
  QA   - Mulliken gross atomic charge
  VA   - Mayer's total valence
  BVA  - Mayer's bonded valence
  FA   - Mayer's free valence

  ATOM       NA         ZA         QA         VA         BVA        FA
  0 C      5.7596     6.0000     0.2404     3.9739     3.9739     0.0000
  1 N      7.3150     7.0000    -0.3150     3.3950     3.3950     0.0000
  2 N      7.3150     7.0000    -0.3150     3.3950     3.3950     0.0000
  3 C      5.9357     6.0000     0.0643     3.8840     3.8840    -0.0000
  4 C      5.9357     6.0000     0.0643     3.8840     3.8840     0.0000
  5 H      0.9233     1.0000     0.0767     0.9988     0.9988    -0.0000
  6 H      0.9233     1.0000     0.0767     0.9988     0.9988    -0.0000
  7 H      0.9161     1.0000     0.0839     0.9985     0.9985    -0.0000
  8 H      0.9161     1.0000     0.0839     0.9985     0.9985    -0.0000
  9 H      0.9054     1.0000     0.0946     0.9857     0.9857    -0.0000
 10 H      0.9054     1.0000     0.0946     0.9857     0.9857    -0.0000
 11 C      5.9266     6.0000     0.0734     3.8815     3.8815    -0.0000
 12 C      5.9266     6.0000     0.0734     3.8815     3.8815     0.0000
 13 H      0.9182     1.0000     0.0818     0.9971     0.9971    -0.0000
 14 H      0.9182     1.0000     0.0818     0.9971     0.9971    -0.0000
 15 H      0.9180     1.0000     0.0820     0.9898     0.9898    -0.0000
 16 H      0.9180     1.0000     0.0820     0.9898     0.9898    -0.0000
 17 H      0.9188     1.0000     0.0812     0.9885     0.9885     0.0000
 18 H      0.9188     1.0000     0.0812     0.9885     0.9885     0.0000
 19 H      0.8862     1.0000     0.1138     1.0013     1.0013    -0.0000

  Mayer bond orders larger than 0.100000
B(  0-C ,  1-N ) :   1.4407 B(  0-C ,  2-N ) :   1.4407 B(  0-C , 19-H ) :   0.9570 
B(  1-N ,  3-C ) :   0.9117 B(  1-N , 11-C ) :   0.9187 B(  2-N ,  4-C ) :   0.9117 
B(  2-N , 12-C ) :   0.9187 B(  3-C ,  5-H ) :   0.9677 B(  3-C ,  7-H ) :   0.9706 
B(  3-C ,  9-H ) :   0.9712 B(  4-C ,  6-H ) :   0.9677 B(  4-C ,  8-H ) :   0.9706 
B(  4-C , 10-H ) :   0.9712 B( 11-C , 13-H ) :   0.9708 B( 11-C , 15-H ) :   0.9739 
B( 11-C , 17-H ) :   0.9736 B( 12-C , 14-H ) :   0.9708 B( 12-C , 16-H ) :   0.9739 
B( 12-C , 18-H ) :   0.9736 

-------
TIMINGS
-------

Total SCF time: 0 days 0 hours 0 min 47 sec 

Total time                  ....      47.712 sec
Sum of individual times     ....      46.768 sec  ( 98.0%)

Fock matrix formation       ....      44.131 sec  ( 92.5%)
  Split-RI-J                ....       1.773 sec  (  4.0% of F)
  Chain of spheres X        ....      32.621 sec  ( 73.9% of F)
  XC integration            ....       5.319 sec  ( 12.1% of F)
    Basis function eval.    ....       1.726 sec  ( 32.5% of XC)
    Density eval.           ....       1.020 sec  ( 19.2% of XC)
    XC-Functional eval.     ....       0.696 sec  ( 13.1% of XC)
    XC-Potential eval.      ....       0.971 sec  ( 18.3% of XC)
Diagonalization             ....       0.094 sec  (  0.2%)
Density matrix formation    ....       0.005 sec  (  0.0%)
Population analysis         ....       0.085 sec  (  0.2%)
Initial guess               ....       0.157 sec  (  0.3%)
Orbital Transformation      ....       0.000 sec  (  0.0%)
Orbital Orthonormalization  ....       0.000 sec  (  0.0%)
DIIS solution               ....       0.043 sec  (  0.1%)
SOSCF solution              ....       0.149 sec  (  0.3%)
Grid generation             ....       2.104 sec  (  4.4%)

Maximum memory used throughout the entire SCF-calculation: 53.8 MB


-------------------------------------------------------------------------------
                          DFT DISPERSION CORRECTION                            
                                                                               
                                 DFTD4 V2.5                                    
-------------------------------------------------------------------------------
The WB97X functional is recognized
Active option DFTDOPT                   ...         5   

Starting D4
-------------------------   ----------------
Dispersion correction           -0.002060681
-------------------------   ----------------


-------------------------   --------------------
FINAL SINGLE POINT ENERGY      -307.411440447961
-------------------------   --------------------



           ************************************************************
           *        Program running with 4 parallel MPI-processes     *
           *              working on a common directory               *
           ************************************************************
------------------------------------------------------------------------------
                         ORCA SCF GRADIENT CALCULATION
------------------------------------------------------------------------------

 ... reading COSX grid (gridx3)
Gradient of the Kohn-Sham DFT energy:
Kohn-Sham wavefunction type      ... RKS
Hartree-Fock exchange scaling    ...    0.158
Number of operators              ...    1
Number of atoms                  ...   20
Basis set dimensions             ...  163
Integral neglect threshold       ... 2.5e-11
Integral primitive cutoff        ... 2.5e-12
SHARK Integral package           ... ON

Nuc. rep. gradient       (SHARK) ... done (  0.0 sec)
HCore & Overlap gradient (SHARK) ... done (  0.1 sec)
RI-J gradient            (SHARK) ... done (  0.4 sec)
COSX-gradient                    ... done (  6.6 sec)
Exchange-correlation gradient    ... done
Dispersion correction            ... Starting D4
Starting D4
Starting D4
Starting D4


------------------- 
Dispersion Gradient 
------------------- 
   1  :    0.000000000   -0.000000000    0.000009040
   2  :   -0.000000124    0.000018358    0.000000596
   3  :    0.000000124   -0.000018358    0.000000596
   4  :    0.000002772    0.000022128   -0.000024027
   5  :   -0.000002772   -0.000022128   -0.000024027
   6  :    0.000000641    0.000006794   -0.000002265
   7  :   -0.000000641   -0.000006794   -0.000002265
   8  :    0.000001190    0.000006111   -0.000002617
   9  :   -0.000001190   -0.000006111   -0.000002617
  10  :    0.000000245    0.000007173   -0.000002868
  11  :   -0.000000245   -0.000007173   -0.000002868
  12  :   -0.000003465    0.000036643    0.000015676
  13  :    0.000003465   -0.000036643    0.000015676
  14  :   -0.000001013    0.000010469    0.000003747
  15  :    0.000001013   -0.000010469    0.000003747
  16  :   -0.000001047    0.000006917    0.000002910
  17  :    0.000001047   -0.000006917    0.000002910
  18  :   -0.000000054    0.000007429    0.000003122
  19  :    0.000000054   -0.000007429    0.000003122
  20  :    0.000000000   -0.000000000    0.000002408

  |G| =    0.000071284

done

------------------
CARTESIAN GRADIENT
------------------

   1   C   :   -0.000000015   -0.000000044    0.010550226
   2   N   :    0.000727776    0.002431825   -0.001253860
   3   N   :   -0.000727792   -0.002431791   -0.001253797
   4   C   :    0.001951475    0.001473346   -0.007868129
   5   C   :   -0.001951481   -0.001473333   -0.007868179
   6   H   :   -0.001381554   -0.002321113   -0.000024261
   7   H   :    0.001381554    0.002321099   -0.000024284
   8   H   :   -0.002075604    0.002912400    0.001347406
   9   H   :    0.002075598   -0.002912430    0.001347412
  10   H   :    0.002452575    0.000228284    0.001385396
  11   H   :   -0.002452582   -0.000228286    0.001385398
  12   C   :   -0.001160012    0.006227362    0.004419029
  13   C   :    0.001160026   -0.006227368    0.004419039
  14   H   :    0.000164149    0.000822168   -0.002646753
  15   H   :   -0.000164149   -0.000822159   -0.002646755
  16   H   :   -0.002266249   -0.001886798    0.000128045
  17   H   :    0.002266248    0.001886795    0.000128044
  18   H   :    0.002118759   -0.001169873    0.000865382
  19   H   :   -0.002118761    0.001169889    0.000865369
  20   H   :   -0.000000012   -0.000000010   -0.003642301

Difference to translation invariance:
           :   -0.0000000489   -0.0000000372   -0.0003875719

Difference to rotation invariance:
           :    0.0000000736   -0.0000000028    0.0000065182

Norm of the cartesian gradient     ...    0.0223945974
RMS gradient                       ...    0.0028911301
MAX gradient                       ...    0.0105502260

-------
TIMINGS
-------

Total SCF gradient time            ...        9.416 sec

One electron gradient       ....       0.072 sec  (  0.8%)
RI-J Coulomb gradient       ....       0.390 sec  (  4.1%)
COSX gradient               ....       6.569 sec  ( 69.8%)
XC gradient                 ....       1.586 sec  ( 16.8%)
CPCM gradient               ....       0.243 sec  (  2.6%)
   A-Matrix (El+Nuc)        ....       0.060 sec  (  0.6%)
   Potential                ....       0.183 sec  (  1.9%)

Maximum memory used throughout the entire SCFGRAD-calculation: 41.7 MB
------------------------------------------------------------------------------
                         ORCA GEOMETRY RELAXATION STEP
------------------------------------------------------------------------------

Reading the OPT-File                    .... done
Getting information on internals        .... done
Copying old internal coords+grads       .... done
Making the new internal coordinates     .... (new redundants).... done
Validating the new internal coordinates .... (new redundants).... done
Calculating the B-matrix                .... done
Calculating the G,G- and P matrices     .... done
Transforming gradient to internals      .... done
Projecting the internal gradient        .... done
Number of atoms                         ....  20
Number of internal coordinates          ....  84
Current Energy                          ....  -307.411440448 Eh
Current gradient norm                   ....     0.022394597 Eh/bohr
Maximum allowed component of the step   ....  0.300
Current trust radius                    ....  0.300
Evaluating the initial hessian          ....  (Almloef) done
Projecting the Hessian                  .... done
Forming the augmented Hessian           .... done
Diagonalizing the augmented Hessian     .... done
Last element of RFO vector              ....  0.998705223
Lowest eigenvalues of augmented Hessian:
 -0.000961890  0.014798551  0.014798706  0.014942691  0.014942839
Length of the computed step             ....  0.050937146
The final length of the internal step   ....  0.050937146
Converting the step to cartesian space:
 Initial RMS(Int)=    0.0055576983
Transforming coordinates:
 Iter   0:  RMS(Cart)=    0.0249266985 RMS(Int)=    0.0055671282
 Iter   1:  RMS(Cart)=    0.0001261880 RMS(Int)=    0.0000646348
 Iter   2:  RMS(Cart)=    0.0000014408 RMS(Int)=    0.0000005967
 Iter   3:  RMS(Cart)=    0.0000000140 RMS(Int)=    0.0000000089
done
Storing new coordinates                 .... done

                                .--------------------.
          ----------------------|Geometry convergence|-------------------------
          Item                value                   Tolerance       Converged
          ---------------------------------------------------------------------
          RMS gradient        0.0023050977            0.0001000000      NO
          MAX gradient        0.0093700326            0.0003000000      NO
          RMS step            0.0055576983            0.0020000000      NO
          MAX step            0.0131918469            0.0040000000      NO
          ........................................................
          Max(Bonds)      0.0070      Max(Angles)    0.46
          Max(Dihed)        0.44      Max(Improp)    0.00
          ---------------------------------------------------------------------

The optimization has not yet converged - more geometry cycles are needed


    ---------------------------------------------------------------------------
                         Redundant Internal Coordinates
                            (Angstroem and degrees)

        Definition                    Value    dE/dq     Step     New-Value
    ----------------------------------------------------------------------------
     1. B(N   1,C   0)                1.3234  0.009370 -0.0069    1.3164   
     2. B(N   2,C   0)                1.3234  0.009370 -0.0069    1.3164   
     3. B(C   3,N   1)                1.4690  0.005535 -0.0070    1.4620   
     4. B(C   4,N   2)                1.4690  0.005535 -0.0070    1.4620   
     5. B(H   5,C   3)                1.0938 -0.002693  0.0040    1.0978   
     6. B(H   6,C   4)                1.0938 -0.002693  0.0040    1.0978   
     7. B(H   7,C   3)                1.0895 -0.003800  0.0056    1.0951   
     8. B(H   8,C   4)                1.0895 -0.003800  0.0056    1.0951   
     9. B(H   9,C   3)                1.0959 -0.002806  0.0042    1.1001   
    10. B(H  10,C   4)                1.0959 -0.002806  0.0042    1.1001   
    11. B(C  11,N   1)                1.4703  0.005020 -0.0064    1.4640   
    12. B(C  12,N   2)                1.4703  0.005020 -0.0064    1.4640   
    13. B(H  13,C  11)                1.0925 -0.002754  0.0041    1.0966   
    14. B(H  14,C  12)                1.0925 -0.002754  0.0041    1.0966   
    15. B(H  15,C  11)                1.0952 -0.002951  0.0044    1.0996   
    16. B(H  16,C  12)                1.0952 -0.002951  0.0044    1.0996   
    17. B(H  17,C  11)                1.0960 -0.002574  0.0039    1.0999   
    18. B(H  18,C  12)                1.0960 -0.002574  0.0039    1.0999   
    19. B(H  19,C   0)                1.0900 -0.003623  0.0053    1.0953   
    20. A(N   1,C   0,N   2)          130.28  0.003403   -0.46    129.82   
    21. A(N   2,C   0,H  19)          114.86 -0.001701    0.23    115.09   
    22. A(N   1,C   0,H  19)          114.86 -0.001701    0.23    115.09   
    23. A(C   0,N   1,C   3)          126.77  0.002650   -0.38    126.39   
    24. A(C   0,N   1,C  11)          118.51 -0.001249    0.17    118.67   
    25. A(C   3,N   1,C  11)          114.73 -0.001401    0.21    114.93   
    26. A(C   0,N   2,C   4)          126.77  0.002650   -0.38    126.39   
    27. A(C   4,N   2,C  12)          114.73 -0.001401    0.21    114.93   
    28. A(C   0,N   2,C  12)          118.51 -0.001249    0.17    118.67   
    29. A(N   1,C   3,H   7)          110.98  0.000645   -0.14    110.84   
    30. A(H   7,C   3,H   9)          110.42 -0.000023   -0.06    110.36   
    31. A(H   5,C   3,H   7)          108.12 -0.000275    0.06    108.17   
    32. A(N   1,C   3,H   9)          111.28 -0.000017   -0.00    111.28   
    33. A(N   1,C   3,H   5)          107.31 -0.000048    0.04    107.35   
    34. A(H   5,C   3,H   9)          108.60 -0.000313    0.12    108.73   
    35. A(H   8,C   4,H  10)          110.42 -0.000023   -0.06    110.36   
    36. A(H   6,C   4,H  10)          108.60 -0.000313    0.12    108.73   
    37. A(N   2,C   4,H  10)          111.28 -0.000017   -0.00    111.28   
    38. A(N   2,C   4,H   6)          107.31 -0.000048    0.04    107.35   
    39. A(H   6,C   4,H   8)          108.12 -0.000275    0.06    108.17   
    40. A(N   2,C   4,H   8)          110.98  0.000645   -0.14    110.84   
    41. A(H  15,C  11,H  17)          109.19 -0.000003   -0.00    109.19   
    42. A(H  13,C  11,H  17)          108.99 -0.000148    0.04    109.02   
    43. A(N   1,C  11,H  17)          109.38  0.000162   -0.03    109.35   
    44. A(H  13,C  11,H  15)          109.69  0.000073   -0.02    109.67   
    45. A(N   1,C  11,H  15)          109.43 -0.000143    0.02    109.45   
    46. A(N   1,C  11,H  13)          110.14  0.000058   -0.01    110.13   
    47. A(H  16,C  12,H  18)          109.19 -0.000003   -0.00    109.19   
    48. A(H  14,C  12,H  18)          108.99 -0.000148    0.04    109.02   
    49. A(N   2,C  12,H  18)          109.38  0.000162   -0.03    109.35   
    50. A(H  14,C  12,H  16)          109.69  0.000073   -0.02    109.67   
    51. A(N   2,C  12,H  16)          109.43 -0.000143    0.02    109.45   
    52. A(N   2,C  12,H  14)          110.14  0.000058   -0.01    110.13   
[...]
     28       0.001412   0.020830  -0.017077   0.002230   0.001512   0.022177
     29      -0.021228  -0.256061   0.256527  -0.026621  -0.019060  -0.227579
     30       0.039861  -0.438542  -0.439369   0.043214  -0.030495   0.388594
     31      -0.001412   0.020829   0.017078  -0.002229   0.001514  -0.022176
     32      -0.021228   0.256048   0.256540  -0.026601   0.019088  -0.227565
     33      -0.005266   0.000776  -0.001240   0.065689   0.065899  -0.008404
     34       0.032187  -0.001584   0.003086   0.004163   0.004106  -0.001891
     35       0.012635  -0.000658   0.001450   0.013467   0.013387   0.000915
     36       0.005267   0.000776   0.001240  -0.065620   0.065967   0.008404
     37      -0.032191  -0.001583  -0.003086  -0.004159   0.004111   0.001891
     38       0.012636   0.000658   0.001450   0.013453  -0.013401   0.000914
     39       0.038088  -0.001443   0.003124   0.010792   0.010664   0.001205
     40       0.096196  -0.003525   0.007852   0.012498   0.012216   0.005623
     41      -0.315136   0.014199  -0.028958  -0.039776  -0.038558  -0.020344
     42      -0.038093  -0.001443  -0.003125  -0.010780   0.010675  -0.001205
     43      -0.096210  -0.003525  -0.007852  -0.012485   0.012229  -0.005623
     44      -0.315181  -0.014197  -0.028958  -0.039735   0.038599  -0.020342
     45      -0.342645   0.013228  -0.027397  -0.373708  -0.374146   0.052818
     46      -0.267859   0.011204  -0.022795  -0.300126  -0.300273   0.041166
     47       0.031824  -0.000976   0.001889   0.040609   0.040829  -0.006489
     48       0.342695   0.013225   0.027396   0.373318  -0.374536  -0.052815
     49       0.267898   0.011202   0.022795   0.299812  -0.300586  -0.041164
     50       0.031829   0.000975   0.001889   0.040567  -0.040871  -0.006488
     51       0.366487  -0.018817   0.036409  -0.416118  -0.417780   0.044504
     52      -0.204025   0.010935  -0.021267   0.239408   0.240329  -0.025224
     53       0.134953  -0.006503   0.012375  -0.158069  -0.158705   0.017502
     54      -0.366539  -0.018814  -0.036409   0.415682  -0.418213  -0.044503
     55       0.204054   0.010933   0.021267  -0.239157   0.240579   0.025224
     56       0.134973   0.006502   0.012375  -0.157903   0.158869   0.017502
     57      -0.000000  -0.000442   0.000000  -0.000000  -0.000299  -0.000000
     58      -0.000000  -0.001361  -0.000000   0.000000   0.000393  -0.000000
     59       0.020091  -0.000001   0.018393  -0.007423   0.000004   0.029099
                 54         55         56         57         58         59    
      0       0.000315   0.000000   0.000156  -0.000000  -0.000000  -0.000237
      1       0.000165   0.000000   0.000105   0.000000   0.000000   0.000066
      2       0.000000   0.031770  -0.000002   0.083462  -0.006244   0.000000
      3      -0.000386  -0.000143  -0.000113  -0.000032  -0.000380  -0.000281
      4      -0.000175   0.001509   0.000534   0.002151  -0.000269   0.000104
      5       0.000232  -0.000328   0.000101  -0.001621   0.000692   0.000531
      6      -0.000386   0.000143  -0.000113   0.000032   0.000380  -0.000281
      7      -0.000175  -0.001509   0.000534  -0.002151   0.000269   0.000104
      8      -0.000232  -0.000328  -0.000101  -0.001621   0.000692  -0.000531
      9       0.053804   0.003410   0.002764   0.002764   0.032884   0.039036
     10       0.037002   0.000640   0.000835  -0.002208  -0.055949  -0.053354
     11       0.014108   0.000111   0.000699  -0.001866  -0.014325  -0.011989
     12       0.053808  -0.003410   0.002764  -0.002764  -0.032879   0.039039
     13       0.037004  -0.000640   0.000834   0.002208   0.055943  -0.053360
     14      -0.014109   0.000111  -0.000699  -0.001866  -0.014324   0.011990
     15      -0.244407  -0.009768  -0.009235   0.002789   0.127139   0.104462
     16      -0.495179  -0.019474  -0.017985   0.003647   0.242177   0.193886
     17       0.021094   0.001805   0.001789  -0.000991  -0.008706  -0.008310
     18      -0.244422   0.009767  -0.009235  -0.002788  -0.127128   0.104476
     19      -0.495209   0.019473  -0.017986  -0.003645  -0.242156   0.193912
     20      -0.021096   0.001805  -0.001789  -0.000991  -0.008705   0.008311
     21      -0.022165  -0.012498  -0.007105  -0.025135  -0.378889  -0.379257
     22       0.035551   0.014050   0.007682   0.029836   0.434508   0.438029
     23       0.020715   0.008704   0.004989   0.017104   0.251931   0.253574
     24      -0.022169   0.012498  -0.007107   0.025134   0.378847  -0.379298
     25       0.035557  -0.014050   0.007685  -0.029834  -0.434460   0.438077
     26      -0.020718   0.008704  -0.004990   0.017103   0.251903  -0.253602
     27      -0.369379  -0.018605  -0.018602  -0.005797  -0.129746  -0.186604
     28       0.021745   0.000820   0.000916  -0.000033   0.001441  -0.000637
     29      -0.215224  -0.010417  -0.010734  -0.002675  -0.078642  -0.109112
     30      -0.369404   0.018603  -0.018603   0.005797   0.129725  -0.186619
     31       0.021747  -0.000820   0.000916   0.000033  -0.001441  -0.000637
     32       0.215238  -0.010416   0.010735  -0.002676  -0.078630   0.109121
     33      -0.006354   0.008379   0.009335  -0.004241  -0.000068  -0.000383
     34      -0.001879   0.033493   0.035344  -0.011417   0.000091  -0.000439
     35       0.001417  -0.053021  -0.056638   0.019827   0.000002   0.000890
     36      -0.006355  -0.008378   0.009335   0.004241   0.000068  -0.000383
     37      -0.001879  -0.033490   0.035346   0.011417  -0.000091  -0.000439
     38      -0.001417  -0.053016   0.056643   0.019827   0.000002  -0.000890
     39       0.001542  -0.067163  -0.071951   0.025639   0.000150   0.001259
     40       0.006279  -0.169894  -0.181953   0.064516   0.000026   0.003018
     41      -0.022502   0.549842   0.590383  -0.213097   0.001876  -0.008233
     42       0.001542   0.067157  -0.071957  -0.025640  -0.000150   0.001259
     43       0.006280   0.169878  -0.181968  -0.064517  -0.000026   0.003019
     44       0.022503   0.549790  -0.590431  -0.213099   0.001876   0.008234
     45       0.041221  -0.193893  -0.205666   0.069258   0.001691   0.005228
     46       0.031814  -0.149399  -0.157976   0.051844   0.001688   0.004246
     47      -0.005289   0.015126   0.016735  -0.007411   0.000362  -0.000128
     48       0.041224   0.193874  -0.205683  -0.069259  -0.001691   0.005229
     49       0.031817   0.149385  -0.157988  -0.051844  -0.001687   0.004246
     50       0.005289   0.015125  -0.016736  -0.007411   0.000361   0.000128
     51       0.030475   0.163575   0.169433  -0.047251   0.000776  -0.000591
     52      -0.017102  -0.086812  -0.089583   0.024324  -0.000558   0.000045
     53       0.012147   0.055264   0.057391  -0.016263   0.000831   0.000407
     54       0.030478  -0.163560   0.169448   0.047252  -0.000776  -0.000591
     55      -0.017104   0.086804  -0.089591  -0.024324   0.000558   0.000045
     56      -0.012149   0.055259  -0.057396  -0.016263   0.000831  -0.000407
     57       0.001613   0.000000  -0.000770   0.000000  -0.000000   0.000476
     58      -0.000345  -0.000000  -0.000469  -0.000000   0.000000   0.001101
     59      -0.000002  -0.349186   0.000017  -0.930824   0.061200  -0.000002


-----------
IR SPECTRUM
-----------

 Mode   freq       eps      Int      T**2         TX        TY        TZ
       cm**-1   L/(mol*cm) km/mol    a.u.
----------------------------------------------------------------------------
  6:     70.78   0.000008    0.04  0.000034  (-0.000000 -0.000000 -0.005863)
  7:    121.09   0.000417    2.11  0.001075  (-0.028390 -0.016397  0.000000)
  8:    136.21   0.000004    0.02  0.000009  (-0.000000 -0.000000 -0.003062)
  9:    181.90   0.000000    0.00  0.000000  (-0.000000 -0.000000 -0.000235)
 10:    196.50   0.000532    2.69  0.000845  (-0.025028 -0.014770 -0.000000)
 11:    244.59   0.000372    1.88  0.000475  ( 0.021692 -0.002104 -0.000000)
 12:    284.10   0.000001    0.00  0.000001  (-0.000000  0.000000  0.000836)
 13:    316.54   0.000263    1.33  0.000259  (-0.000000  0.000000  0.016091)
 14:    359.37   0.001837    9.28  0.001595  ( 0.037850 -0.012741  0.000000)
 15:    416.40   0.000007    0.03  0.000005  ( 0.000000  0.000000  0.002211)
 16:    445.21   0.007334   37.06  0.005141  (-0.063515  0.033265 -0.000000)
 17:    499.98   0.002306   11.65  0.001439  (-0.037807  0.003104 -0.000000)
 18:    628.03   0.000153    0.77  0.000076  (-0.000000 -0.000000 -0.008708)
 19:    893.09   0.001078    5.45  0.000377  (-0.000000 -0.000000  0.019412)
 20:    915.92   0.003653   18.46  0.001245  (-0.000660  0.035272  0.000000)
 21:   1011.82   0.003252   16.44  0.001003  (-0.011647  0.029451 -0.000000)
 22:   1088.68   0.003899   19.70  0.001117  (-0.000000  0.000001 -0.033429)
 23:   1089.15   0.000775    3.92  0.000222  ( 0.004526 -0.014200 -0.000003)
 24:   1112.42   0.001466    7.41  0.000411  (-0.000000  0.000000  0.020277)
 25:   1123.00   0.002280   11.52  0.000634  ( 0.012050 -0.022097  0.000000)
 26:   1128.38   0.000223    1.13  0.000062  ( 0.000000 -0.000000  0.007860)
 27:   1161.95   0.007756   39.20  0.002083  ( 0.002730  0.045558 -0.000000)
 28:   1166.82   0.000222    1.12  0.000059  (-0.000000  0.000000  0.007698)
 29:   1185.95   0.023376  118.13  0.006151  (-0.002762  0.078380  0.000000)
 30:   1246.08   0.000775    3.92  0.000194  (-0.007605  0.011673 -0.000000)
 31:   1344.22   0.008780   44.37  0.002038  (-0.000000  0.000000 -0.045147)
 32:   1431.68   0.008066   40.76  0.001758  (-0.003177 -0.041810 -0.000000)
 33:   1433.72   0.000000    0.00  0.000000  (-0.000001 -0.000003  0.000112)
 34:   1434.26   0.011816   59.71  0.002571  ( 0.018925  0.047040  0.000000)
 35:   1444.48   0.000542    2.74  0.000117  (-0.000000 -0.000001  0.010817)
 36:   1445.08   0.001169    5.91  0.000252  ( 0.004098  0.015349  0.000001)
 37:   1449.97   0.010995   55.57  0.002366  (-0.019913  0.044384  0.000000)
 38:   1456.81   0.007512   37.96  0.001609  (-0.039330 -0.007893  0.000000)
 39:   1457.29   0.000166    0.84  0.000036  ( 0.000001  0.000000  0.005970)
 40:   1465.46   0.000043    0.22  0.000009  ( 0.000000 -0.000000  0.003018)
 41:   1466.73   0.004339   21.93  0.000923  (-0.000000 -0.000000  0.030385)
 42:   1483.12   0.008226   41.57  0.001731  ( 0.041318 -0.004868  0.000000)
 43:   1489.24   0.001596    8.06  0.000334  ( 0.000000  0.000000 -0.018286)
 44:   1501.31   0.015482   78.24  0.003218  (-0.003207  0.056637  0.000000)
 45:   1573.25   0.008813   44.54  0.001748  (-0.000000 -0.000000  0.041811)
 46:   1798.60   0.228156  1153.01  0.039586  ( 0.003065 -0.198938 -0.000000)
 47:   3079.73   0.009608   48.56  0.000974  ( 0.003176 -0.031041 -0.000001)
 48:   3080.54   0.001640    8.29  0.000166  ( 0.000000 -0.000002  0.012889)
 49:   3091.19   0.002820   14.25  0.000285  ( 0.001772 -0.016781  0.000000)
 50:   3095.33   0.004073   20.58  0.000411  ( 0.000000 -0.000000 -0.020264)
 51:   3183.80   0.000065    0.33  0.000006  ( 0.000009  0.000002  0.002515)
 52:   3183.88   0.003034   15.33  0.000297  ( 0.016890  0.003476 -0.000001)
 53:   3194.33   0.000036    0.18  0.000004  ( 0.000000  0.000000  0.001881)
 54:   3196.71   0.001199    6.06  0.000117  ( 0.009198  0.005694 -0.000000)
 55:   3216.43   0.000811    4.10  0.000079  ( 0.000000  0.000000 -0.008870)
 56:   3218.05   0.000792    4.00  0.000077  ( 0.002280  0.008460  0.000000)
 57:   3230.30   0.000052    0.26  0.000005  ( 0.000000  0.000000 -0.002235)
 58:   3237.50   0.000018    0.09  0.000002  ( 0.000000 -0.000000 -0.001319)
 59:   3238.34   0.000496    2.50  0.000048  ( 0.005795 -0.003765  0.000000)

* The epsilon (eps) is given for a Dirac delta lineshape.
** The dipole moment derivative (T) already includes vibrational overlap.

The first frequency considered to be a vibration is 6
The total number of vibrations considered is 54


--------------------------
THERMOCHEMISTRY AT 298.15K
--------------------------

Temperature         ... 298.15 K
Pressure            ... 1.00 atm
Total Mass          ... 101.17 AMU

Throughout the following assumptions are being made:
  (1) The electronic state is orbitally nondegenerate
  (2) There are no thermally accessible electronically excited states
  (3) Hindered rotations indicated by low frequency modes are not
      treated as such but are treated as vibrations and this may
      cause some error
  (4) All equations used are the standard statistical mechanics
      equations for an ideal gas
  (5) All vibrations are strictly harmonic

freq.      70.78  E(vib)   ...       0.50 
freq.     121.09  E(vib)   ...       0.44 
freq.     136.21  E(vib)   ...       0.42 
freq.     181.90  E(vib)   ...       0.37 
freq.     196.50  E(vib)   ...       0.36 
freq.     244.59  E(vib)   ...       0.31 
freq.     284.10  E(vib)   ...       0.28 
freq.     316.54  E(vib)   ...       0.25 
freq.     359.37  E(vib)   ...       0.22 
freq.     416.40  E(vib)   ...       0.18 
freq.     445.21  E(vib)   ...       0.17 
freq.     499.98  E(vib)   ...       0.14 
freq.     628.03  E(vib)   ...       0.09 
freq.     893.09  E(vib)   ...       0.03 
freq.     915.92  E(vib)   ...       0.03 
freq.    1011.82  E(vib)   ...       0.02 
freq.    1088.68  E(vib)   ...       0.02 
freq.    1089.15  E(vib)   ...       0.02 
freq.    1112.42  E(vib)   ...       0.01 
freq.    1123.00  E(vib)   ...       0.01 
freq.    1128.38  E(vib)   ...       0.01 
freq.    1161.95  E(vib)   ...       0.01 
freq.    1166.82  E(vib)   ...       0.01 
freq.    1185.95  E(vib)   ...       0.01 
freq.    1246.08  E(vib)   ...       0.01 
freq.    1344.22  E(vib)   ...       0.01 
freq.    1431.68  E(vib)   ...       0.00 
freq.    1433.72  E(vib)   ...       0.00 
freq.    1434.26  E(vib)   ...       0.00 
freq.    1444.48  E(vib)   ...       0.00 
freq.    1445.08  E(vib)   ...       0.00 
freq.    1449.97  E(vib)   ...       0.00 
freq.    1456.81  E(vib)   ...       0.00 
freq.    1457.29  E(vib)   ...       0.00 
freq.    1465.46  E(vib)   ...       0.00 
freq.    1466.73  E(vib)   ...       0.00 
freq.    1483.12  E(vib)   ...       0.00 
freq.    1489.24  E(vib)   ...       0.00 
freq.    1501.31  E(vib)   ...       0.00 
freq.    1573.25  E(vib)   ...       0.00 
freq.    1798.60  E(vib)   ...       0.00 
freq.    3079.73  E(vib)   ...       0.00 
freq.    3080.54  E(vib)   ...       0.00 
freq.    3091.19  E(vib)   ...       0.00 
freq.    3095.33  E(vib)   ...       0.00 
freq.    3183.80  E(vib)   ...       0.00 
freq.    3183.88  E(vib)   ...       0.00 
freq.    3194.33  E(vib)   ...       0.00 
freq.    3196.71  E(vib)   ...       0.00 
freq.    3216.43  E(vib)   ...       0.00 
freq.    3218.05  E(vib)   ...       0.00 
freq.    3230.30  E(vib)   ...       0.00 
freq.    3237.50  E(vib)   ...       0.00 
freq.    3238.34  E(vib)   ...       0.00 

------------
INNER ENERGY
------------

The inner energy is: U= E(el) + E(ZPE) + E(vib) + E(rot) + E(trans)
    E(el)   - is the total energy from the electronic structure calculation
              = E(kin-el) + E(nuc-el) + E(el-el) + E(nuc-nuc)
    E(ZPE)  - the the zero temperature vibrational energy from the frequency calculation
    E(vib)  - the the finite temperature correction to E(ZPE) due to population
              of excited vibrational states
    E(rot)  - is the rotational thermal energy
    E(trans)- is the translational thermal energy

Summary of contributions to the inner energy U:
Electronic energy                ...   -307.41193327 Eh
Zero point energy                ...      0.18668519 Eh     117.15 kcal/mol
Thermal vibrational correction   ...      0.00635058 Eh       3.99 kcal/mol
Thermal rotational correction    ...      0.00141627 Eh       0.89 kcal/mol
Thermal translational correction ...      0.00141627 Eh       0.89 kcal/mol
-----------------------------------------------------------------------
Total thermal energy                   -307.21606495 Eh


Summary of corrections to the electronic energy:
(perhaps to be used in another calculation)
Total thermal correction                  0.00918313 Eh       5.76 kcal/mol
Non-thermal (ZPE) correction              0.18668519 Eh     117.15 kcal/mol
-----------------------------------------------------------------------
Total correction                          0.19586832 Eh     122.91 kcal/mol


--------
ENTHALPY
--------

The enthalpy is H = U + kB*T
                kB is Boltzmann's constant
Total free energy                 ...   -307.21606495 Eh 
Thermal Enthalpy correction       ...      0.00094421 Eh       0.59 kcal/mol
-----------------------------------------------------------------------
Total Enthalpy                    ...   -307.21512074 Eh


Note: Rotational entropy computed according to Herzberg 
Infrared and Raman Spectra, Chapter V,1, Van Nostrand Reinhold, 1945 
Point Group:  C2, Symmetry Number:   2  
Rotational constants in cm-1:     0.155292     0.056269     0.043388 

Vibrational entropy computed according to the QRRHO of S. Grimme
Chem.Eur.J. 2012 18 9955


-------
ENTROPY
-------

The entropy contributions are T*S = T*(S(el)+S(vib)+S(rot)+S(trans))
     S(el)   - electronic entropy
     S(vib)  - vibrational entropy
     S(rot)  - rotational entropy
     S(trans)- translational entropy
The entropies will be listed as multiplied by the temperature to get
units of energy

Electronic entropy                ...      0.00000000 Eh      0.00 kcal/mol
Vibrational entropy               ...      0.01101427 Eh      6.91 kcal/mol
Rotational entropy                ...      0.01257532 Eh      7.89 kcal/mol
Translational entropy             ...      0.01888776 Eh     11.85 kcal/mol
-----------------------------------------------------------------------
Final entropy term                ...      0.04247735 Eh     26.65 kcal/mol

In case the symmetry of your molecule has not been determined correctly
or in case you have a reason to use a different symmetry number we print 
out the resulting rotational entropy values for sn=1,12 :
 --------------------------------------------------------
|  sn= 1 | S(rot)=       0.01322977 Eh      8.30 kcal/mol|
|  sn= 2 | S(rot)=       0.01257532 Eh      7.89 kcal/mol|
|  sn= 3 | S(rot)=       0.01219248 Eh      7.65 kcal/mol|
|  sn= 4 | S(rot)=       0.01192086 Eh      7.48 kcal/mol|
|  sn= 5 | S(rot)=       0.01171017 Eh      7.35 kcal/mol|
|  sn= 6 | S(rot)=       0.01153803 Eh      7.24 kcal/mol|
|  sn= 7 | S(rot)=       0.01139248 Eh      7.15 kcal/mol|
|  sn= 8 | S(rot)=       0.01126640 Eh      7.07 kcal/mol|
|  sn= 9 | S(rot)=       0.01115519 Eh      7.00 kcal/mol|
|  sn=10 | S(rot)=       0.01105571 Eh      6.94 kcal/mol|
|  sn=11 | S(rot)=       0.01096572 Eh      6.88 kcal/mol|
|  sn=12 | S(rot)=       0.01088357 Eh      6.83 kcal/mol|
 --------------------------------------------------------


-------------------
GIBBS FREE ENERGY
-------------------

The Gibbs free energy is G = H - T*S

Total enthalpy                    ...   -307.21512074 Eh 
Total entropy correction          ...     -0.04247735 Eh    -26.65 kcal/mol
-----------------------------------------------------------------------
Final Gibbs free energy         ...   -307.25759809 Eh

For completeness - the Gibbs free energy minus the electronic energy
G-E(el)                           ...      0.15433518 Eh     96.85 kcal/mol


Timings for individual modules:

Sum of individual times         ...      460.760 sec (=   7.679 min)
GTO integral calculation        ...        6.847 sec (=   0.114 min)   1.5 %
SCF iterations                  ...      223.263 sec (=   3.721 min)  48.5 %
SCF Gradient evaluation         ...       59.429 sec (=   0.990 min)  12.9 %
Geometry relaxation             ...        0.303 sec (=   0.005 min)   0.1 %
Analytical frequency calculation...      170.917 sec (=   2.849 min)  37.1 %
                             ****ORCA TERMINATED NORMALLY****
TOTAL RUN TIME: 0 days 0 hours 7 minutes 43 seconds 446 msec
