
                                 *****************
                                 * O   R   C   A *
                                 *****************

                                            #,                                       
                                            ###                                      
                                            ####                                     
                                            #####                                    
                                            ######                                   
                                           ########,                                 
                                     ,,################,,,,,                         
                               ,,#################################,,                 
                          ,,##########################################,,             
                       ,#########################################, ''#####,          
                    ,#############################################,,   '####,        
                  ,##################################################,,,,####,       
                ,###########''''           ''''###############################       
              ,#####''   ,,,,##########,,,,          '''####'''          '####       
            ,##' ,,,,###########################,,,                        '##       
           ' ,,###''''                  '''############,,,                           
         ,,##''                                '''############,,,,        ,,,,,,###''
      ,#''                                            '''#######################'''  
     '                                                          ''''####''''         
             ,#######,   #######,   ,#######,      ##                                
            ,#'     '#,  ##    ##  ,#'     '#,    #''#        ######   ,####,        
            ##       ##  ##   ,#'  ##            #'  '#       #        #'  '#        
            ##       ##  #######   ##           ,######,      #####,   #    #        
            '#,     ,#'  ##    ##  '#,     ,#' ,#      #,         ##   #,  ,#        
             '#######'   ##     ##  '#######'  #'      '#     #####' # '####'        



                  #######################################################
                  #                        -***-                        #
                  #          Department of theory and spectroscopy      #
                  #    Directorship and core code : Frank Neese         #
                  #        Max Planck Institute fuer Kohlenforschung    #
                  #                Kaiser Wilhelm Platz 1               #
                  #                 D-45470 Muelheim/Ruhr               #
                  #                      Germany                        #
                  #                                                     #
                  #                  All rights reserved                #
                  #                        -***-                        #
                  #######################################################


                         Program Version 5.0.3 -  RELEASE  -


 With contributions from (in alphabetic order):
   Daniel Aravena         : Magnetic Suceptibility
   Michael Atanasov       : Ab Initio Ligand Field Theory (pilot matlab implementation)
   Alexander A. Auer      : GIAO ZORA, VPT2 properties, NMR spectrum
   Ute Becker             : Parallelization
   Giovanni Bistoni       : ED, misc. LED, open-shell LED, HFLD
   Martin Brehm           : Molecular dynamics
   Dmytro Bykov           : SCF Hessian
   Vijay G. Chilkuri      : MRCI spin determinant printing, contributions to CSF-ICE
   Dipayan Datta          : RHF DLPNO-CCSD density
   Achintya Kumar Dutta   : EOM-CC, STEOM-CC
   Dmitry Ganyushin       : Spin-Orbit,Spin-Spin,Magnetic field MRCI
   Miquel Garcia          : C-PCM and meta-GGA Hessian, CC/C-PCM, Gaussian charge scheme
   Yang Guo               : DLPNO-NEVPT2, F12-NEVPT2, CIM, IAO-localization
   Andreas Hansen         : Spin unrestricted coupled pair/coupled cluster methods
   Benjamin Helmich-Paris : MC-RPA, TRAH-SCF, COSX integrals
   Lee Huntington         : MR-EOM, pCC
   Robert Izsak           : Overlap fitted RIJCOSX, COSX-SCS-MP3, EOM
   Marcus Kettner         : VPT2
   Christian Kollmar      : KDIIS, OOCD, Brueckner-CCSD(T), CCSD density, CASPT2, CASPT2-K
   Simone Kossmann        : Meta GGA functionals, TD-DFT gradient, OOMP2, MP2 Hessian
   Martin Krupicka        : Initial AUTO-CI
   Lucas Lang             : DCDCAS
   Marvin Lechner         : AUTO-CI (C++ implementation), FIC-MRCC
   Dagmar Lenk            : GEPOL surface, SMD
   Dimitrios Liakos       : Extrapolation schemes; Compound Job, initial MDCI parallelization
   Dimitrios Manganas     : Further ROCIS development; embedding schemes
   Dimitrios Pantazis     : SARC Basis sets
   Anastasios Papadopoulos: AUTO-CI, single reference methods and gradients
   Taras Petrenko         : DFT Hessian,TD-DFT gradient, ASA, ECA, R-Raman, ABS, FL, XAS/XES, NRVS
   Peter Pinski           : DLPNO-MP2, DLPNO-MP2 Gradient
   Christoph Reimann      : Effective Core Potentials
   Marius Retegan         : Local ZFS, SOC
   Christoph Riplinger    : Optimizer, TS searches, QM/MM, DLPNO-CCSD(T), (RO)-DLPNO pert. Triples
   Tobias Risthaus        : Range-separated hybrids, TD-DFT gradient, RPA, STAB
   Michael Roemelt        : Original ROCIS implementation
   Masaaki Saitow         : Open-shell DLPNO-CCSD energy and density
   Barbara Sandhoefer     : DKH picture change effects
   Avijit Sen             : IP-ROCIS
   Kantharuban Sivalingam : CASSCF convergence, NEVPT2, FIC-MRCI
   Bernardo de Souza      : ESD, SOC TD-DFT
   Georgi Stoychev        : AutoAux, RI-MP2 NMR, DLPNO-MP2 response
   Willem Van den Heuvel  : Paramagnetic NMR
   Boris Wezisla          : Elementary symmetry handling
   Frank Wennmohs         : Technical directorship


 We gratefully acknowledge several colleagues who have allowed us to
 interface, adapt or use parts of their codes:
   Stefan Grimme, W. Hujo, H. Kruse, P. Pracht,  : VdW corrections, initial TS optimization,
                  C. Bannwarth, S. Ehlert          DFT functionals, gCP, sTDA/sTD-DF
   Ed Valeev, F. Pavosevic, A. Kumar             : LibInt (2-el integral package), F12 methods
   Garnet Chan, S. Sharma, J. Yang, R. Olivares  : DMRG
   Ulf Ekstrom                                   : XCFun DFT Library
   Mihaly Kallay                                 : mrcc  (arbitrary order and MRCC methods)
   Jiri Pittner, Ondrej Demel                    : Mk-CCSD
   Frank Weinhold                                : gennbo (NPA and NBO analysis)
   Christopher J. Cramer and Donald G. Truhlar   : smd solvation model
   Lars Goerigk                                  : TD-DFT with DH, B97 family of functionals
   V. Asgeirsson, H. Jonsson                     : NEB implementation
   FAccTs GmbH                                   : IRC, NEB, NEB-TS, DLPNO-Multilevel, CI-OPT
                                                   MM, QMMM, 2- and 3-layer-ONIOM, Crystal-QMMM,
                                                   LR-CPCM, SF, NACMEs, symmetry and pop. for TD-DFT,
                                                   nearIR, NL-DFT gradient (VV10), updates on ESD,
                                                   ML-optimized integration grids
   S Lehtola, MJT Oliveira, MAL Marques          : LibXC Library
   Liviu Ungur et al                             : ANISO software


 Your calculation uses the libint2 library for the computation of 2-el integrals
 For citations please refer to: http://libint.valeyev.net

 Your ORCA version has been built with support for libXC version: 5.1.0
 For citations please refer to: https://tddft.org/programs/libxc/

 This ORCA versions uses:
   CBLAS   interface :  Fast vector & matrix operations
   LAPACKE interface :  Fast linear algebra routines
   SCALAPACK package :  Parallel linear algebra routines
   Shared memory     :  Shared parallel matrices
   BLAS/LAPACK       :  OpenBLAS 0.3.15  USE64BITINT DYNAMIC_ARCH NO_AFFINITY SkylakeX SINGLE_THREADED
        Core in use  :  SkylakeX
   Copyright (c) 2011-2014, The OpenBLAS Project




***************************************
The coordinates will be read from file: MeMe.xyz
***************************************


Your calculation utilizes the atom-pairwise dispersion correction
based on tight binding partial charges (D4)
Cite in your paper:
E.Caldeweyher, C.Bannwarth, S.Grimme, J.Chem.Phys., (2017), 147, 034112.
E.Caldeweyher, S.Ehlert, A.Hansen, H.Neugebauer, S.Grimme, J.Chem.Phys., (2018), in progress.
   

XCFun DFT library Copyright 2009-2010 Ulf Ekstrom and contributors.
See http://admol.org/xcfun for more information.
This is free software; see the source code for copying conditions.
There is ABSOLUTELY NO WARRANTY; not even for MERCHANTABILITY or FITNESS FOR A PARTICULAR PURPOSE.
For details see the documentation.
Scientific users of this library should cite U. Ekstrom, L. Visscher, R. Bast, A. J. Thorvaldsen and K. Ruud;
J.Chem.Theor.Comp. 2010, DOI: 10.1021/ct100117s
XCFun Version 0.99 

================================================================================

----- Orbital basis set information -----
Your calculation utilizes the basis: def2-SVP
   F. Weigend and R. Ahlrichs, Phys. Chem. Chem. Phys. 7, 3297 (2005).

----- AuxJ basis set information -----
Your calculation utilizes the auxiliary basis: def2/J
   F. Weigend, Phys. Chem. Chem. Phys. 8, 1057 (2006).

================================================================================
                                        WARNINGS
                       Please study these warnings very carefully!
================================================================================

WARNING: Old DensityContainer found on disk!
         Will remove this file - 
         If you want to keep old densities, please start your calculation with a different basename. 


WARNING: Geometry Optimization
  ===> : Switching off AutoStart
         For restart on a previous wavefunction, please use MOREAD

INFO   : the flag for use of the SHARK integral package has been found!

================================================================================
                                       INPUT FILE
================================================================================
NAME = MeMe_water.inp
|  1> # ORCAForces - ../2023_02/pKa_prediction/Yates_carbene_xyzs/Water/MeMe_water.inp
|  2> # Basic Mode
|  3> #
|  4> ! Opt FREQ wB97X D4 Def2-SVP SlowConv TightSCF DEFGRID2 Def2/J RIJCOSX CPCM(Water)
|  5> 
|  6> %maxcore 4500
|  7> 
|  8> %PAL NPROCS 4 END
|  9> 
| 10> %geom 
| 11> Maxiter 150
| 12> END
| 13> 
| 14> * xyzfile 1 1 MeMe.xyz
| 15> 
| 16>                          ****END OF INPUT****
================================================================================

                       *****************************
                       * Geometry Optimization Run *
                       *****************************

Geometry optimization settings:
Update method            Update   .... BFGS
Choice of coordinates    CoordSys .... Z-matrix Internals
Initial Hessian          InHess   .... Almoef's Model

Convergence Tolerances:
Energy Change            TolE     ....  5.0000e-06 Eh
Max. Gradient            TolMAXG  ....  3.0000e-04 Eh/bohr
RMS Gradient             TolRMSG  ....  1.0000e-04 Eh/bohr
Max. Displacement        TolMAXD  ....  4.0000e-03 bohr
RMS Displacement         TolRMSD  ....  2.0000e-03 bohr
Strict Convergence                ....  False
------------------------------------------------------------------------------
                        ORCA OPTIMIZATION COORDINATE SETUP
------------------------------------------------------------------------------

The optimization will be done in new redundant internal coordinates
Making redundant internal coordinates   ...  (new redundants) done
Evaluating the initial hessian          ...  (Almloef) done
Evaluating the coordinates              ...  done
Calculating the B-matrix                .... done
Calculating the G-matrix                .... done
Diagonalizing the G-matrix              .... done
The first mode is                       ....   45
The number of degrees of freedom        ....   60

    -----------------------------------------------------------------
                    Redundant Internal Coordinates


    -----------------------------------------------------------------
         Definition                    Initial Value    Approx d2E/dq
    -----------------------------------------------------------------
      1. B(C   1,C   0)                  1.3720         0.667483   
      2. B(N   2,C   0)                  1.3936         0.552296   
      3. B(N   3,C   1)                  1.3936         0.552296   
      4. B(C   4,N   3)                  1.3344         0.686371   
      5. B(C   4,N   2)                  1.3344         0.686371   
      6. B(C   5,N   2)                  1.4672         0.421394   
      7. B(C   6,N   3)                  1.4672         0.421394   
      8. B(H   7,C   5)                  1.0898         0.360326   
      9. B(H   8,C   6)                  1.0898         0.360326   
     10. B(H   9,C   6)                  1.0898         0.360326   
     11. B(H  10,C   5)                  1.0898         0.360326   
     12. B(H  11,C   5)                  1.0881         0.362610   
     13. B(H  12,C   6)                  1.0881         0.362610   
     14. B(H  13,C   4)                  1.0770         0.377665   
     15. B(C  14,C   0)                  1.4899         0.432943   
     16. B(C  15,C   1)                  1.4899         0.432943   
     17. B(H  16,C  14)                  1.0937         0.355241   
     18. B(H  17,C  15)                  1.0937         0.355241   
     19. B(H  18,C  15)                  1.0937         0.355241   
     20. B(H  19,C  14)                  1.0937         0.355241   
     21. B(H  20,C  14)                  1.0889         0.361535   
     22. B(H  21,C  15)                  1.0889         0.361535   
     23. A(C   1,C   0,C  14)          131.0853         0.412487   
     24. A(N   2,C   0,C  14)          122.2915         0.396360   
     25. A(C   1,C   0,N   2)          106.6232         0.428001   
     26. A(N   3,C   1,C  15)          122.2915         0.396360   
     27. A(C   0,C   1,C  15)          131.0853         0.412487   
     28. A(C   0,C   1,N   3)          106.6232         0.428001   
     29. A(C   0,N   2,C   5)          125.8096         0.391971   
     30. A(C   4,N   2,C   5)          125.1885         0.407247   
     31. A(C   0,N   2,C   4)          109.0019         0.427342   
     32. A(C   4,N   3,C   6)          125.1885         0.407247   
     33. A(C   1,N   3,C   4)          109.0019         0.427342   
     34. A(C   1,N   3,C   6)          125.8096         0.391971   
     35. A(N   3,C   4,H  13)          125.6251         0.359735   
     36. A(N   2,C   4,H  13)          125.6251         0.359735   
     37. A(N   2,C   4,N   3)          108.7498         0.444401   
     38. A(H   7,C   5,H  10)          109.7385         0.290897   
     39. A(N   2,C   5,H  10)          109.8323         0.328867   
     40. A(N   2,C   5,H   7)          109.8323         0.328867   
     41. A(H  10,C   5,H  11)          109.2584         0.291186   
     42. A(H   7,C   5,H  11)          109.2584         0.291186   
     43. A(N   2,C   5,H  11)          108.9012         0.329210   
     44. A(H   8,C   6,H   9)          109.7385         0.290897   
     45. A(N   3,C   6,H   9)          109.8323         0.328867   
     46. A(N   3,C   6,H   8)          109.8323         0.328867   
     47. A(H   9,C   6,H  12)          109.2584         0.291186   
     48. A(H   8,C   6,H  12)          109.2584         0.291186   
     49. A(N   3,C   6,H  12)          108.9012         0.329210   
     50. A(C   0,C  14,H  16)          111.5856         0.331560   
     51. A(H  19,C  14,H  20)          107.6187         0.290401   
     52. A(H  16,C  14,H  20)          107.6187         0.290401   
     53. A(C   0,C  14,H  20)          110.2511         0.332526   
     54. A(H  16,C  14,H  19)          108.0071         0.289602   
     55. A(C   0,C  14,H  19)          111.5856         0.331560   
     56. A(H  17,C  15,H  18)          108.0071         0.289602   
     57. A(C   1,C  15,H  18)          111.5856         0.331560   
     58. A(C   1,C  15,H  17)          111.5856         0.331560   
     59. A(H  18,C  15,H  21)          107.6187         0.290401   
     60. A(H  17,C  15,H  21)          107.6187         0.290401   
     61. A(C   1,C  15,H  21)          110.2511         0.332526   
     62. D(N   3,C   1,C   0,N   2)      0.0000         0.031141   
     63. D(C  15,C   1,C   0,N   2)    180.0000         0.031141   
     64. D(N   3,C   1,C   0,C  14)    180.0000         0.031141   
     65. D(C  15,C   1,C   0,C  14)      0.0000         0.031141   
     66. D(C   5,N   2,C   0,C  14)      0.0000         0.024323   
     67. D(C   5,N   2,C   0,C   1)    180.0000         0.024323   
     68. D(C   4,N   2,C   0,C  14)    180.0000         0.024323   
     69. D(C   4,N   2,C   0,C   1)      0.0000         0.024323   
     70. D(C   6,N   3,C   1,C  15)      0.0000         0.024323   
     71. D(C   4,N   3,C   1,C  15)    180.0000         0.024323   
     72. D(C   4,N   3,C   1,C   0)      0.0000         0.024323   
     73. D(C   6,N   3,C   1,C   0)    180.0000         0.024323   
     74. D(H  13,C   4,N   2,C   0)    180.0000         0.038834   
     75. D(N   3,C   4,N   2,C   5)    180.0000         0.038834   
     76. D(N   3,C   4,N   2,C   0)      0.0000         0.038834   
     77. D(H  13,C   4,N   3,C   6)      0.0000         0.038834   
     78. D(N   2,C   4,N   3,C   6)    180.0000         0.038834   
     79. D(N   2,C   4,N   3,C   1)      0.0000         0.038834   
     80. D(H  13,C   4,N   2,C   5)      0.0000         0.038834   
     81. D(H  13,C   4,N   3,C   1)    180.0000         0.038834   
     82. D(H  11,C   5,N   2,C   4)      0.0000         0.015141   
     83. D(H  11,C   5,N   2,C   0)    180.0000         0.015141   
     84. D(H  10,C   5,N   2,C   4)    119.6103         0.015141   
     85. D(H  10,C   5,N   2,C   0)    -60.3897         0.015141   
     86. D(H   7,C   5,N   2,C   4)   -119.6103         0.015141   
     87. D(H   7,C   5,N   2,C   0)     60.3897         0.015141   
     88. D(H   9,C   6,N   3,C   4)   -119.6103         0.015141   
     89. D(H   9,C   6,N   3,C   1)     60.3897         0.015141   
     90. D(H   8,C   6,N   3,C   4)    119.6103         0.015141   
     91. D(H  12,C   6,N   3,C   1)    180.0000         0.015141   
     92. D(H   8,C   6,N   3,C   1)    -60.3897         0.015141   
     93. D(H  12,C   6,N   3,C   4)      0.0000         0.015141   
     94. D(H  20,C  14,C   0,N   2)    180.0000         0.013839   
     95. D(H  20,C  14,C   0,C   1)      0.0000         0.013839   
     96. D(H  19,C  14,C   0,N   2)    -60.4670         0.013839   
     97. D(H  19,C  14,C   0,C   1)    119.5330         0.013839   
     98. D(H  16,C  14,C   0,N   2)     60.4670         0.013839   
     99. D(H  16,C  14,C   0,C   1)   -119.5330         0.013839   
    100. D(H  21,C  15,C   1,N   3)    180.0000         0.013839   
    101. D(H  21,C  15,C   1,C   0)      0.0000         0.013839   
    102. D(H  18,C  15,C   1,N   3)     60.4670         0.013839   
    103. D(H  18,C  15,C   1,C   0)   -119.5330         0.013839   
    104. D(H  17,C  15,C   1,N   3)    -60.4670         0.013839   
    105. D(H  17,C  15,C   1,C   0)    119.5330         0.013839   
    -----------------------------------------------------------------

Number of atoms                         .... 22
Number of degrees of freedom            .... 105

         *************************************************************
         *                GEOMETRY OPTIMIZATION CYCLE   1            *
         *************************************************************
---------------------------------
CARTESIAN COORDINATES (ANGSTROEM)
---------------------------------
  C      0.000000    0.686005   -0.666733
  C      0.000000   -0.686005   -0.666733
  N      0.000000    1.084673    0.668600
  N      0.000000   -1.084673    0.668600
  C      0.000000    0.000000    1.445868
  C      0.000000    2.470388    1.150789
  C      0.000000   -2.470388    1.150789
  H     -0.891307    2.986067    0.793894
  H     -0.891307   -2.986067    0.793894
  H      0.891307   -2.986067    0.793894
  H      0.891307    2.986067    0.793894
  H      0.000000    2.464972    2.238885
  H      0.000000   -2.464972    2.238885
  H      0.000000    0.000000    2.522904
  C      0.000000    1.665109   -1.789682
  C      0.000000   -1.665109   -1.789682
  H      0.884860    2.307381   -1.763508
  H      0.884860   -2.307381   -1.763508
  H     -0.884860   -2.307381   -1.763508
  H     -0.884860    2.307381   -1.763508
  H      0.000000    1.142793   -2.745154
  H      0.000000   -1.142793   -2.745154

----------------------------
CARTESIAN COORDINATES (A.U.)
----------------------------
  NO LB      ZA    FRAG     MASS         X           Y           Z
   0 C     6.0000    0    12.011    0.000000    1.296362   -1.259943
   1 C     6.0000    0    12.011    0.000000   -1.296362   -1.259943
   2 N     7.0000    0    14.007    0.000000    2.049735    1.263471
   3 N     7.0000    0    14.007    0.000000   -2.049735    1.263471
   4 C     6.0000    0    12.011    0.000000    0.000000    2.732295
   5 C     6.0000    0    12.011    0.000000    4.668357    2.174676
   6 C     6.0000    0    12.011    0.000000   -4.668357    2.174676
   7 H     1.0000    0     1.008   -1.684326    5.642849    1.500242
   8 H     1.0000    0     1.008   -1.684326   -5.642849    1.500242
   9 H     1.0000    0     1.008    1.684326   -5.642849    1.500242
  10 H     1.0000    0     1.008    1.684326    5.642849    1.500242
  11 H     1.0000    0     1.008    0.000000    4.658122    4.230879
  12 H     1.0000    0     1.008    0.000000   -4.658122    4.230879
  13 H     1.0000    0     1.008    0.000000    0.000000    4.767598
  14 C     6.0000    0    12.011    0.000000    3.146600   -3.382009
  15 C     6.0000    0    12.011    0.000000   -3.146600   -3.382009
  16 H     1.0000    0     1.008    1.672143    4.360318   -3.332547
  17 H     1.0000    0     1.008    1.672143   -4.360318   -3.332547
  18 H     1.0000    0     1.008   -1.672143   -4.360318   -3.332547
  19 H     1.0000    0     1.008   -1.672143    4.360318   -3.332547
  20 H     1.0000    0     1.008    0.000000    2.159566   -5.187589
  21 H     1.0000    0     1.008    0.000000   -2.159566   -5.187589

--------------------------------
INTERNAL COORDINATES (ANGSTROEM)
--------------------------------
 C      0   0   0     0.000000000000     0.00000000     0.00000000
 C      1   0   0     1.372010000000     0.00000000     0.00000000
 N      1   2   0     1.393574682288   106.62316539     0.00000000
 N      2   1   3     1.393574682288   106.62316539     0.00000000
 C      3   1   2     1.334414126406   109.00191559     0.00000000
 C      3   1   2     1.467212422571   125.80959338   180.00000000
 C      4   2   1     1.467212422571   125.80959338   180.00000000
 H      6   3   1     1.089828904147   109.83229003    60.38967802
 H      7   4   2     1.089828904147   109.83229003   299.61032198
 H      7   4   2     1.089828904147   109.83229003    60.38967802
 H      6   3   1     1.089828904147   109.83229003   299.61032198
 H      6   3   1     1.088109478992   108.90124049   180.00000000
 H      7   4   2     1.088109478992   108.90124049   180.00000000
 H      5   3   1     1.077036000000   125.62508098   180.00000000
 C      1   2   3     1.489852039438   131.08531147   180.00000000
 C      2   1   3     1.489852039438   131.08531147   180.00000000
 H     15   1   2     1.093698139278   111.58559388   240.46703553
 H     16   2   1     1.093698139278   111.58559388   119.53296447
 H     16   2   1     1.093698139278   111.58559388   240.46703553
 H     15   1   2     1.093698139278   111.58559388   119.53296447
 H     15   1   2     1.088917235900   110.25113278     0.00000000
 H     16   2   1     1.088917235900   110.25113278     0.00000000

---------------------------
INTERNAL COORDINATES (A.U.)
---------------------------
 C      0   0   0     0.000000000000     0.00000000     0.00000000
 C      1   0   0     2.592723153001     0.00000000     0.00000000
 N      1   2   0     2.633474496690   106.62316539     0.00000000
 N      2   1   3     2.633474496690   106.62316539     0.00000000
 C      3   1   2     2.521677248144   109.00191559     0.00000000
 C      3   1   2     2.772629658946   125.80959338   180.00000000
 C      4   2   1     2.772629658946   125.80959338   180.00000000
 H      6   3   1     2.059478161670   109.83229003    60.38967802
 H      7   4   2     2.059478161670   109.83229003   299.61032198
 H      7   4   2     2.059478161670   109.83229003    60.38967802
 H      6   3   1     2.059478161670   109.83229003   299.61032198
 H      6   3   1     2.056228919018   108.90124049   180.00000000
 H      7   4   2     2.056228919018   108.90124049   180.00000000
 H      5   3   1     2.035303076374   125.62508098   180.00000000
 C      1   2   3     2.815412334602   131.08531147   180.00000000
 C      2   1   3     2.815412334602   131.08531147   180.00000000
 H     15   1   2     2.066789956415   111.58559388   240.46703553
 H     16   2   1     2.066789956415   111.58559388   119.53296447
 H     16   2   1     2.066789956415   111.58559388   240.46703553
 H     15   1   2     2.066789956415   111.58559388   119.53296447
 H     15   1   2     2.057755358357   110.25113278     0.00000000
 H     16   2   1     2.057755358357   110.25113278     0.00000000

---------------------
BASIS SET INFORMATION
---------------------
There are 3 groups of distinct atoms

 Group   1 Type C   : 7s4p1d contracted to 3s2p1d pattern {511/31/1}
 Group   2 Type N   : 7s4p1d contracted to 3s2p1d pattern {511/31/1}
 Group   3 Type H   : 4s1p contracted to 2s1p pattern {31/1}

Atom   0C    basis set group =>   1
Atom   1C    basis set group =>   1
Atom   2N    basis set group =>   2
Atom   3N    basis set group =>   2
Atom   4C    basis set group =>   1
Atom   5C    basis set group =>   1
Atom   6C    basis set group =>   1
Atom   7H    basis set group =>   3
Atom   8H    basis set group =>   3
Atom   9H    basis set group =>   3
Atom  10H    basis set group =>   3
Atom  11H    basis set group =>   3
Atom  12H    basis set group =>   3
Atom  13H    basis set group =>   3
Atom  14C    basis set group =>   1
Atom  15C    basis set group =>   1
Atom  16H    basis set group =>   3
Atom  17H    basis set group =>   3
Atom  18H    basis set group =>   3
Atom  19H    basis set group =>   3
Atom  20H    basis set group =>   3
Atom  21H    basis set group =>   3
---------------------------------
AUXILIARY/J BASIS SET INFORMATION
---------------------------------
There are 3 groups of distinct atoms

 Group   1 Type C   : 12s5p4d2f1g contracted to 6s4p3d1f1g pattern {711111/2111/211/2/1}
 Group   2 Type N   : 12s5p4d2f1g contracted to 6s4p3d1f1g pattern {711111/2111/211/2/1}
 Group   3 Type H   : 5s2p1d contracted to 3s1p1d pattern {311/2/1}

Atom   0C    basis set group =>   1
Atom   1C    basis set group =>   1
Atom   2N    basis set group =>   2
Atom   3N    basis set group =>   2
Atom   4C    basis set group =>   1
Atom   5C    basis set group =>   1
Atom   6C    basis set group =>   1
Atom   7H    basis set group =>   3
Atom   8H    basis set group =>   3
Atom   9H    basis set group =>   3
Atom  10H    basis set group =>   3
Atom  11H    basis set group =>   3
Atom  12H    basis set group =>   3
Atom  13H    basis set group =>   3
Atom  14C    basis set group =>   1
Atom  15C    basis set group =>   1
Atom  16H    basis set group =>   3
Atom  17H    basis set group =>   3
Atom  18H    basis set group =>   3
Atom  19H    basis set group =>   3
Atom  20H    basis set group =>   3
Atom  21H    basis set group =>   3


           ************************************************************
           *        Program running with 4 parallel MPI-processes     *
           *              working on a common directory               *
           ************************************************************
------------------------------------------------------------------------------
                           ORCA GTO INTEGRAL CALCULATION
                           -- RI-GTO INTEGRALS CHOSEN --
------------------------------------------------------------------------------
------------------------------------------------------------------------------
                   ___                                                        
                  /   \      - P O W E R E D   B Y -                         
                 /     \                                                     
                 |  |  |   _    _      __       _____    __    __             
                 |  |  |  | |  | |    /  \     |  _  \  |  |  /  |          
                  \  \/   | |  | |   /    \    | | | |  |  | /  /          
                 / \  \   | |__| |  /  /\  \   | |_| |  |  |/  /          
                |  |  |   |  __  | /  /__\  \  |    /   |      \           
                |  |  |   | |  | | |   __   |  |    \   |  |\   \          
                \     /   | |  | | |  |  |  |  | |\  \  |  | \   \       
                 \___/    |_|  |_| |__|  |__|  |_| \__\ |__|  \__/        
                                                                              
                      - O R C A' S   B I G   F R I E N D -                    
                                      &                                       
                       - I N T E G R A L  F E E D E R -                       
                                                                              
 v1 FN, 2020, v2 2021                                                         
------------------------------------------------------------------------------


Reading SHARK input file MeMe_water.SHARKINP.tmp ... ok
----------------------
SHARK INTEGRAL PACKAGE
----------------------

Number of atoms                             ...     22
Number of basis functions                   ...    191
Number of shells                            ...     93
Maximum angular momentum                    ...      2
Integral batch strategy                     ... SHARK/LIBINT Hybrid
RI-J (if used) integral strategy            ... SPLIT-RIJ (Revised 2003 algorithm where possible)
Printlevel                                  ...      1
Contraction scheme used                     ... SEGMENTED contraction
Coulomb Range Separation                    ... NOT USED
Exchange Range Separation                   ... Long Range
   Mu parameter                             ...  0.300000
   Scaling (regular/separated)              ...  0.157706  0.842294
Finite Nucleus Model                        ... NOT USED
Auxiliary Coulomb fitting basis             ... AVAILABLE
   # of basis functions in Aux-J            ...    584
   # of shells in Aux-J                     ...    200
   Maximum angular momentum in Aux-J        ...      4
Auxiliary J/K fitting basis                 ... NOT available
Auxiliary Correlation fitting basis         ... NOT available
Auxiliary 'external' fitting basis          ... NOT available
Integral threshold                          ...     2.500000e-11
Primitive cut-off                           ...     2.500000e-12
Primitive pair pre-selection threshold      ...     2.500000e-12

Calculating pre-screening integrals         ... done (  0.0 sec) Dimension = 93
Organizing shell pair data                  ... done (  0.0 sec)
Shell pair information
Total number of shell pairs                 ...      4371
Shell pairs after pre-screening             ...      4042
Total number of primitive shell pairs       ...     15207
Primitive shell pairs kept                  ...     10294
          la=0 lb=0:   1348 shell pairs
          la=1 lb=0:   1507 shell pairs
          la=1 lb=1:    443 shell pairs
          la=2 lb=0:    441 shell pairs
          la=2 lb=1:    261 shell pairs
          la=2 lb=2:     42 shell pairs

Calculating one electron integrals          ... done (  0.0 sec)
Calculating RI/J V-Matrix + Cholesky decomp.... done (  0.0 sec)
Calculating Nuclear repulsion               ... done (  0.0 sec) ENN=    472.864015246115 Eh

SHARK setup successfully completed in   0.2 seconds

Maximum memory used throughout the entire GTOINT-calculation: 12.6 MB


           ************************************************************
           *        Program running with 4 parallel MPI-processes     *
           *              working on a common directory               *
           ************************************************************
-------------------------------------------------------------------------------
                                 ORCA SCF
-------------------------------------------------------------------------------

------------
SCF SETTINGS
------------
Hamiltonian:
 Density Functional     Method          .... DFT(GTOs)
 Exchange Functional    Exchange        .... WB97X
 Correlation Functional Correlation     .... WB97X
 Gradients option       PostSCFGGA      .... off
 Hybrid DFT is turned on
   Fraction HF Exchange ScalHFX         ....  0.157706
   Scaling of DF-GGA-X  ScalDFX         ....  0.000000
   Scaling of DF-GGA-C  ScalDFC         ....  1.000000
   Scaling of DF-LDA-C  ScalLDAC        ....  1.000000
   Perturbative correction              ....  0.000000
   Density functional embedding theory  .... OFF
 Long-range corrected/Screened/Range-Separated Hybrid DFT is turned on
   Amount of maximum screened exact exchange              ....  0.842294
   Range separation parameter mu (erf(mu*r12)/r12)        ....  0.300000
 RI-approximation to the Coulomb term is turned on
   Number of AuxJ basis functions       .... 584
   RIJ-COSX (HFX calculated with COS-X)).... on


General Settings:
 Integral files         IntName         .... MeMe_water
 Hartree-Fock type      HFTyp           .... RHF
 Total Charge           Charge          ....    1
 Multiplicity           Mult            ....    1
 Number of Electrons    NEL             ....   68
 Basis Dimension        Dim             ....  191
 Nuclear Repulsion      ENuc            ....    472.8640152461 Eh

Convergence Acceleration:
 DIIS                   CNVDIIS         .... on
   Start iteration      DIISMaxIt       ....     0
   Startup error        DIISStart       ....  0.200000
   # of expansion vecs  DIISMaxEq       ....     5
   Bias factor          DIISBfac        ....   1.050
   Max. coefficient     DIISMaxC        ....  10.000
 Trust-Rad. Augm. Hess. CNVTRAH         .... auto
   Auto Start mean grad. ratio tolernc. ....  1.125000
   Auto Start start iteration           ....    20
   Auto Start num. interpolation iter.  ....    10
   Max. Number of Micro iterations      ....    16
   Max. Number of Macro iterations      .... Maxiter - #DIIS iter
   Number of Davidson start vectors     ....     2
   Converg. threshold I  (grad. norm)   ....   1.000e-05
   Converg. threshold II (energy diff.) ....   1.000e-08
   Grad. Scal. Fac. for Micro threshold ....   0.100
   Minimum threshold for Micro iter.    ....   0.010
   NR start threshold (gradient norm)   ....   0.001
   Initial trust radius                 ....   0.400
   Minimum AH scaling param. (alpha)    ....   1.000
   Maximum AH scaling param. (alpha)    .... 1000.000
   Orbital update algorithm             .... Taylor
   White noise on init. David. guess    .... on
   Maximum white noise                  ....   0.010
   Quad. conv. algorithm                .... NR
 SOSCF                  CNVSOSCF        .... on
   Start iteration      SOSCFMaxIt      ....   150
   Startup grad/error   SOSCFStart      ....  0.001000
 Level Shifting         CNVShift        .... on
   Level shift para.    LevelShift      ....    0.2500
   Turn off err/grad.   ShiftErr        ....    0.0000
 Zerner damping         CNVZerner       .... off
 Static damping         CNVDamp         .... on
   Fraction old density DampFac         ....    0.8500
   Max. Damping (<1)    DampMax         ....    0.9800
   Min. Damping (>=0)   DampMin         ....    0.0000
   Turn off err/grad.   DampErr         ....    0.0300
 Fernandez-Rico         CNVRico         .... off

SCF Procedure:
 Maximum # iterations   MaxIter         ....   125
 SCF integral mode      SCFMode         .... Direct
   Integral package                     .... SHARK and LIBINT hybrid scheme
 Reset frequency        DirectResetFreq ....    20
 Integral Threshold     Thresh          ....  2.500e-11 Eh
 Primitive CutOff       TCut            ....  2.500e-12 Eh

Convergence Tolerance:
 Convergence Check Mode ConvCheckMode   .... Total+1el-Energy
 Convergence forced     ConvForced      .... 0
 Energy Change          TolE            ....  1.000e-08 Eh
 1-El. energy change                    ....  1.000e-05 Eh
 Orbital Gradient       TolG            ....  1.000e-05
 Orbital Rotation angle TolX            ....  1.000e-05
 DIIS Error             TolErr          ....  5.000e-07


Diagonalization of the overlap matrix:
Smallest eigenvalue                        ... 9.382e-04
Time for diagonalization                   ...    0.006 sec
Threshold for overlap eigenvalues          ... 1.000e-08
Number of eigenvalues below threshold      ... 0
Time for construction of square roots      ...    0.004 sec
Total time needed                          ...    0.011 sec

Time for model grid setup =    0.133 sec

------------------------------
INITIAL GUESS: MODEL POTENTIAL
------------------------------
Loading Hartree-Fock densities                     ... done
Calculating cut-offs                               ... done
Initializing the effective Hamiltonian             ... done
Setting up the integral package (SHARK)            ... done
Starting the Coulomb interaction                   ... done (   0.1 sec)
Reading the grid                                   ... done
Mapping shells                                     ... done
Starting the XC term evaluation                    ... done (   0.1 sec)
  promolecular density results
     # of electrons  =     68.998665112
     EX              =    -52.797456444
     EC              =     -2.285172058
     EX+EC           =    -55.082628503
Transforming the Hamiltonian                       ... done (   0.0 sec)
Diagonalizing the Hamiltonian                      ... done (   0.0 sec)
Back transforming the eigenvectors                 ... done (   0.0 sec)
Now organizing SCF variables                       ... done
                      ------------------
                      INITIAL GUESS DONE (   0.3 sec)
                      ------------------
-------------------
DFT GRID GENERATION
-------------------

General Integration Accuracy     IntAcc      ... 4.388
Radial Grid Type                 RadialGrid  ... OptM3 with GC (2021)
Angular Grid (max. ang.)         AngularGrid ... 4 (Lebedev-302)
Angular grid pruning method      GridPruning ... 4 (adaptive)
Weight generation scheme         WeightScheme... Becke
Basis function cutoff            BFCut       ... 1.0000e-11
Integration weight cutoff        WCut        ... 1.0000e-14
Angular grids for H and He will be reduced by one unit
Partially contracted basis set               ... off
Rotationally invariant grid construction     ... off

Total number of grid points                  ...    95681
Total number of batches                      ...     1508
Average number of points per batch           ...       63
Average number of grid points per atom       ...     4349
Time for grid setup =    0.600 sec

--------------------
COSX GRID GENERATION
--------------------

GRIDX 1
-------
General Integration Accuracy     IntAcc      ... 3.816
Radial Grid Type                 RadialGrid  ... OptM3 with GC (2021)
Angular Grid (max. ang.)         AngularGrid ... 1 (Lebedev-50)
Angular grid pruning method      GridPruning ... 4 (adaptive)
Weight generation scheme         WeightScheme... Becke
Basis function cutoff            BFCut       ... 1.0000e-11
Integration weight cutoff        WCut        ... 1.0000e-14
Angular grids for H and He will be reduced by one unit
Partially contracted basis set               ... on
Rotationally invariant grid construction     ... off

Total number of grid points                  ...    12234
Total number of batches                      ...      205
Average number of points per batch           ...       59
Average number of grid points per atom       ...      556
UseSFitting                                  ... on

GRIDX 2
-------
General Integration Accuracy     IntAcc      ... 4.020
Radial Grid Type                 RadialGrid  ... OptM3 with GC (2021)
Angular Grid (max. ang.)         AngularGrid ... 2 (Lebedev-110)
Angular grid pruning method      GridPruning ... 4 (adaptive)
Weight generation scheme         WeightScheme... Becke
Basis function cutoff            BFCut       ... 1.0000e-11
Integration weight cutoff        WCut        ... 1.0000e-14
Angular grids for H and He will be reduced by one unit
Partially contracted basis set               ... on
Rotationally invariant grid construction     ... off

Total number of grid points                  ...    25758
Total number of batches                      ...      413
Average number of points per batch           ...       62
Average number of grid points per atom       ...     1171
UseSFitting                                  ... on

GRIDX 3
-------
General Integration Accuracy     IntAcc      ... 4.338
Radial Grid Type                 RadialGrid  ... OptM3 with GC (2021)
Angular Grid (max. ang.)         AngularGrid ... 3 (Lebedev-194)
Angular grid pruning method      GridPruning ... 4 (adaptive)
Weight generation scheme         WeightScheme... Becke
Basis function cutoff            BFCut       ... 1.0000e-11
Integration weight cutoff        WCut        ... 1.0000e-14
Angular grids for H and He will be reduced by one unit
Partially contracted basis set               ... on
Rotationally invariant grid construction     ... off

Total number of grid points                  ...    56338
Total number of batches                      ...      892
Average number of points per batch           ...       63
Average number of grid points per atom       ...     2561
UseSFitting                                  ... on

Time for X-Grid setup             =    0.682 sec


--------------------
CPCM SOLVATION MODEL
--------------------
CPCM parameters:
  Epsilon                                         ...      80.4000
  Refrac                                          ...       1.3300
  Rsolv                                           ...       1.3000
  Surface type                                    ... GAUSSIAN VDW
  Epsilon function type                           ...         CPCM
Radii:
 Radius for C  used is    3.8550 Bohr (=   2.0400 Ang.)
 Radius for N  used is    3.5149 Bohr (=   1.8600 Ang.)
 Radius for H  used is    2.4944 Bohr (=   1.3200 Ang.)
Calculating surface                               ...        done! (  0.0s)
GEPOL surface points                              ...         1209
GEPOL Volume                                      ...    1175.4321
GEPOL Surface-area                                ...     669.3376
Calculating surface distance matrix               ...        done! (  0.0s)
Performing Cholesky decomposition & store         ...        done! (  0.1s)
Overall time for CPCM initialization              ...                 0.1s
--------------
SCF ITERATIONS
--------------
ITER       Energy         Delta-E        Max-DP      RMS-DP      [F,P]     Damp
               ***  Starting incremental Fock matrix formation  ***
  0   -383.4494709542   0.000000000000 0.03099213  0.00068756  0.1457185 0.8500
  1   -383.4766993820  -0.027228427840 0.02795066  0.00063562  0.1175779 0.8500
                               ***Turning on DIIS***
  2   -383.4975621237  -0.020862741620 0.02196166  0.00051971  0.0904948 0.8500
  3   -383.5132127866  -0.015650662928 0.01390298  0.00038083  0.0688111 0.8500
  4   -383.5253597688  -0.012146982191 0.00939554  0.00029816  0.0548955 0.8500
  5   -383.5349623941  -0.009602625324 0.00719838  0.00024748  0.0454926 0.8500
  6   -383.5427798831  -0.007817489033 0.00588186  0.00020990  0.0383381 0.8500
  7   -383.5492528703  -0.006472987158 0.00506490  0.00018079  0.0325133 0.8500
  8   -383.5546674528  -0.005414582480 0.02891960  0.00103600  0.0275047 0.0000
  9   -383.5837697946  -0.029102341789 0.00124575  0.00003050  0.0011524 0.0000
                      *** Initiating the SOSCF procedure ***
                           *** Shutting down DIIS ***
                      *** Re-Reading the Fockian *** 
                      *** Removing any level shift *** 
ITER      Energy       Delta-E        Grad      Rot      Max-DP    RMS-DP
 10   -383.58378071  -0.0000109141  0.000152  0.000152  0.000350  0.000012
               *** Restarting incremental Fock matrix formation ***
 11   -383.58384928  -0.0000685744  0.000094  0.000148  0.000324  0.000012
 12   -383.58384956  -0.0000002805  0.000041  0.000087  0.000151  0.000006
 13   -383.58384959  -0.0000000302  0.000020  0.000024  0.000047  0.000002
                  ***Gradient check signals convergence***
              ***Rediagonalizing the Fockian in SOSCF/NRSCF***

               *****************************************************
               *                     SUCCESS                       *
               *           SCF CONVERGED AFTER  14 CYCLES          *
               *****************************************************

Old exchange energy                            =    -17.446428738 Eh
New exchange energy                            =    -17.446404134 Eh
Exchange energy change after final integration =      0.000024603 Eh
Total energy after final integration           =   -383.583825006 Eh
Final COS-X integration done in                =     8.555 sec

----------------
TOTAL SCF ENERGY
----------------

Total Energy       :         -383.58382501 Eh          -10437.84653 eV

Components:
Nuclear Repulsion  :          472.86401525 Eh           12867.28401 eV
Electronic Energy  :         -856.44784025 Eh          -23305.13054 eV
One Electron Energy:        -1441.00128084 Eh          -39211.63833 eV
Two Electron Energy:          584.55344059 Eh           15906.50779 eV
Max COSX asymmetry :            0.00000143 Eh               0.00004 eV
CPCM Dielectric    :           -0.07911722 Eh              -2.15289 eV

Virial components:
Potential Energy   :         -762.51023683 Eh          -20748.95840 eV
Kinetic Energy     :          378.92641183 Eh           10311.11187 eV
Virial Ratio       :            2.01229108


DFT components:
N(Alpha)           :       34.000071008958 electrons
N(Beta)            :       34.000071008958 electrons
N(Total)           :       68.000142017916 electrons
E(XC)              :      -38.822216729804 Eh       
DFET-embed. en.    :        0.000000000000 Eh       
CPCM Solvation Model Properties:
Surface-charge          :           -1.01577748
Charge-correction       :            0.00226300 Eh               0.06158 eV
Free-energy (cav+disp)  :  This term is not implemented in the current solvation scheme

---------------
SCF CONVERGENCE
---------------

  Last Energy change         ...   -1.5750e-08  Tolerance :   1.0000e-08
  Last MAX-Density change    ...    3.5527e-15  Tolerance :   1.0000e-07
  Last RMS-Density change    ...    4.2033e-17  Tolerance :   5.0000e-09
  Last Orbital Gradient      ...    2.2141e-06  Tolerance :   1.0000e-05
  Last Orbital Rotation      ...    2.3185e-06  Tolerance :   1.0000e-05

             **** THE GBW FILE WAS UPDATED (MeMe_water.gbw) ****
             **** DENSITY MeMe_water.scfp WAS UPDATED ****
             **** ENERGY FILE WAS UPDATED (MeMe_water.en.tmp) ****
             **** THE GBW FILE WAS UPDATED (MeMe_water.gbw) ****
             **** DENSITY MeMe_water.scfp WAS UPDATED ****
----------------
ORBITAL ENERGIES
----------------

  NO   OCC          E(Eh)            E(eV) 
   0   2.0000     -14.507403      -394.7665 
   1   2.0000     -14.507384      -394.7660 
   2   2.0000     -10.379337      -282.4361 
   3   2.0000     -10.333901      -281.1997 
   4   2.0000     -10.333412      -281.1864 
   5   2.0000     -10.324999      -280.9575 
   6   2.0000     -10.324979      -280.9570 
   7   2.0000     -10.284959      -279.8680 
   8   2.0000     -10.284906      -279.8665 
   9   2.0000      -1.206020       -32.8175 
  10   2.0000      -1.086254       -29.5585 
  11   2.0000      -0.953249       -25.9392 
  12   2.0000      -0.908128       -24.7114 
  13   2.0000      -0.876769       -23.8581 
  14   2.0000      -0.825890       -22.4736 
  15   2.0000      -0.824940       -22.4478 
  16   2.0000      -0.731022       -19.8921 
  17   2.0000      -0.724976       -19.7276 
  18   2.0000      -0.662932       -18.0393 
  19   2.0000      -0.639052       -17.3895 
  20   2.0000      -0.603761       -16.4292 
  21   2.0000      -0.590861       -16.0781 
  22   2.0000      -0.580847       -15.8057 
  23   2.0000      -0.554107       -15.0780 
  24   2.0000      -0.540168       -14.6987 
  25   2.0000      -0.540116       -14.6973 
  26   2.0000      -0.531639       -14.4666 
  27   2.0000      -0.524561       -14.2740 
  28   2.0000      -0.510355       -13.8875 
  29   2.0000      -0.507732       -13.8161 
  30   2.0000      -0.504758       -13.7352 
  31   2.0000      -0.497105       -13.5269 
  32   2.0000      -0.409580       -11.1452 
  33   2.0000      -0.349154        -9.5010 
  34   0.0000       0.065640         1.7862 
  35   0.0000       0.106486         2.8976 
  36   0.0000       0.139896         3.8068 
  37   0.0000       0.154998         4.2177 
  38   0.0000       0.169114         4.6018 
  39   0.0000       0.185582         5.0499 
  40   0.0000       0.191347         5.2068 
  41   0.0000       0.196873         5.3572 
  42   0.0000       0.203039         5.5250 
  43   0.0000       0.212157         5.7731 
  44   0.0000       0.224108         6.0983 
  45   0.0000       0.232874         6.3368 
  46   0.0000       0.251634         6.8473 
  47   0.0000       0.258437         7.0324 
  48   0.0000       0.268487         7.3059 
  49   0.0000       0.280829         7.6417 
  50   0.0000       0.287281         7.8173 
  51   0.0000       0.303595         8.2613 
  52   0.0000       0.319115         8.6836 
  53   0.0000       0.319966         8.7067 
  54   0.0000       0.350958         9.5501 
  55   0.0000       0.352581         9.5942 
  56   0.0000       0.448111        12.1937 
  57   0.0000       0.458454        12.4752 
  58   0.0000       0.464973        12.6526 
  59   0.0000       0.466221        12.6865 
  60   0.0000       0.471379        12.8269 
  61   0.0000       0.488998        13.3063 
  62   0.0000       0.515140        14.0177 
  63   0.0000       0.530077        14.4241 
  64   0.0000       0.543903        14.8003 
  65   0.0000       0.555577        15.1180 
  66   0.0000       0.584438        15.9034 
  67   0.0000       0.616198        16.7676 
  68   0.0000       0.616688        16.7809 
  69   0.0000       0.632878        17.2215 
  70   0.0000       0.639018        17.3886 
  71   0.0000       0.692563        18.8456 
  72   0.0000       0.705479        19.1970 
  73   0.0000       0.714561        19.4442 
  74   0.0000       0.730588        19.8803 
  75   0.0000       0.732499        19.9323 
  76   0.0000       0.732753        19.9392 
  77   0.0000       0.739042        20.1104 
  78   0.0000       0.747496        20.3404 
  79   0.0000       0.757341        20.6083 
  80   0.0000       0.764940        20.8151 
  81   0.0000       0.766034        20.8448 
  82   0.0000       0.768533        20.9128 
  83   0.0000       0.790206        21.5026 
  84   0.0000       0.794465        21.6185 
  85   0.0000       0.797150        21.6915 
  86   0.0000       0.801558        21.8115 
  87   0.0000       0.810311        22.0497 
  88   0.0000       0.813876        22.1467 
  89   0.0000       0.822730        22.3876 
  90   0.0000       0.825143        22.4533 
  91   0.0000       0.849160        23.1068 
  92   0.0000       0.894255        24.3339 
  93   0.0000       0.932184        25.3660 
  94   0.0000       0.953024        25.9331 
  95   0.0000       0.983757        26.7694 
  96   0.0000       1.005011        27.3477 
  97   0.0000       1.015750        27.6400 
  98   0.0000       1.055678        28.7265 
  99   0.0000       1.142605        31.0919 
 100   0.0000       1.184231        32.2246 
 101   0.0000       1.208629        32.8885 
 102   0.0000       1.238058        33.6893 
 103   0.0000       1.267039        34.4779 
 104   0.0000       1.267317        34.4854 
 105   0.0000       1.272875        34.6367 
 106   0.0000       1.295065        35.2405 
 107   0.0000       1.307519        35.5794 
 108   0.0000       1.360461        37.0200 
 109   0.0000       1.393435        37.9173 
 110   0.0000       1.419661        38.6309 
 111   0.0000       1.506411        40.9915 
 112   0.0000       1.518811        41.3289 
 113   0.0000       1.605395        43.6850 
 114   0.0000       1.606571        43.7170 
 115   0.0000       1.623468        44.1768 
 116   0.0000       1.624612        44.2079 
 117   0.0000       1.633201        44.4417 
 118   0.0000       1.645391        44.7734 
 119   0.0000       1.646968        44.8163 
 120   0.0000       1.651176        44.9308 
 121   0.0000       1.657500        45.1029 
 122   0.0000       1.708795        46.4987 
 123   0.0000       1.732948        47.1559 
 124   0.0000       1.801609        49.0243 
 125   0.0000       1.832572        49.8668 
 126   0.0000       1.835848        49.9560 
 127   0.0000       1.851556        50.3834 
 128   0.0000       1.868214        50.8367 
 129   0.0000       1.872058        50.9413 
 130   0.0000       1.885752        51.3139 
 131   0.0000       1.886993        51.3477 
 132   0.0000       1.900731        51.7215 
 133   0.0000       1.902591        51.7721 
 134   0.0000       1.903747        51.8036 
 135   0.0000       1.946531        52.9678 
 136   0.0000       1.948477        53.0208 
 137   0.0000       1.978536        53.8387 
 138   0.0000       1.987544        54.0838 
 139   0.0000       1.994918        54.2845 
 140   0.0000       1.999638        54.4129 
 141   0.0000       2.031138        55.2701 
 142   0.0000       2.051827        55.8330 
 143   0.0000       2.068429        56.2848 
 144   0.0000       2.128375        57.9160 
 145   0.0000       2.131554        58.0025 
 146   0.0000       2.169174        59.0262 
 147   0.0000       2.177744        59.2594 
 148   0.0000       2.189214        59.5715 
 149   0.0000       2.190010        59.5932 
 150   0.0000       2.210569        60.1526 
 151   0.0000       2.273585        61.8674 
 152   0.0000       2.276380        61.9434 
 153   0.0000       2.305828        62.7448 
 154   0.0000       2.335827        63.5611 
 155   0.0000       2.342332        63.7381 
 156   0.0000       2.412696        65.6528 
 157   0.0000       2.437013        66.3145 
 158   0.0000       2.497347        67.9563 
 159   0.0000       2.521754        68.6204 
 160   0.0000       2.528711        68.8097 
 161   0.0000       2.534208        68.9593 
 162   0.0000       2.538909        69.0872 
 163   0.0000       2.579508        70.1920 
 164   0.0000       2.588941        70.4487 
 165   0.0000       2.601877        70.8007 
 166   0.0000       2.638835        71.8064 
 167   0.0000       2.683677        73.0266 
 168   0.0000       2.703693        73.5712 
 169   0.0000       2.768022        75.3217 
 170   0.0000       2.770486        75.3888 
 171   0.0000       2.837717        77.2182 
 172   0.0000       2.861189        77.8569 
 173   0.0000       2.867509        78.0289 
 174   0.0000       2.870331        78.1057 
 175   0.0000       2.876125        78.2633 
 176   0.0000       2.905342        79.0584 
 177   0.0000       2.934687        79.8569 
 178   0.0000       2.972666        80.8904 
 179   0.0000       3.002622        81.7055 
 180   0.0000       3.011827        81.9560 
 181   0.0000       3.040054        82.7241 
 182   0.0000       3.054502        83.1172 
 183   0.0000       3.086366        83.9843 
 184   0.0000       3.092686        84.1563 
 185   0.0000       3.132910        85.2508 
 186   0.0000       3.147287        85.6420 
 187   0.0000       3.270423        88.9927 
 188   0.0000       3.396149        92.4139 
 189   0.0000       3.483855        94.8005 
 190   0.0000       3.557407        96.8020 

                    ********************************
                    * MULLIKEN POPULATION ANALYSIS *
                    ********************************

-----------------------
MULLIKEN ATOMIC CHARGES
-----------------------
   0 C :   -0.086614
   1 C :   -0.086608
   2 N :   -0.234609
   3 N :   -0.234609
   4 C :    0.224448
   5 C :    0.093234
   6 C :    0.093233
   7 H :    0.089779
   8 H :    0.089779
   9 H :    0.089779
  10 H :    0.089779
  11 H :    0.089743
  12 H :    0.089743
  13 H :    0.129020
  14 C :    0.088355
  15 C :    0.088356
  16 H :    0.070352
  17 H :    0.070352
  18 H :    0.070351
  19 H :    0.070352
  20 H :    0.052892
  21 H :    0.052892
Sum of atomic charges:    1.0000000

--------------------------------
MULLIKEN REDUCED ORBITAL CHARGES
--------------------------------
  0 C s       :     3.095722  s :     3.095722
      pz      :     0.883181  p :     2.933981
      px      :     1.049336
      py      :     1.001463
      dz2     :     0.018571  d :     0.056911
      dxz     :     0.009354
      dyz     :     0.013216
      dx2y2   :     0.005845
      dxy     :     0.009925
  1 C s       :     3.095717  s :     3.095717
      pz      :     0.883180  p :     2.933980
      px      :     1.049337
      py      :     1.001463
      dz2     :     0.018571  d :     0.056911
      dxz     :     0.009354
      dyz     :     0.013216
      dx2y2   :     0.005845
      dxy     :     0.009925
  2 N s       :     3.412165  s :     3.412165
      pz      :     1.155612  p :     3.790327
      px      :     1.474888
      py      :     1.159827
      dz2     :     0.006248  d :     0.032117
      dxz     :     0.006240
      dyz     :     0.010065
      dx2y2   :     0.004010
      dxy     :     0.005554
  3 N s       :     3.412166  s :     3.412166
      pz      :     1.155611  p :     3.790327
      px      :     1.474888
      py      :     1.159828
      dz2     :     0.006248  d :     0.032116
      dxz     :     0.006240
      dyz     :     0.010065
      dx2y2   :     0.004010
      dxy     :     0.005554
  4 C s       :     3.087628  s :     3.087628
      pz      :     0.909687  p :     2.620768
      px      :     0.936232
      py      :     0.774850
      dz2     :     0.012387  d :     0.067156
      dxz     :     0.006373
      dyz     :     0.022394
      dx2y2   :     0.009036
      dxy     :     0.016966
  5 C s       :     3.002632  s :     3.002632
      pz      :     1.039895  p :     2.867871
      px      :     1.071783
      py      :     0.756194
      dz2     :     0.007932  d :     0.036263
      dxz     :     0.002892
      dyz     :     0.006184
      dx2y2   :     0.010113
      dxy     :     0.009143
  6 C s       :     3.002632  s :     3.002632
      pz      :     1.039895  p :     2.867871
      px      :     1.071783
      py      :     0.756194
      dz2     :     0.007932  d :     0.036263
      dxz     :     0.002892
      dyz     :     0.006184
      dx2y2   :     0.010113
      dxy     :     0.009143
  7 H s       :     0.886265  s :     0.886265
      pz      :     0.005675  p :     0.023956
      px      :     0.012786
      py      :     0.005495
  8 H s       :     0.886265  s :     0.886265
      pz      :     0.005675  p :     0.023956
      px      :     0.012786
      py      :     0.005495
  9 H s       :     0.886265  s :     0.886265
      pz      :     0.005675  p :     0.023956
      px      :     0.012786
      py      :     0.005495
 10 H s       :     0.886265  s :     0.886265
      pz      :     0.005675  p :     0.023956
      px      :     0.012786
      py      :     0.005495
 11 H s       :     0.886113  s :     0.886113
      pz      :     0.016569  p :     0.024144
      px      :     0.004999
      py      :     0.002576
 12 H s       :     0.886113  s :     0.886113
      pz      :     0.016569  p :     0.024144
      px      :     0.004999
      py      :     0.002576
 13 H s       :     0.846209  s :     0.846209
      pz      :     0.019083  p :     0.024771
      px      :     0.004371
      py      :     0.001317
 14 C s       :     2.891658  s :     2.891658
      pz      :     0.965831  p :     2.993605
      px      :     1.044801
      py      :     0.982973
      dz2     :     0.005807  d :     0.026382
      dxz     :     0.001811
      dyz     :     0.007971
      dx2y2   :     0.002490
      dxy     :     0.008302
 15 C s       :     2.891657  s :     2.891657
      pz      :     0.965830  p :     2.993605
      px      :     1.044801
      py      :     0.982974
      dz2     :     0.005807  d :     0.026382
      dxz     :     0.001812
      dyz     :     0.007971
      dx2y2   :     0.002490
      dxy     :     0.008302
 16 H s       :     0.904844  s :     0.904844
      pz      :     0.004240  p :     0.024805
      px      :     0.012170
      py      :     0.008395
 17 H s       :     0.904844  s :     0.904844
      pz      :     0.004240  p :     0.024805
      px      :     0.012170
      py      :     0.008395
 18 H s       :     0.904844  s :     0.904844
      pz      :     0.004240  p :     0.024805
      px      :     0.012170
      py      :     0.008395
 19 H s       :     0.904844  s :     0.904844
      pz      :     0.004240  p :     0.024805
      px      :     0.012170
      py      :     0.008395
 20 H s       :     0.921980  s :     0.921980
      pz      :     0.013193  p :     0.025128
      px      :     0.005002
      py      :     0.006932
 21 H s       :     0.921980  s :     0.921980
      pz      :     0.013193  p :     0.025128
      px      :     0.005002
      py      :     0.006932


                     *******************************
                     * LOEWDIN POPULATION ANALYSIS *
                     *******************************

----------------------
LOEWDIN ATOMIC CHARGES
----------------------
   0 C :   -0.003801
   1 C :   -0.003801
   2 N :    0.084683
   3 N :    0.084683
   4 C :    0.127362
   5 C :    0.060265
   6 C :    0.060265
   7 H :    0.050384
   8 H :    0.050384
   9 H :    0.050384
  10 H :    0.050384
  11 H :    0.054133
  12 H :    0.054133
  13 H :    0.064411
  14 C :   -0.048549
  15 C :   -0.048549
  16 H :    0.052280
  17 H :    0.052280
  18 H :    0.052280
  19 H :    0.052280
  20 H :    0.052054
  21 H :    0.052054

-------------------------------
LOEWDIN REDUCED ORBITAL CHARGES
-------------------------------
  0 C s       :     2.843692  s :     2.843692
      pz      :     0.933892  p :     3.025318
      px      :     1.035195
      py      :     1.056231
      dz2     :     0.046647  d :     0.134792
      dxz     :     0.017852
      dyz     :     0.035805
      dx2y2   :     0.015764
      dxy     :     0.018723
  1 C s       :     2.843692  s :     2.843692
      pz      :     0.933892  p :     3.025318
      px      :     1.035195
      py      :     1.056231
      dz2     :     0.046647  d :     0.134792
      dxz     :     0.017852
      dyz     :     0.035805
      dx2y2   :     0.015764
      dxy     :     0.018723
  2 N s       :     3.052536  s :     3.052536
      pz      :     1.195482  p :     3.789760
      px      :     1.407686
      py      :     1.186592
      dz2     :     0.016750  d :     0.073021
      dxz     :     0.012024
      dyz     :     0.026361
      dx2y2   :     0.009079
      dxy     :     0.008807
  3 N s       :     3.052536  s :     3.052536
      pz      :     1.195482  p :     3.789760
      px      :     1.407686
      py      :     1.186592
      dz2     :     0.016750  d :     0.073020
      dxz     :     0.012024
      dyz     :     0.026361
      dx2y2   :     0.009079
      dxy     :     0.008807
  4 C s       :     2.838126  s :     2.838126
      pz      :     1.023649  p :     2.878290
      px      :     0.955528
      py      :     0.899113
      dz2     :     0.029116  d :     0.156222
      dxz     :     0.010034
      dyz     :     0.059400
      dx2y2   :     0.022777
      dxy     :     0.034895
  5 C s       :     2.826852  s :     2.826852
      pz      :     1.068641  p :     3.022487
      px      :     1.099225
      py      :     0.854621
      dz2     :     0.021463  d :     0.090396
      dxz     :     0.006469
      dyz     :     0.014632
      dx2y2   :     0.023717
      dxy     :     0.024116
  6 C s       :     2.826852  s :     2.826852
      pz      :     1.068641  p :     3.022487
      px      :     1.099225
      py      :     0.854621
      dz2     :     0.021463  d :     0.090396
      dxz     :     0.006469
      dyz     :     0.014632
      dx2y2   :     0.023717
      dxy     :     0.024117
  7 H s       :     0.882213  s :     0.882213
      pz      :     0.015727  p :     0.067403
      px      :     0.034819
      py      :     0.016856
  8 H s       :     0.882213  s :     0.882213
      pz      :     0.015728  p :     0.067403
      px      :     0.034819
      py      :     0.016856
  9 H s       :     0.882213  s :     0.882213
      pz      :     0.015728  p :     0.067403
      px      :     0.034819
      py      :     0.016856
 10 H s       :     0.882213  s :     0.882213
      pz      :     0.015727  p :     0.067403
      px      :     0.034819
      py      :     0.016856
 11 H s       :     0.878208  s :     0.878208
      pz      :     0.045656  p :     0.067659
      px      :     0.013456
      py      :     0.008547
 12 H s       :     0.878208  s :     0.878208
      pz      :     0.045656  p :     0.067659
      px      :     0.013456
      py      :     0.008547
 13 H s       :     0.859965  s :     0.859965
      pz      :     0.053860  p :     0.075624
      px      :     0.014648
      py      :     0.007116
 14 C s       :     2.815329  s :     2.815329
      pz      :     1.036856  p :     3.161814
      px      :     1.081011
      py      :     1.043947
      dz2     :     0.016663  d :     0.071406
      dxz     :     0.003616
      dyz     :     0.022421
      dx2y2   :     0.006238
      dxy     :     0.022468
 15 C s       :     2.815329  s :     2.815329
      pz      :     1.036856  p :     3.161814
      px      :     1.081011
      py      :     1.043947
      dz2     :     0.016663  d :     0.071406
      dxz     :     0.003616
      dyz     :     0.022421
      dx2y2   :     0.006238
      dxy     :     0.022468
 16 H s       :     0.880338  s :     0.880338
      pz      :     0.012442  p :     0.067381
      px      :     0.032361
      py      :     0.022578
 17 H s       :     0.880338  s :     0.880338
      pz      :     0.012442  p :     0.067381
      px      :     0.032361
      py      :     0.022578
 18 H s       :     0.880338  s :     0.880338
      pz      :     0.012442  p :     0.067381
      px      :     0.032361
      py      :     0.022578
 19 H s       :     0.880338  s :     0.880338
      pz      :     0.012442  p :     0.067381
      px      :     0.032361
      py      :     0.022578
 20 H s       :     0.879956  s :     0.879956
      pz      :     0.035553  p :     0.067989
      px      :     0.013332
      py      :     0.019104
 21 H s       :     0.879956  s :     0.879956
      pz      :     0.035553  p :     0.067989
      px      :     0.013332
      py      :     0.019104


                      *****************************
                      * MAYER POPULATION ANALYSIS *
                      *****************************

  NA   - Mulliken gross atomic population
  ZA   - Total nuclear charge
  QA   - Mulliken gross atomic charge
  VA   - Mayer's total valence
  BVA  - Mayer's bonded valence
  FA   - Mayer's free valence

  ATOM       NA         ZA         QA         VA         BVA        FA
  0 C      6.0866     6.0000    -0.0866     4.0520     4.0520    -0.0000
  1 C      6.0866     6.0000    -0.0866     4.0520     4.0520    -0.0000
  2 N      7.2346     7.0000    -0.2346     3.4972     3.4972    -0.0000
  3 N      7.2346     7.0000    -0.2346     3.4972     3.4972    -0.0000
  4 C      5.7756     6.0000     0.2244     3.8558     3.8558     0.0000
  5 C      5.9068     6.0000     0.0932     3.8615     3.8615     0.0000
  6 C      5.9068     6.0000     0.0932     3.8615     3.8615     0.0000
  7 H      0.9102     1.0000     0.0898     0.9923     0.9923     0.0000
  8 H      0.9102     1.0000     0.0898     0.9923     0.9923     0.0000
  9 H      0.9102     1.0000     0.0898     0.9923     0.9923     0.0000
 10 H      0.9102     1.0000     0.0898     0.9923     0.9923     0.0000
 11 H      0.9103     1.0000     0.0897     0.9973     0.9973     0.0000
 12 H      0.9103     1.0000     0.0897     0.9973     0.9973     0.0000
 13 H      0.8710     1.0000     0.1290     0.9943     0.9943    -0.0000
 14 C      5.9116     6.0000     0.0884     3.9538     3.9538     0.0000
 15 C      5.9116     6.0000     0.0884     3.9538     3.9538    -0.0000
 16 H      0.9296     1.0000     0.0704     0.9944     0.9944     0.0000
 17 H      0.9296     1.0000     0.0704     0.9944     0.9944     0.0000
 18 H      0.9296     1.0000     0.0704     0.9944     0.9944     0.0000
 19 H      0.9296     1.0000     0.0704     0.9944     0.9944     0.0000
 20 H      0.9471     1.0000     0.0529     1.0044     1.0044     0.0000
 21 H      0.9471     1.0000     0.0529     1.0044     1.0044    -0.0000

  Mayer bond orders larger than 0.100000
B(  0-C ,  1-C ) :   1.6313 B(  0-C ,  2-N ) :   1.1539 B(  0-C , 14-C ) :   1.0934 
B(  1-C ,  3-N ) :   1.1539 B(  1-C , 15-C ) :   1.0934 B(  2-N ,  4-C ) :   1.3539 
B(  2-N ,  5-C ) :   0.9046 B(  3-N ,  4-C ) :   1.3539 B(  3-N ,  6-C ) :   0.9046 
B(  4-C , 13-H ) :   0.9693 B(  5-C ,  7-H ) :   0.9729 B(  5-C , 10-H ) :   0.9729 
B(  5-C , 11-H ) :   0.9705 B(  6-C ,  8-H ) :   0.9729 B(  6-C ,  9-H ) :   0.9729 
B(  6-C , 12-H ) :   0.9705 B( 14-C , 16-H ) :   0.9474 B( 14-C , 19-H ) :   0.9474 
B( 14-C , 20-H ) :   0.9415 B( 15-C , 17-H ) :   0.9474 B( 15-C , 18-H ) :   0.9474 
B( 15-C , 21-H ) :   0.9415 

-------
TIMINGS
-------

Total SCF time: 0 days 0 hours 0 min 59 sec 

Total time                  ....      59.801 sec
Sum of individual times     ....      59.378 sec  ( 99.3%)

Fock matrix formation       ....      57.542 sec  ( 96.2%)
  Split-RI-J                ....       2.553 sec  (  4.4% of F)
  Chain of spheres X        ....      43.409 sec  ( 75.4% of F)
  XC integration            ....       6.434 sec  ( 11.2% of F)
    Basis function eval.    ....       2.017 sec  ( 31.4% of XC)
    Density eval.           ....       1.213 sec  ( 18.9% of XC)
    XC-Functional eval.     ....       0.813 sec  ( 12.6% of XC)
    XC-Potential eval.      ....       1.340 sec  ( 20.8% of XC)
Diagonalization             ....       0.100 sec  (  0.2%)
Density matrix formation    ....       0.007 sec  (  0.0%)
Population analysis         ....       0.018 sec  (  0.0%)
Initial guess               ....       0.193 sec  (  0.3%)
Orbital Transformation      ....       0.000 sec  (  0.0%)
Orbital Orthonormalization  ....       0.000 sec  (  0.0%)
DIIS solution               ....       0.073 sec  (  0.1%)
SOSCF solution              ....       0.031 sec  (  0.1%)
Grid generation             ....       1.415 sec  (  2.4%)

Maximum memory used throughout the entire SCF-calculation: 57.2 MB


-------------------------------------------------------------------------------
                          DFT DISPERSION CORRECTION                            
                                                                               
                                 DFTD4 V2.5                                    
-------------------------------------------------------------------------------
The WB97X functional is recognized
Active option DFTDOPT                   ...         5   

Starting D4
-------------------------   ----------------
Dispersion correction           -0.002853594
-------------------------   ----------------


-------------------------   --------------------
FINAL SINGLE POINT ENERGY      -383.586678599813
-------------------------   --------------------



           ************************************************************
           *        Program running with 4 parallel MPI-processes     *
           *              working on a common directory               *
           ************************************************************
------------------------------------------------------------------------------
                         ORCA SCF GRADIENT CALCULATION
------------------------------------------------------------------------------

 ... reading COSX grid (gridx3)
Gradient of the Kohn-Sham DFT energy:
Kohn-Sham wavefunction type      ... RKS
Hartree-Fock exchange scaling    ...    0.158
Number of operators              ...    1
Number of atoms                  ...   22
Basis set dimensions             ...  191
Integral neglect threshold       ... 2.5e-11
Integral primitive cutoff        ... 2.5e-12
SHARK Integral package           ... ON

Nuc. rep. gradient       (SHARK) ... done (  0.0 sec)
HCore & Overlap gradient (SHARK) ... done (  0.1 sec)
RI-J gradient            (SHARK) ... done (  0.6 sec)
COSX-gradient                    ... done (  9.4 sec)
Exchange-correlation gradient    ... done
Dispersion correction            ... Starting D4
Starting D4
Starting D4
Starting D4


------------------- 
Dispersion Gradient 
------------------- 
   1  :   -0.000000000    0.000004965   -0.000002521
   2  :   -0.000000000   -0.000004965   -0.000002521
   3  :    0.000000000    0.000021618    0.000014886
   4  :    0.000000000   -0.000021618    0.000014886
   5  :   -0.000000000   -0.000000000    0.000042721
   6  :   -0.000000000    0.000043466    0.000019047
   7  :   -0.000000000   -0.000043466    0.000019047
   8  :   -0.000002416    0.000009817    0.000004346
   9  :   -0.000002416   -0.000009817    0.000004346
  10  :    0.000002416   -0.000009817    0.000004346
  11  :    0.000002416    0.000009817    0.000004346
  12  :   -0.000000000    0.000009461    0.000008308
  13  :   -0.000000000   -0.000009461    0.000008308
  14  :   -0.000000000   -0.000000000    0.000009113
  15  :    0.000000000    0.000029506   -0.000031259
  16  :   -0.000000000   -0.000029506   -0.000031259
  17  :    0.000002977    0.000009229   -0.000006914
  18  :    0.000002977   -0.000009229   -0.000006914
  19  :   -0.000002977   -0.000009229   -0.000006914
  20  :   -0.000002977    0.000009229   -0.000006914
  21  :   -0.000000000    0.000005596   -0.000011863
  22  :   -0.000000000   -0.000005596   -0.000011863

  |G| =    0.000599615

done

------------------
CARTESIAN GRADIENT
------------------

   1   C   :    0.000000032    0.000543298   -0.004937051
   2   C   :    0.000000048   -0.000543265   -0.004937036
   3   N   :    0.000000013    0.001089129   -0.001280906
   4   N   :   -0.000000055   -0.001089092   -0.001281067
   5   C   :   -0.000000002    0.000000055    0.018128550
   6   C   :   -0.000000026    0.009502868    0.003907854
   7   C   :   -0.000000003   -0.009502878    0.003907884
   8   H   :    0.004672548   -0.001857647    0.002607437
   9   H   :    0.004672541    0.001857680    0.002607408
  10   H   :   -0.004672539    0.001857660    0.002607411
  11   H   :   -0.004672549   -0.001857654    0.002607424
  12   H   :   -0.000000000    0.001012592   -0.005615624
  13   H   :   -0.000000007   -0.001012587   -0.005615623
  14   H   :    0.000000009    0.000000007   -0.009774489
  15   C   :    0.000000013    0.001850214   -0.003487806
  16   C   :    0.000000006   -0.001850331   -0.003487931
  17   H   :   -0.004065775   -0.002691740   -0.001313035
  18   H   :   -0.004065806    0.002691748   -0.001313042
  19   H   :    0.004065783    0.002691763   -0.001313054
  20   H   :    0.004065768   -0.002691728   -0.001313047
  21   H   :   -0.000000005    0.004009220    0.004717505
  22   H   :   -0.000000003   -0.004009206    0.004717520

Difference to translation invariance:
           :   -0.0000000110    0.0000001064    0.0001392828

Difference to rotation invariance:
           :    0.0000003934   -0.0000001558   -0.0000002078

Norm of the cartesian gradient     ...    0.0330698633
RMS gradient                       ...    0.0040706188
MAX gradient                       ...    0.0181285503

-------
TIMINGS
-------

Total SCF gradient time            ...       13.156 sec

One electron gradient       ....       0.108 sec  (  0.8%)
RI-J Coulomb gradient       ....       0.580 sec  (  4.4%)
COSX gradient               ....       9.379 sec  ( 71.3%)
XC gradient                 ....       2.126 sec  ( 16.2%)
CPCM gradient               ....       0.303 sec  (  2.3%)
   A-Matrix (El+Nuc)        ....       0.071 sec  (  0.5%)
   Potential                ....       0.232 sec  (  1.8%)

Maximum memory used throughout the entire SCFGRAD-calculation: 44.4 MB
------------------------------------------------------------------------------
                         ORCA GEOMETRY RELAXATION STEP
------------------------------------------------------------------------------

Reading the OPT-File                    .... done
Getting information on internals        .... done
Copying old internal coords+grads       .... done
Making the new internal coordinates     .... (new redundants).... done
Validating the new internal coordinates .... (new redundants).... done
Calculating the B-matrix                .... done
Calculating the G,G- and P matrices     .... done
Transforming gradient to internals      .... done
Projecting the internal gradient        .... done
Number of atoms                         ....  22
Number of internal coordinates          .... 105
Current Energy                          ....  -383.586678600 Eh
Current gradient norm                   ....     0.033069863 Eh/bohr
Maximum allowed component of the step   ....  0.300
Current trust radius                    ....  0.300
Evaluating the initial hessian          ....  (Almloef) done
Projecting the Hessian                  .... done
Forming the augmented Hessian           .... done
Diagonalizing the augmented Hessian     .... done
Last element of RFO vector              ....  0.997477805
Lowest eigenvalues of augmented Hessian:
 -0.001983862  0.013839087  0.013839087  0.015140894  0.015140894
Length of the computed step             ....  0.071158540
The final length of the internal step   ....  0.071158540
Converting the step to cartesian space:
 Initial RMS(Int)=    0.0069443624
Transforming coordinates:
 Iter   0:  RMS(Cart)=    0.0151944385 RMS(Int)=    1.5019845676
 Iter   1:  RMS(Cart)=    0.0000493832 RMS(Int)=    0.0000252731
 Iter   2:  RMS(Cart)=    0.0000003708 RMS(Int)=    0.0000002838
 Iter   3:  RMS(Cart)=    0.0000000039 RMS(Int)=    0.0000000028
done
[...]
     49       0.259112   0.003991  -0.000109   0.294577   0.295010   0.125476
     50       0.018640   0.000613   0.000621   0.020658   0.021018   0.004474
     51       0.365547  -0.004903  -0.000553   0.400808  -0.400149  -0.181718
     52      -0.259057   0.003991   0.000107  -0.295073   0.294515   0.125490
     53       0.018636  -0.000612   0.000621   0.020693  -0.020983  -0.004474
     54      -0.365549   0.004903   0.000553   0.400807  -0.400148   0.181717
     55      -0.259058   0.003991   0.000107   0.295073  -0.294514   0.125489
     56       0.018636  -0.000612   0.000621  -0.020693   0.020983  -0.004474
     57      -0.365624  -0.004903   0.000555   0.400135   0.400821  -0.181697
     58       0.259112   0.003991  -0.000109  -0.294578  -0.295011   0.125476
     59       0.018640   0.000613   0.000621  -0.020658  -0.021018   0.004474
     60      -0.000000  -0.000000   0.000000  -0.006981  -0.007065   0.000000
     61      -0.152963  -0.002835  -0.001024  -0.000000   0.000000   0.304110
     62      -0.270069  -0.003785  -0.000361  -0.000000   0.000000   0.552698
     63       0.000000   0.000000  -0.000000  -0.006992   0.007053   0.000000
     64       0.152930  -0.002834   0.001026   0.000001  -0.000001   0.304144
     65      -0.270010   0.003785  -0.000363  -0.000001   0.000002  -0.552761
                 60         61         62         63         64         65    
      0      -0.000000   0.000025  -0.000082  -0.000000  -0.000000   0.000000
      1      -0.000771   0.000000  -0.000000  -0.000443  -0.000427   0.000941
      2       0.000043   0.000000   0.000000  -0.000088   0.000031   0.002133
      3       0.000000   0.000024   0.000083   0.000000  -0.000000  -0.000000
      4       0.000771  -0.000000  -0.000000   0.000444  -0.000425  -0.000941
      5       0.000043   0.000000   0.000000  -0.000088  -0.000031   0.002133
      6       0.000000   0.000387  -0.000472   0.000000   0.000000  -0.000000
      7      -0.000277   0.000000  -0.000000  -0.000465  -0.000347  -0.003727
      8       0.000254  -0.000000   0.000000  -0.000391  -0.000305   0.002887
      9       0.000000   0.000379   0.000478   0.000000  -0.000000  -0.000000
     10       0.000277   0.000000  -0.000000   0.000466  -0.000345   0.003727
     11       0.000254   0.000000  -0.000000  -0.000392   0.000303   0.002887
     12      -0.000000  -0.000261  -0.000002   0.000000   0.000000   0.000000
     13       0.000000  -0.000000  -0.000000  -0.000000   0.000222  -0.000000
     14       0.000181  -0.000000   0.000000   0.000358   0.000001  -0.094048
     15      -0.000000  -0.068575   0.067412  -0.000000  -0.000000   0.000000
     16       0.000195   0.000000  -0.000000  -0.018935  -0.019038  -0.000009
     17      -0.000251  -0.000000   0.000000   0.065234   0.065422   0.000208
     18      -0.000000  -0.067447  -0.068541  -0.000000   0.000000   0.000000
     19      -0.000195  -0.000000  -0.000000   0.019006  -0.018967   0.000009
     20      -0.000252  -0.000000  -0.000000   0.065478  -0.065178   0.000208
     21       0.000964   0.409134  -0.402362  -0.211634  -0.212663  -0.001906
     22      -0.000686  -0.231925   0.228198   0.115382   0.116028   0.002155
     23       0.000829   0.174824  -0.171892  -0.082808  -0.083244  -0.000202
     24       0.000965   0.402399   0.409098  -0.212428   0.211868  -0.001906
     25       0.000686   0.228105   0.232017  -0.115815   0.115594  -0.002155
     26       0.000829   0.171946   0.174770  -0.083118   0.082932  -0.000202
     27      -0.000963   0.402399   0.409098   0.212430  -0.211870   0.001906
     28       0.000685  -0.228104  -0.232016  -0.115816   0.115595  -0.002155
     29       0.000829  -0.171946  -0.174769  -0.083119   0.082933  -0.000202
     30      -0.000963   0.409135  -0.402362   0.211633   0.212663   0.001906
     31      -0.000685   0.231925  -0.228198   0.115381   0.116027   0.002155
     32       0.000829  -0.174823   0.171891  -0.082807  -0.083243  -0.000202
     33      -0.000000  -0.006041   0.005955   0.000001   0.000001   0.000000
     34       0.000138   0.000000  -0.000000   0.001719   0.001739   0.001680
     35       0.001565  -0.000001   0.000001  -0.602953  -0.604953  -0.004519
     36      -0.000000  -0.005942  -0.006055   0.000000  -0.000000   0.000000
     37      -0.000138  -0.000000  -0.000000  -0.001725   0.001733  -0.001680
     38       0.001566   0.000002   0.000002  -0.605214   0.602690  -0.004519
     39      -0.000000   0.000553   0.000005   0.000000  -0.000000  -0.000000
     40       0.000000   0.000000   0.000000  -0.000002   0.001237   0.000000
     41      -0.001655   0.000000   0.000000  -0.008118  -0.000015   0.995496
     42       0.000000   0.000835  -0.000920  -0.000000   0.000000  -0.000000
     43      -0.045254   0.000000  -0.000000  -0.000026  -0.000187  -0.000018
     44      -0.047803   0.000000  -0.000000  -0.000123  -0.000307  -0.000203
     45      -0.000000   0.000820   0.000934   0.000000  -0.000000   0.000000
     46       0.045249  -0.000000  -0.000000   0.000027  -0.000187   0.000018
     47      -0.047798   0.000000   0.000000  -0.000124   0.000307  -0.000203
     48       0.176142  -0.004918   0.005364   0.000684   0.001143  -0.000364
     49       0.121473  -0.003424   0.003727   0.000184   0.000493  -0.000485
     50       0.004178  -0.000789   0.000887  -0.000430  -0.000421   0.000284
     51       0.176123  -0.004829  -0.005445   0.000689  -0.001141  -0.000364
     52      -0.121460   0.003362   0.003784  -0.000186   0.000492   0.000485
     53       0.004178  -0.000774  -0.000900  -0.000432   0.000419   0.000284
     54      -0.176121  -0.004828  -0.005444  -0.000689   0.001141   0.000364
     55      -0.121459  -0.003361  -0.003783  -0.000186   0.000492   0.000485
     56       0.004178   0.000774   0.000900  -0.000432   0.000419   0.000284
     57      -0.176143  -0.004918   0.005363  -0.000684  -0.001143   0.000364
     58       0.121473   0.003423  -0.003727   0.000184   0.000493  -0.000485
     59       0.004179   0.000789  -0.000887  -0.000430  -0.000421   0.000284
     60       0.000000   0.000412  -0.000419  -0.000000   0.000000   0.000000
     61       0.306874  -0.000000   0.000000   0.001296   0.002256   0.000960
     62       0.556726  -0.000001   0.000000   0.001989   0.003785   0.001340
     63      -0.000000   0.000405   0.000426   0.000000  -0.000000  -0.000000
     64      -0.306840   0.000001   0.000000  -0.001306   0.002252  -0.000961
     65       0.556664  -0.000001  -0.000001   0.002005  -0.003779   0.001340


-----------
IR SPECTRUM
-----------

 Mode   freq       eps      Int      T**2         TX        TY        TZ
       cm**-1   L/(mol*cm) km/mol    a.u.
----------------------------------------------------------------------------
  6:     97.21   0.000058    0.29  0.000186  ( 0.013647 -0.000000  0.000000)
  7:    100.24   0.000000    0.00  0.000000  ( 0.000003 -0.000000  0.000000)
  8:    135.86   0.000000    0.00  0.000000  (-0.000000  0.000000  0.000000)
  9:    155.25   0.000296    1.49  0.000594  ( 0.024378  0.000000 -0.000000)
 10:    158.65   0.000000    0.00  0.000000  ( 0.000002 -0.000000 -0.000000)
 11:    173.63   0.001941    9.81  0.003488  (-0.059063 -0.000000 -0.000000)
 12:    274.60   0.000212    1.07  0.000240  ( 0.000000  0.000003 -0.015506)
 13:    275.20   0.000262    1.32  0.000297  (-0.000000  0.017235  0.000003)
 14:    291.00   0.000150    0.76  0.000160  (-0.000001 -0.000000 -0.012668)
 15:    302.01   0.002039   10.31  0.002107  (-0.045906 -0.000000  0.000000)
 16:    324.13   0.000000    0.00  0.000000  ( 0.000000 -0.000000  0.000000)
 17:    537.51   0.000447    2.26  0.000260  (-0.000000 -0.016114  0.000000)
 18:    577.41   0.000573    2.90  0.000310  ( 0.000000 -0.017597  0.000000)
 19:    621.75   0.000468    2.36  0.000235  (-0.000000  0.000000  0.015320)
 20:    643.47   0.003720   18.80  0.001804  ( 0.042472  0.000000 -0.000000)
 21:    694.04   0.000000    0.00  0.000000  (-0.000000 -0.000000 -0.000000)
 22:    742.39   0.000516    2.61  0.000217  ( 0.000000  0.000000  0.014724)
 23:    860.24   0.003217   16.26  0.001167  ( 0.034163  0.000000 -0.000000)
 24:    861.72   0.001737    8.78  0.000629  ( 0.000000 -0.025084 -0.000000)
 25:    977.28   0.000122    0.62  0.000039  ( 0.000000 -0.000000 -0.006234)
 26:   1046.41   0.001754    8.86  0.000523  ( 0.022868  0.000000  0.000000)
 27:   1069.00   0.000000    0.00  0.000000  (-0.000000  0.000000  0.000000)
 28:   1081.32   0.002338   11.81  0.000675  (-0.000000 -0.025974 -0.000000)
 29:   1105.89   0.000279    1.41  0.000079  ( 0.000000  0.000000  0.008871)
 30:   1118.32   0.002639   13.34  0.000736  (-0.000000 -0.027136  0.000000)
 31:   1140.79   0.000000    0.00  0.000000  (-0.000000  0.000000  0.000000)
 32:   1145.56   0.000134    0.68  0.000037  (-0.006049  0.000000 -0.000000)
 33:   1193.85   0.000015    0.08  0.000004  (-0.000000  0.000000 -0.001979)
 34:   1233.50   0.015726   79.47  0.003979  ( 0.000000 -0.063076  0.000000)
 35:   1282.70   0.000669    3.38  0.000163  ( 0.000000 -0.012758 -0.000000)
 36:   1396.27   0.000144    0.73  0.000032  ( 0.000000  0.000000  0.005673)
 37:   1401.64   0.001530    7.73  0.000341  (-0.000000 -0.018456  0.000000)
 38:   1417.15   0.000246    1.24  0.000054  (-0.000000  0.000000 -0.007353)
 39:   1434.57   0.005784   29.23  0.001258  (-0.000000  0.035472  0.000000)
 40:   1436.95   0.001301    6.57  0.000282  ( 0.016806  0.000000 -0.000000)
 41:   1437.59   0.000000    0.00  0.000000  (-0.000002  0.000000 -0.000000)
 42:   1442.43   0.001409    7.12  0.000305  ( 0.000000 -0.017460 -0.000000)
 43:   1444.21   0.000181    0.91  0.000039  ( 0.000001 -0.000000  0.006252)
 44:   1445.30   0.000000    0.00  0.000000  ( 0.000001 -0.000000  0.000000)
 45:   1445.89   0.015313   77.39  0.003305  (-0.057490 -0.000000  0.000002)
 46:   1447.93   0.012023   60.76  0.002591  ( 0.000002 -0.000000  0.050905)
 47:   1458.91   0.000013    0.07  0.000003  (-0.000000  0.001660 -0.000000)
 48:   1473.03   0.004819   24.35  0.001021  ( 0.000000 -0.000000  0.031951)
 49:   1528.75   0.000012    0.06  0.000002  ( 0.000000 -0.001553 -0.000000)
 50:   1545.03   0.000122    0.62  0.000025  ( 0.000000 -0.000000  0.004962)
 51:   1674.47   0.033839  171.01  0.006306  (-0.000000  0.079413 -0.000000)
 52:   1740.88   0.007291   36.85  0.001307  ( 0.000000  0.000000 -0.036153)
 53:   3075.46   0.002898   14.65  0.000294  ( 0.000000 -0.017149 -0.000001)
 54:   3076.48   0.001265    6.39  0.000128  ( 0.000000 -0.000002  0.011329)
 55:   3096.69   0.004324   21.85  0.000436  ( 0.000000  0.020874  0.000001)
 56:   3097.04   0.000331    1.67  0.000033  (-0.000000 -0.000004  0.005778)
 57:   3169.10   0.001149    5.81  0.000113  (-0.010636  0.000000  0.000000)
 58:   3169.28   0.000000    0.00  0.000000  (-0.000009 -0.000000 -0.000000)
 59:   3203.58   0.000272    1.37  0.000026  ( 0.000000 -0.005146  0.000000)
 60:   3206.40   0.000623    3.15  0.000061  (-0.000000 -0.000000 -0.007788)
 61:   3211.55   0.000207    1.05  0.000020  (-0.004487 -0.000000 -0.000000)
 62:   3211.56   0.000000    0.00  0.000000  (-0.000037  0.000000 -0.000000)
 63:   3228.34   0.000017    0.09  0.000002  ( 0.000000  0.000001  0.001276)
 64:   3228.39   0.000005    0.02  0.000000  (-0.000000 -0.000682  0.000002)
 65:   3301.00   0.011152   56.36  0.001054  ( 0.000000  0.000000  0.032469)

* The epsilon (eps) is given for a Dirac delta lineshape.
** The dipole moment derivative (T) already includes vibrational overlap.

The first frequency considered to be a vibration is 6
The total number of vibrations considered is 60


--------------------------
THERMOCHEMISTRY AT 298.15K
--------------------------

Temperature         ... 298.15 K
Pressure            ... 1.00 atm
Total Mass          ... 125.19 AMU

Throughout the following assumptions are being made:
  (1) The electronic state is orbitally nondegenerate
  (2) There are no thermally accessible electronically excited states
  (3) Hindered rotations indicated by low frequency modes are not
      treated as such but are treated as vibrations and this may
      cause some error
  (4) All equations used are the standard statistical mechanics
      equations for an ideal gas
  (5) All vibrations are strictly harmonic

freq.      97.21  E(vib)   ...       0.46 
freq.     100.24  E(vib)   ...       0.46 
freq.     135.86  E(vib)   ...       0.42 
freq.     155.25  E(vib)   ...       0.40 
freq.     158.65  E(vib)   ...       0.39 
freq.     173.63  E(vib)   ...       0.38 
freq.     274.60  E(vib)   ...       0.28 
freq.     275.20  E(vib)   ...       0.28 
freq.     291.00  E(vib)   ...       0.27 
freq.     302.01  E(vib)   ...       0.26 
freq.     324.13  E(vib)   ...       0.25 
freq.     537.51  E(vib)   ...       0.12 
freq.     577.41  E(vib)   ...       0.11 
freq.     621.75  E(vib)   ...       0.09 
freq.     643.47  E(vib)   ...       0.09 
freq.     694.04  E(vib)   ...       0.07 
freq.     742.39  E(vib)   ...       0.06 
freq.     860.24  E(vib)   ...       0.04 
freq.     861.72  E(vib)   ...       0.04 
freq.     977.28  E(vib)   ...       0.03 
freq.    1046.41  E(vib)   ...       0.02 
freq.    1069.00  E(vib)   ...       0.02 
freq.    1081.32  E(vib)   ...       0.02 
freq.    1105.89  E(vib)   ...       0.02 
freq.    1118.32  E(vib)   ...       0.01 
freq.    1140.79  E(vib)   ...       0.01 
freq.    1145.56  E(vib)   ...       0.01 
freq.    1193.85  E(vib)   ...       0.01 
freq.    1233.50  E(vib)   ...       0.01 
freq.    1282.70  E(vib)   ...       0.01 
freq.    1396.27  E(vib)   ...       0.00 
freq.    1401.64  E(vib)   ...       0.00 
freq.    1417.15  E(vib)   ...       0.00 
freq.    1434.57  E(vib)   ...       0.00 
freq.    1436.95  E(vib)   ...       0.00 
freq.    1437.59  E(vib)   ...       0.00 
freq.    1442.43  E(vib)   ...       0.00 
freq.    1444.21  E(vib)   ...       0.00 
freq.    1445.30  E(vib)   ...       0.00 
freq.    1445.89  E(vib)   ...       0.00 
freq.    1447.93  E(vib)   ...       0.00 
freq.    1458.91  E(vib)   ...       0.00 
freq.    1473.03  E(vib)   ...       0.00 
freq.    1528.75  E(vib)   ...       0.00 
freq.    1545.03  E(vib)   ...       0.00 
freq.    1674.47  E(vib)   ...       0.00 
freq.    1740.88  E(vib)   ...       0.00 
freq.    3075.46  E(vib)   ...       0.00 
freq.    3076.48  E(vib)   ...       0.00 
freq.    3096.69  E(vib)   ...       0.00 
freq.    3097.04  E(vib)   ...       0.00 
freq.    3169.10  E(vib)   ...       0.00 
freq.    3169.28  E(vib)   ...       0.00 
freq.    3203.58  E(vib)   ...       0.00 
freq.    3206.40  E(vib)   ...       0.00 
freq.    3211.55  E(vib)   ...       0.00 
freq.    3211.56  E(vib)   ...       0.00 
freq.    3228.34  E(vib)   ...       0.00 
freq.    3228.39  E(vib)   ...       0.00 
freq.    3301.00  E(vib)   ...       0.00 

------------
INNER ENERGY
------------

The inner energy is: U= E(el) + E(ZPE) + E(vib) + E(rot) + E(trans)
    E(el)   - is the total energy from the electronic structure calculation
              = E(kin-el) + E(nuc-el) + E(el-el) + E(nuc-nuc)
    E(ZPE)  - the the zero temperature vibrational energy from the frequency calculation
    E(vib)  - the the finite temperature correction to E(ZPE) due to population
              of excited vibrational states
    E(rot)  - is the rotational thermal energy
    E(trans)- is the translational thermal energy

Summary of contributions to the inner energy U:
Electronic energy                ...   -383.58775781 Eh
Zero point energy                ...      0.19744141 Eh     123.90 kcal/mol
Thermal vibrational correction   ...      0.00750239 Eh       4.71 kcal/mol
Thermal rotational correction    ...      0.00141627 Eh       0.89 kcal/mol
Thermal translational correction ...      0.00141627 Eh       0.89 kcal/mol
-----------------------------------------------------------------------
Total thermal energy                   -383.37998147 Eh


Summary of corrections to the electronic energy:
(perhaps to be used in another calculation)
Total thermal correction                  0.01033493 Eh       6.49 kcal/mol
Non-thermal (ZPE) correction              0.19744141 Eh     123.90 kcal/mol
-----------------------------------------------------------------------
Total correction                          0.20777634 Eh     130.38 kcal/mol


--------
ENTHALPY
--------

The enthalpy is H = U + kB*T
                kB is Boltzmann's constant
Total free energy                 ...   -383.37998147 Eh 
Thermal Enthalpy correction       ...      0.00094421 Eh       0.59 kcal/mol
-----------------------------------------------------------------------
Total Enthalpy                    ...   -383.37903726 Eh


Note: Rotational entropy computed according to Herzberg 
Infrared and Raman Spectra, Chapter V,1, Van Nostrand Reinhold, 1945 
Point Group:  C2v, Symmetry Number:   2  
Rotational constants in cm-1:     0.081296     0.050365     0.031857 

Vibrational entropy computed according to the QRRHO of S. Grimme
Chem.Eur.J. 2012 18 9955


-------
ENTROPY
-------

The entropy contributions are T*S = T*(S(el)+S(vib)+S(rot)+S(trans))
     S(el)   - electronic entropy
     S(vib)  - vibrational entropy
     S(rot)  - rotational entropy
     S(trans)- translational entropy
The entropies will be listed as multiplied by the temperature to get
units of energy

Electronic entropy                ...      0.00000000 Eh      0.00 kcal/mol
Vibrational entropy               ...      0.01310610 Eh      8.22 kcal/mol
Rotational entropy                ...      0.01307903 Eh      8.21 kcal/mol
Translational entropy             ...      0.01918948 Eh     12.04 kcal/mol
-----------------------------------------------------------------------
Final entropy term                ...      0.04537461 Eh     28.47 kcal/mol

In case the symmetry of your molecule has not been determined correctly
or in case you have a reason to use a different symmetry number we print 
out the resulting rotational entropy values for sn=1,12 :
 --------------------------------------------------------
|  sn= 1 | S(rot)=       0.01373348 Eh      8.62 kcal/mol|
|  sn= 2 | S(rot)=       0.01307903 Eh      8.21 kcal/mol|
|  sn= 3 | S(rot)=       0.01269620 Eh      7.97 kcal/mol|
|  sn= 4 | S(rot)=       0.01242457 Eh      7.80 kcal/mol|
|  sn= 5 | S(rot)=       0.01221388 Eh      7.66 kcal/mol|
|  sn= 6 | S(rot)=       0.01204174 Eh      7.56 kcal/mol|
|  sn= 7 | S(rot)=       0.01189619 Eh      7.46 kcal/mol|
|  sn= 8 | S(rot)=       0.01177012 Eh      7.39 kcal/mol|
|  sn= 9 | S(rot)=       0.01165891 Eh      7.32 kcal/mol|
|  sn=10 | S(rot)=       0.01155943 Eh      7.25 kcal/mol|
|  sn=11 | S(rot)=       0.01146944 Eh      7.20 kcal/mol|
|  sn=12 | S(rot)=       0.01138728 Eh      7.15 kcal/mol|
 --------------------------------------------------------


-------------------
GIBBS FREE ENERGY
-------------------

The Gibbs free energy is G = H - T*S

Total enthalpy                    ...   -383.37903726 Eh 
Total entropy correction          ...     -0.04537461 Eh    -28.47 kcal/mol
-----------------------------------------------------------------------
Final Gibbs free energy         ...   -383.42441187 Eh

For completeness - the Gibbs free energy minus the electronic energy
G-E(el)                           ...      0.16334594 Eh    102.50 kcal/mol


Timings for individual modules:

Sum of individual times         ...      513.939 sec (=   8.566 min)
GTO integral calculation        ...        2.632 sec (=   0.044 min)   0.5 %
SCF iterations                  ...      214.749 sec (=   3.579 min)  41.8 %
SCF Gradient evaluation         ...       54.466 sec (=   0.908 min)  10.6 %
Geometry relaxation             ...        0.216 sec (=   0.004 min)   0.0 %
Analytical frequency calculation...      241.875 sec (=   4.031 min)  47.1 %
                             ****ORCA TERMINATED NORMALLY****
TOTAL RUN TIME: 0 days 0 hours 8 minutes 35 seconds 962 msec
