
                                 *****************
                                 * O   R   C   A *
                                 *****************

                                            #,                                       
                                            ###                                      
                                            ####                                     
                                            #####                                    
                                            ######                                   
                                           ########,                                 
                                     ,,################,,,,,                         
                               ,,#################################,,                 
                          ,,##########################################,,             
                       ,#########################################, ''#####,          
                    ,#############################################,,   '####,        
                  ,##################################################,,,,####,       
                ,###########''''           ''''###############################       
              ,#####''   ,,,,##########,,,,          '''####'''          '####       
            ,##' ,,,,###########################,,,                        '##       
           ' ,,###''''                  '''############,,,                           
         ,,##''                                '''############,,,,        ,,,,,,###''
      ,#''                                            '''#######################'''  
     '                                                          ''''####''''         
             ,#######,   #######,   ,#######,      ##                                
            ,#'     '#,  ##    ##  ,#'     '#,    #''#        ######   ,####,        
            ##       ##  ##   ,#'  ##            #'  '#       #        #'  '#        
            ##       ##  #######   ##           ,######,      #####,   #    #        
            '#,     ,#'  ##    ##  '#,     ,#' ,#      #,         ##   #,  ,#        
             '#######'   ##     ##  '#######'  #'      '#     #####' # '####'        



                  #######################################################
                  #                        -***-                        #
                  #          Department of theory and spectroscopy      #
                  #    Directorship and core code : Frank Neese         #
                  #        Max Planck Institute fuer Kohlenforschung    #
                  #                Kaiser Wilhelm Platz 1               #
                  #                 D-45470 Muelheim/Ruhr               #
                  #                      Germany                        #
                  #                                                     #
                  #                  All rights reserved                #
                  #                        -***-                        #
                  #######################################################


                         Program Version 5.0.4 -  RELEASE  -


 With contributions from (in alphabetic order):
   Daniel Aravena         : Magnetic Suceptibility
   Michael Atanasov       : Ab Initio Ligand Field Theory (pilot matlab implementation)
   Alexander A. Auer      : GIAO ZORA, VPT2 properties, NMR spectrum
   Ute Becker             : Parallelization
   Giovanni Bistoni       : ED, misc. LED, open-shell LED, HFLD
   Martin Brehm           : Molecular dynamics
   Dmytro Bykov           : SCF Hessian
   Vijay G. Chilkuri      : MRCI spin determinant printing, contributions to CSF-ICE
   Dipayan Datta          : RHF DLPNO-CCSD density
   Achintya Kumar Dutta   : EOM-CC, STEOM-CC
   Dmitry Ganyushin       : Spin-Orbit,Spin-Spin,Magnetic field MRCI
   Miquel Garcia          : C-PCM and meta-GGA Hessian, CC/C-PCM, Gaussian charge scheme
   Yang Guo               : DLPNO-NEVPT2, F12-NEVPT2, CIM, IAO-localization
   Andreas Hansen         : Spin unrestricted coupled pair/coupled cluster methods
   Benjamin Helmich-Paris : MC-RPA, TRAH-SCF, COSX integrals
   Lee Huntington         : MR-EOM, pCC
   Robert Izsak           : Overlap fitted RIJCOSX, COSX-SCS-MP3, EOM
   Marcus Kettner         : VPT2
   Christian Kollmar      : KDIIS, OOCD, Brueckner-CCSD(T), CCSD density, CASPT2, CASPT2-K
   Simone Kossmann        : Meta GGA functionals, TD-DFT gradient, OOMP2, MP2 Hessian
   Martin Krupicka        : Initial AUTO-CI
   Lucas Lang             : DCDCAS
   Marvin Lechner         : AUTO-CI (C++ implementation), FIC-MRCC
   Dagmar Lenk            : GEPOL surface, SMD
   Dimitrios Liakos       : Extrapolation schemes; Compound Job, initial MDCI parallelization
   Dimitrios Manganas     : Further ROCIS development; embedding schemes
   Dimitrios Pantazis     : SARC Basis sets
   Anastasios Papadopoulos: AUTO-CI, single reference methods and gradients
   Taras Petrenko         : DFT Hessian,TD-DFT gradient, ASA, ECA, R-Raman, ABS, FL, XAS/XES, NRVS
   Peter Pinski           : DLPNO-MP2, DLPNO-MP2 Gradient
   Christoph Reimann      : Effective Core Potentials
   Marius Retegan         : Local ZFS, SOC
   Christoph Riplinger    : Optimizer, TS searches, QM/MM, DLPNO-CCSD(T), (RO)-DLPNO pert. Triples
   Tobias Risthaus        : Range-separated hybrids, TD-DFT gradient, RPA, STAB
   Michael Roemelt        : Original ROCIS implementation
   Masaaki Saitow         : Open-shell DLPNO-CCSD energy and density
   Barbara Sandhoefer     : DKH picture change effects
   Avijit Sen             : IP-ROCIS
   Kantharuban Sivalingam : CASSCF convergence, NEVPT2, FIC-MRCI
   Bernardo de Souza      : ESD, SOC TD-DFT
   Georgi Stoychev        : AutoAux, RI-MP2 NMR, DLPNO-MP2 response
   Willem Van den Heuvel  : Paramagnetic NMR
   Boris Wezisla          : Elementary symmetry handling
   Frank Wennmohs         : Technical directorship


 We gratefully acknowledge several colleagues who have allowed us to
 interface, adapt or use parts of their codes:
   Stefan Grimme, W. Hujo, H. Kruse, P. Pracht,  : VdW corrections, initial TS optimization,
                  C. Bannwarth, S. Ehlert          DFT functionals, gCP, sTDA/sTD-DF
   Ed Valeev, F. Pavosevic, A. Kumar             : LibInt (2-el integral package), F12 methods
   Garnet Chan, S. Sharma, J. Yang, R. Olivares  : DMRG
   Ulf Ekstrom                                   : XCFun DFT Library
   Mihaly Kallay                                 : mrcc  (arbitrary order and MRCC methods)
   Jiri Pittner, Ondrej Demel                    : Mk-CCSD
   Frank Weinhold                                : gennbo (NPA and NBO analysis)
   Christopher J. Cramer and Donald G. Truhlar   : smd solvation model
   Lars Goerigk                                  : TD-DFT with DH, B97 family of functionals
   V. Asgeirsson, H. Jonsson                     : NEB implementation
   FAccTs GmbH                                   : IRC, NEB, NEB-TS, DLPNO-Multilevel, CI-OPT
                                                   MM, QMMM, 2- and 3-layer-ONIOM, Crystal-QMMM,
                                                   LR-CPCM, SF, NACMEs, symmetry and pop. for TD-DFT,
                                                   nearIR, NL-DFT gradient (VV10), updates on ESD,
                                                   ML-optimized integration grids
   S Lehtola, MJT Oliveira, MAL Marques          : LibXC Library
   Liviu Ungur et al                             : ANISO software


 Your calculation uses the libint2 library for the computation of 2-el integrals
 For citations please refer to: http://libint.valeyev.net

 Your ORCA version has been built with support for libXC version: 5.1.0
 For citations please refer to: https://tddft.org/programs/libxc/

 This ORCA versions uses:
   CBLAS   interface :  Fast vector & matrix operations
   LAPACKE interface :  Fast linear algebra routines
   SCALAPACK package :  Parallel linear algebra routines
   Shared memory     :  Shared parallel matrices
   BLAS/LAPACK       :  OpenBLAS 0.3.15  USE64BITINT DYNAMIC_ARCH NO_AFFINITY SkylakeX SINGLE_THREADED
        Core in use  :  SkylakeX
   Copyright (c) 2011-2014, The OpenBLAS Project




***************************************
The coordinates will be read from file: 8_prot.xyz
***************************************


Your calculation utilizes the atom-pairwise dispersion correction
based on tight binding partial charges (D4)
Cite in your paper:
E.Caldeweyher, C.Bannwarth, S.Grimme, J.Chem.Phys., (2017), 147, 034112.
E.Caldeweyher, S.Ehlert, A.Hansen, H.Neugebauer, S.Grimme, J.Chem.Phys., (2018), in progress.
   

XCFun DFT library Copyright 2009-2010 Ulf Ekstrom and contributors.
See http://admol.org/xcfun for more information.
This is free software; see the source code for copying conditions.
There is ABSOLUTELY NO WARRANTY; not even for MERCHANTABILITY or FITNESS FOR A PARTICULAR PURPOSE.
For details see the documentation.
Scientific users of this library should cite U. Ekstrom, L. Visscher, R. Bast, A. J. Thorvaldsen and K. Ruud;
J.Chem.Theor.Comp. 2010, DOI: 10.1021/ct100117s
XCFun Version 0.99 

================================================================================

----- Orbital basis set information -----
Your calculation utilizes the basis: def2-SVP
   F. Weigend and R. Ahlrichs, Phys. Chem. Chem. Phys. 7, 3297 (2005).

----- AuxJ basis set information -----
Your calculation utilizes the auxiliary basis: def2/J
   F. Weigend, Phys. Chem. Chem. Phys. 8, 1057 (2006).

================================================================================
                                        WARNINGS
                       Please study these warnings very carefully!
================================================================================


WARNING: Geometry Optimization
  ===> : Switching off AutoStart
         For restart on a previous wavefunction, please use MOREAD

INFO   : the flag for use of the SHARK integral package has been found!

================================================================================
                                       INPUT FILE
================================================================================
NAME = 8_prot.inp
|  1> # ORCA 5.0.4 - /users/bwb16179/postgrad/2024_02/Carbene_DFT_validation/8.inp # write input file
|  2> # Basic Mode
|  3> #
|  4> ! Opt Freq wB97X Def2-SVP D4 SlowConv TightSCF Defgrid2 Def2/J RIJCOSX CPCM(Water)
|  5> 
|  6> %PAL NPROCS 4 END
|  7> 
|  8> %maxcore 4500
|  9> 
| 10> %geom
| 11> Maxiter 150
| 12> END
| 13> 
| 14> * xyzfile 1 1 8_prot.xyz
| 15> 
| 16>                          ****END OF INPUT****
================================================================================

                       *****************************
                       * Geometry Optimization Run *
                       *****************************

Geometry optimization settings:
Update method            Update   .... BFGS
Choice of coordinates    CoordSys .... Z-matrix Internals
Initial Hessian          InHess   .... Almoef's Model

Convergence Tolerances:
Energy Change            TolE     ....  5.0000e-06 Eh
Max. Gradient            TolMAXG  ....  3.0000e-04 Eh/bohr
RMS Gradient             TolRMSG  ....  1.0000e-04 Eh/bohr
Max. Displacement        TolMAXD  ....  4.0000e-03 bohr
RMS Displacement         TolRMSD  ....  2.0000e-03 bohr
Strict Convergence                ....  False
------------------------------------------------------------------------------
                        ORCA OPTIMIZATION COORDINATE SETUP
------------------------------------------------------------------------------

The optimization will be done in new redundant internal coordinates
Making redundant internal coordinates   ...  (new redundants) done
Evaluating the initial hessian          ...  (Almloef) done
Evaluating the coordinates              ...  done
Calculating the B-matrix                .... done
Calculating the G-matrix                .... done
Diagonalizing the G-matrix              .... done
Small eigenvalue found = 3.406e-03
Small eigenvalue found = 6.146e-03
Small eigenvalue found = 8.118e-03
Small eigenvalue found = 1.288e-02
Small eigenvalue found = 1.798e-02
The first mode is                       ....   99
The number of degrees of freedom        ....  120

    -----------------------------------------------------------------
                    Redundant Internal Coordinates


    -----------------------------------------------------------------
         Definition                    Initial Value    Approx d2E/dq
    -----------------------------------------------------------------
      1. B(N   1,C   0)                  1.4534         0.443294   
      2. B(C   2,N   1)                  1.4222         0.497135   
      3. B(C   3,C   2)                  1.3637         0.688064   
      4. B(N   4,C   3)                  1.4028         0.533982   
      5. B(N   4,C   0)                  1.4451         0.457011   
      6. B(C   5,N   1)                  1.4643         0.425971   
      7. B(C   6,C   5)                  1.4477         0.505460   
      8. B(C   7,C   6)                  1.4073         0.586384   
      9. B(C   8,C   7)                  1.3792         0.650058   
     10. B(C   9,C   8)                  1.3787         0.651309   
     11. B(C  10,C   9)                  1.4054         0.590481   
     12. B(C  10,C   5)                  1.4502         0.500841   
     13. B(C  11,C   6)                  1.5053         0.409042   
     14. B(H  12,C  11)                  1.1096         0.335138   
     15. B(H  13,C  11)                  1.1092         0.335571   
     16. B(H  14,C  11)                  1.1113         0.332988   
     17. B(C  15,C  10)                  1.5132         0.397305   
     18. B(H  16,C  15)                  1.1097         0.334926   
     19. B(H  17,C  15)                  1.1112         0.333137   
     20. B(H  18,C  15)                  1.1097         0.334954   
     21. B(C  19,N   4)                  1.4401         0.465529   
     22. B(C  20,C  19)                  1.4347         0.530117   
     23. B(C  21,C  20)                  1.4057         0.589672   
     24. B(C  22,C  21)                  1.3861         0.633788   
     25. B(C  23,C  22)                  1.3856         0.635001   
     26. B(C  24,C  23)                  1.4029         0.595894   
     27. B(C  24,C  19)                  1.4343         0.531033   
     28. B(C  25,C  20)                  1.5093         0.403096   
     29. B(H  26,C  25)                  1.1111         0.333274   
     30. B(H  27,C  25)                  1.1028         0.343572   
     31. B(H  28,C  25)                  1.1102         0.334338   
     32. B(C  29,C  24)                  1.5115         0.399910   
     33. B(H  30,C  29)                  1.1001         0.347007   
     34. B(H  31,C  29)                  1.1110         0.333421   
     35. B(H  32,C  29)                  1.1106         0.333893   
     36. B(H  33,C   7)                  1.0837         0.368487   
     37. B(H  34,C   8)                  1.0828         0.369730   
     38. B(H  35,C   9)                  1.0836         0.368625   
     39. B(H  36,C  22)                  1.0826         0.370003   
     40. B(H  37,C  23)                  1.0840         0.368128   
     41. B(H  38,C  21)                  1.0834         0.368942   
     42. B(H  39,C   2)                  1.0671         0.391635   
     43. B(H  40,C   3)                  1.0752         0.380203   
     44. B(H  41,C   0)                  1.3423         0.142511   
     45. A(N   1,C   0,H  41)          126.0648         0.285685   
     46. A(N   4,C   0,H  41)          127.2794         0.287046   
     47. A(N   1,C   0,N   4)          106.6470         0.382607   
     48. A(C   0,N   1,C   2)          105.9170         0.388253   
     49. A(C   2,N   1,C   5)          127.9705         0.385565   
     50. A(C   0,N   1,C   5)          126.1124         0.377970   
     51. A(N   1,C   2,C   3)          110.3985         0.422306   
     52. A(C   3,C   2,H  39)          120.0247         0.364388   
     53. A(N   1,C   2,H  39)          129.5727         0.342751   
     54. A(C   2,C   3,H  40)          123.6654         0.362548   
     55. A(C   2,C   3,N   4)          109.3683         0.427744   
     56. A(N   4,C   3,H  40)          126.9241         0.345168   
     57. A(C   0,N   4,C   3)          107.6680         0.395240   
     58. A(C   3,N   4,C  19)          128.0330         0.396523   
     59. A(C   0,N   4,C  19)          124.2988         0.385877   
     60. A(N   1,C   5,C   6)          123.8003         0.389152   
     61. A(C   6,C   5,C  10)          116.2477         0.402939   
     62. A(N   1,C   5,C  10)          119.9519         0.388529   
     63. A(C   7,C   6,C  11)          114.3715         0.399128   
     64. A(C   5,C   6,C   7)          120.2836         0.414346   
     65. A(C   5,C   6,C  11)          125.3449         0.388877   
     66. A(C   6,C   7,H  33)          121.1201         0.350962   
     67. A(C   6,C   7,C   8)          121.6085         0.433410   
     68. A(C   8,C   7,H  33)          117.2714         0.357146   
     69. A(C   7,C   8,C   9)          119.9339         0.441694   
     70. A(C   7,C   8,H  34)          120.0381         0.357350   
     71. A(C   9,C   8,H  34)          120.0280         0.357467   
     72. A(C   8,C   9,C  10)          121.4422         0.434104   
     73. A(C  10,C   9,H  35)          121.0713         0.351397   
     74. A(C   8,C   9,H  35)          117.4865         0.357285   
     75. A(C   5,C  10,C   9)          120.4840         0.414183   
     76. A(C   9,C  10,C  15)          114.6714         0.397577   
     77. A(C   5,C  10,C  15)          124.8446         0.386289   
     78. A(H  13,C  11,H  14)          105.4126         0.284154   
     79. A(H  12,C  11,H  14)          105.6662         0.284097   
     80. A(C   6,C  11,H  14)          112.9194         0.324981   
     81. A(H  12,C  11,H  13)          113.1902         0.284438   
     82. A(C   6,C  11,H  13)          109.7434         0.325395   
     83. A(C   6,C  11,H  12)          109.8486         0.325326   
     84. A(H  17,C  15,H  18)          106.1145         0.284092   
     85. A(H  16,C  15,H  18)          111.3610         0.284329   
     86. A(C  10,C  15,H  18)          110.1592         0.323744   
     87. A(H  16,C  15,H  17)          106.0164         0.284089   
     88. A(C  10,C  15,H  17)          112.8167         0.323455   
     89. A(C  10,C  15,H  16)          110.2614         0.323740   
     90. A(N   4,C  19,C  20)          121.3951         0.398565   
     91. A(C  20,C  19,C  24)          117.9427         0.410574   
     92. A(N   4,C  19,C  24)          120.5907         0.398686   
     93. A(C  21,C  20,C  25)          116.4876         0.398493   
     94. A(C  19,C  20,C  25)          123.6887         0.391124   
     95. A(C  19,C  20,C  21)          119.7641         0.418289   
     96. A(C  20,C  21,C  22)          121.1533         0.431874   
     97. A(C  22,C  21,H  38)          118.0199         0.355686   
     98. A(C  20,C  21,H  38)          120.8253         0.351367   
     99. A(C  21,C  22,C  23)          120.0642         0.437670   
    100. A(C  23,C  22,H  36)          119.9556         0.355975   
    101. A(C  21,C  22,H  36)          119.9802         0.355860   
    102. A(C  22,C  23,C  24)          121.1216         0.432838   
    103. A(C  24,C  23,H  37)          120.3841         0.351859   
    104. A(C  22,C  23,H  37)          118.4919         0.355668   
    105. A(C  23,C  24,C  29)          115.1016         0.398673   
    106. A(C  19,C  24,C  29)          124.9109         0.390700   
    107. A(C  19,C  24,C  23)          119.9517         0.419201   
    108. A(H  27,C  25,H  28)          111.2396         0.285377   
    109. A(H  26,C  25,H  28)          107.3478         0.284029   
    110. A(C  20,C  25,H  28)          110.0118         0.324416   
    111. A(H  26,C  25,H  27)          104.9072         0.285235   
    112. A(C  20,C  25,H  27)          111.2264         0.325872   
    113. A(C  20,C  25,H  26)          111.9580         0.324246   
    114. A(H  31,C  29,H  32)          108.5797         0.283990   
    115. A(H  30,C  29,H  32)          109.0570         0.285760   
    116. A(C  24,C  29,H  32)          109.8213         0.323923   
    117. A(H  30,C  29,H  31)          104.8757         0.285698   
    118. A(C  24,C  29,H  31)          108.8838         0.323848   
    119. A(C  24,C  29,H  30)          115.3499         0.325980   
    120. D(C   5,N   1,C   0,H  41)      0.9542         0.015475   
    121. D(C   5,N   1,C   0,N   4)    179.9334         0.015475   
    122. D(C   2,N   1,C   0,N   4)     -0.1248         0.015475   
    123. D(C   2,N   1,C   0,H  41)   -179.1040         0.015475   
    124. D(H  39,C   2,N   1,C   0)   -178.9553         0.019532   
    125. D(H  39,C   2,N   1,C   5)      0.9850         0.019532   
    126. D(C   3,C   2,N   1,C   0)      0.3052         0.019532   
    127. D(C   3,C   2,N   1,C   5)   -179.7544         0.019532   
    128. D(H  40,C   3,C   2,H  39)      1.1923         0.033249   
    129. D(N   4,C   3,C   2,N   1)     -0.3712         0.033249   
    130. D(H  40,C   3,C   2,N   1)   -178.1494         0.033249   
    131. D(N   4,C   3,C   2,H  39)    178.9705         0.033249   
    132. D(C   3,N   4,C   0,H  41)    178.8742         0.016452   
    133. D(C  19,N   4,C   0,N   1)    179.7578         0.016452   
    134. D(C   3,N   4,C   0,N   1)     -0.0888         0.016452   
    135. D(C  19,N   4,C   3,H  40)     -1.8707         0.022659   
    136. D(C  19,N   4,C   3,C   2)   -179.5575         0.022659   
    137. D(C   0,N   4,C   3,H  40)    177.9684         0.022659   
    138. D(C   0,N   4,C   3,C   2)      0.2816         0.022659   
    139. D(C  19,N   4,C   0,H  41)     -1.2792         0.016452   
    140. D(C  10,C   5,N   1,C   2)    -90.5873         0.014295   
    141. D(C  10,C   5,N   1,C   0)     89.3417         0.014295   
    142. D(C   6,C   5,N   1,C   2)     89.4186         0.014295   
    143. D(C   6,C   5,N   1,C   0)    -90.6525         0.014295   
    144. D(C  11,C   6,C   5,C  10)   -179.9831         0.017407   
    145. D(C   7,C   6,C   5,C  10)     -0.0700         0.017407   
    146. D(C   7,C   6,C   5,N   1)    179.9243         0.017407   
    147. D(C  11,C   6,C   5,N   1)      0.0112         0.017407   
    148. D(H  33,C   7,C   6,C   5)   -179.9569         0.023648   
    149. D(C   8,C   7,C   6,C  11)   -179.9916         0.023648   
    150. D(C   8,C   7,C   6,C   5)      0.0862         0.023648   
    151. D(H  33,C   7,C   6,C  11)     -0.0348         0.023648   
    152. D(H  34,C   8,C   7,H  33)      0.0038         0.029423   
    153. D(H  34,C   8,C   7,C   6)    179.9622         0.029423   
    154. D(C   9,C   8,C   7,H  33)   -179.9845         0.029423   
    155. D(C   9,C   8,C   7,C   6)     -0.0261         0.029423   
    156. D(H  35,C   9,C   8,H  34)     -0.0047         0.029544   
    157. D(H  35,C   9,C   8,C   7)    179.9836         0.029544   
    158. D(C  10,C   9,C   8,H  34)    179.9635         0.029544   
    159. D(C  10,C   9,C   8,C   7)     -0.0482         0.029544   
    160. D(C  15,C  10,C   9,H  35)     -0.0578         0.023996   
    161. D(C   5,C  10,C   9,H  35)   -179.9720         0.023996   
    162. D(C  15,C  10,C   9,C   8)    179.9751         0.023996   
    163. D(C   5,C  10,C   9,C   8)      0.0609         0.023996   
    164. D(C  15,C  10,C   5,C   6)   -179.9061         0.017086   
    165. D(C  15,C  10,C   5,N   1)      0.0994         0.017086   
    166. D(C   9,C  10,C   5,C   6)     -0.0011         0.017086   
    167. D(C   9,C  10,C   5,N   1)   -179.9957         0.017086   
    168. D(H  14,C  11,C   6,C   7)     -0.5437         0.012394   
    169. D(H  14,C  11,C   6,C   5)    179.3739         0.012394   
    170. D(H  13,C  11,C   6,C   7)    116.7350         0.012394   
    171. D(H  13,C  11,C   6,C   5)    -63.3473         0.012394   
    172. D(H  12,C  11,C   6,C   7)   -118.2101         0.012394   
    173. D(H  12,C  11,C   6,C   5)     61.7075         0.012394   
    174. D(H  18,C  15,C  10,C   9)   -118.5508         0.011722   
    175. D(H  18,C  15,C  10,C   5)     61.3591         0.011722   
    176. D(H  17,C  15,C  10,C   9)     -0.1770         0.011722   
    177. D(H  17,C  15,C  10,C   5)    179.7329         0.011722   
    178. D(H  16,C  15,C  10,C   9)    118.1421         0.011722   
    179. D(H  16,C  15,C  10,C   5)    -61.9481         0.011722   
    180. D(C  24,C  19,N   4,C   0)    -87.5584         0.017078   
    181. D(C  20,C  19,N   4,C   3)    -90.8843         0.017078   
    182. D(C  20,C  19,N   4,C   0)     89.3013         0.017078   
    183. D(C  24,C  19,N   4,C   3)     92.2560         0.017078   
    184. D(C  25,C  20,C  19,C  24)    177.6754         0.019182   
    185. D(C  25,C  20,C  19,N   4)      0.7353         0.019182   
    186. D(C  21,C  20,C  19,C  24)      0.5833         0.019182   
    187. D(C  21,C  20,C  19,N   4)   -176.3567         0.019182   
    188. D(H  38,C  21,C  20,C  25)      1.9391         0.023927   
    189. D(H  38,C  21,C  20,C  19)    179.2359         0.023927   
    190. D(C  22,C  21,C  20,C  25)   -177.6069         0.023927   
    191. D(C  22,C  21,C  20,C  19)     -0.3101         0.023927   
    192. D(H  36,C  22,C  21,H  38)      0.4923         0.027873   
    193. D(H  36,C  22,C  21,C  20)   -179.9493         0.027873   
    194. D(C  23,C  22,C  21,H  38)   -179.5888         0.027873   
    195. D(C  23,C  22,C  21,C  20)     -0.0304         0.027873   
    196. D(H  37,C  23,C  22,H  36)      0.5505         0.027987   
    197. D(H  37,C  23,C  22,C  21)   -179.3685         0.027987   
    198. D(C  24,C  23,C  22,H  36)    179.9996         0.027987   
    199. D(C  24,C  23,C  22,C  21)      0.0807         0.027987   
    200. D(C  29,C  24,C  23,H  37)      1.7220         0.024461   
    201. D(C  29,C  24,C  23,C  22)   -177.7167         0.024461   
    202. D(C  19,C  24,C  23,H  37)    179.6502         0.024461   
    203. D(C  19,C  24,C  23,C  22)      0.2114         0.024461   
    204. D(C  29,C  24,C  19,C  20)    177.1761         0.019250   
    205. D(C  29,C  24,C  19,N   4)     -5.8582         0.019250   
    206. D(C  23,C  24,C  19,C  20)     -0.5359         0.019250   
    207. D(C  23,C  24,C  19,N   4)    176.4299         0.019250   
    208. D(H  28,C  25,C  20,C  21)    123.0462         0.012051   
    209. D(H  28,C  25,C  20,C  19)    -54.1335         0.012051   
    210. D(H  27,C  25,C  20,C  21)   -113.2385         0.012051   
    211. D(H  27,C  25,C  20,C  19)     69.5818         0.012051   
    212. D(H  26,C  25,C  20,C  21)      3.7722         0.012051   
    213. D(H  26,C  25,C  20,C  19)   -173.4075         0.012051   
    214. D(H  32,C  29,C  24,C  23)    -63.7596         0.011869   
    215. D(H  32,C  29,C  24,C  19)    118.4295         0.011869   
    216. D(H  31,C  29,C  24,C  23)     55.0074         0.011869   
    217. D(H  31,C  29,C  24,C  19)   -122.8035         0.011869   
    218. D(H  30,C  29,C  24,C  23)    172.5424         0.011869   
    219. D(H  30,C  29,C  24,C  19)     -5.2684         0.011869   
    -----------------------------------------------------------------

Number of atoms                         .... 42
Number of degrees of freedom            .... 219

         *************************************************************
         *                GEOMETRY OPTIMIZATION CYCLE   1            *
         *************************************************************
---------------------------------
CARTESIAN COORDINATES (ANGSTROEM)
---------------------------------
  C      0.200460   -1.194010    0.003280
  N     -0.987400   -0.358620    0.062810
  C     -0.519200    0.984140    0.084900
  C      0.843380    1.013280    0.036700
  N      1.335390   -0.299510   -0.010500
  C     -2.373340   -0.830090    0.094070
  C     -3.177920   -1.044690   -1.090170
  C     -4.503850   -1.501680   -0.974050
  C     -5.075820   -1.755860    0.254960
  C     -4.344070   -1.563100    1.407420
  C     -3.014420   -1.110040    1.364390
  C     -2.720090   -0.820090   -2.506470
  H     -1.867140   -1.491050   -2.737560
  H     -2.485180    0.253230   -2.658570
  H     -3.503020   -1.060410   -3.257650
  C     -2.357000   -0.951540    2.718110
  H     -1.482220   -1.629170    2.802210
  H     -3.032800   -1.217490    3.559120
  H     -2.065470    0.106860    2.880110
  C      2.708340   -0.731220   -0.060680
  C      3.380200   -0.942430   -1.310660
  C      4.695880   -1.437420   -1.320850
  C      5.364270   -1.721610   -0.140260
  C      4.737290   -1.518550    1.078560
  C      3.424880   -1.027480    1.145930
  C      2.733430   -0.722110   -2.656440
  H      3.387190   -1.054640   -3.491010
  H      2.557280    0.350240   -2.844010
  H      1.789470   -1.302580   -2.723900
  C      2.893760   -0.806910    2.543700
  H      1.917310   -0.303660    2.602560
  H      3.592090   -0.139590    3.092550
  H      2.834860   -1.776750    3.081570
  H     -5.117990   -1.667550   -1.851430
  H     -6.098620   -2.106280    0.314760
  H     -4.832530   -1.774740    2.351280
  H      6.377650   -2.101370   -0.170240
  H      5.287310   -1.739440    1.986160
  H      5.215020   -1.614940   -2.255050
  H     -1.071110    1.895710    0.141830
  H      1.421770    1.919020    0.071080
  H      0.221500   -2.535080   -0.050890

----------------------------
CARTESIAN COORDINATES (A.U.)
----------------------------
  NO LB      ZA    FRAG     MASS         X           Y           Z
   0 C     6.0000    0    12.011    0.378815   -2.256352    0.006198
   1 N     7.0000    0    14.007   -1.865916   -0.677694    0.118694
   2 C     6.0000    0    12.011   -0.981146    1.859755    0.160438
   3 C     6.0000    0    12.011    1.593757    1.914822    0.069353
   4 N     7.0000    0    14.007    2.523521   -0.565992   -0.019842
   5 C     6.0000    0    12.011   -4.484963   -1.568643    0.177767
   6 C     6.0000    0    12.011   -6.005398   -1.974178   -2.060123
   7 C     6.0000    0    12.011   -8.511043   -2.837764   -1.840688
   8 C     6.0000    0    12.011   -9.591910   -3.318095    0.481805
   9 C     6.0000    0    12.011   -8.209103   -2.953831    2.659638
  10 C     6.0000    0    12.011   -5.696428   -2.097672    2.578323
  11 C     6.0000    0    12.011   -5.140225   -1.549746   -4.736542
  12 H     1.0000    0     1.008   -3.528383   -2.817676   -5.173239
  13 H     1.0000    0     1.008   -4.696310    0.478535   -5.023969
  14 H     1.0000    0     1.008   -6.619748   -2.003884   -6.156066
  15 C     6.0000    0    12.011   -4.454084   -1.798150    5.136484
  16 H     1.0000    0     1.008   -2.800990   -3.078685    5.295409
  17 H     1.0000    0     1.008   -5.731161   -2.300723    6.725762
  18 H     1.0000    0     1.008   -3.903173    0.201936    5.442619
  19 C     6.0000    0    12.011    5.118021   -1.381806   -0.114669
  20 C     6.0000    0    12.011    6.387652   -1.780935   -2.476788
  21 C     6.0000    0    12.011    8.873927   -2.716330   -2.496045
  22 C     6.0000    0    12.011   10.137001   -3.253371   -0.265053
  23 C     6.0000    0    12.011    8.952181   -2.869644    2.038183
  24 C     6.0000    0    12.011    6.472085   -1.941656    2.165494
  25 C     6.0000    0    12.011    5.165434   -1.364590   -5.019944
  26 H     1.0000    0     1.008    6.400861   -1.992981   -6.597053
  27 H     1.0000    0     1.008    4.832559    0.661858   -5.374400
  28 H     1.0000    0     1.008    3.381608   -2.461519   -5.147425
  29 C     6.0000    0    12.011    5.468414   -1.524839    4.806896
  30 H     1.0000    0     1.008    3.623191   -0.573834    4.918126
  31 H     1.0000    0     1.008    6.788066   -0.263787    5.844073
  32 H     1.0000    0     1.008    5.357109   -3.357571    5.823323
  33 H     1.0000    0     1.008   -9.671599   -3.151213   -3.498696
  34 H     1.0000    0     1.008  -11.524722   -3.980292    0.594810
  35 H     1.0000    0     1.008   -9.132158   -3.353773    4.443275
  36 H     1.0000    0     1.008   12.052012   -3.971014   -0.321707
  37 H     1.0000    0     1.008    9.991568   -3.287065    3.753298
  38 H     1.0000    0     1.008    9.854960   -3.051794   -4.261427
  39 H     1.0000    0     1.008   -2.024105    3.582373    0.268020
  40 H     1.0000    0     1.008    2.686756    3.626422    0.134322
  41 H     1.0000    0     1.008    0.418574   -4.790607   -0.096168

--------------------------------
INTERNAL COORDINATES (ANGSTROEM)
--------------------------------
 C      0   0   0     0.000000000000     0.00000000     0.00000000
 N      1   0   0     1.453420672964     0.00000000     0.00000000
 C      2   1   0     1.422217854515   105.91704516     0.00000000
 C      3   2   1     1.363743610801   110.39853876     0.30523949
 N      4   3   2     1.402754170979   109.36825144   359.62879325
 C      2   1   3     1.464271433888   126.11243554   180.05824011
 C      6   2   1     1.447696968982   123.80033895   269.34753304
 C      7   6   2     1.407271856963   120.28362112   179.92433281
 C      8   7   6     1.379210909687   121.60850411     0.08622283
 C      9   8   7     1.378687249415   119.93390891   359.97394471
 C     10   9   8     1.405376841634   121.44219173   359.95181225
 C      7   6   2     1.505310319801   125.34487408     0.00000000
 H     12   7   6     1.109555592208   109.84859152    61.70754007
 H     12   7   6     1.109203741654   109.74335021   296.65265269
 H     12   7   6     1.111307554055   112.91935631   179.37387063
 C     11  10   9     1.513235323669   114.67136548   179.97508529
 H     16  11  10     1.109727568054   110.26142966   118.14208414
 H     16  11  10     1.111185341246   112.81674272   359.82299599
 H     16  11  10     1.109704600738   110.15916630   241.44924865
 C      5   4   3     1.440098350461   128.03304919   180.44251140
 C     20   5   4     1.434731864879   121.39509438   269.11566103
 C     21  20   5     1.405749906136   119.76409199   183.64328727
 C     22  21  20     1.386110347808   121.15326032   359.68988628
 C     23  22  21     1.385589938041   120.06415001   359.96963387
 C     24  23  22     1.402892893239   121.12162759     0.08066561
 C     21  20   5     1.509296572480   123.68872221     0.73532019
 H     26  21  20     1.111073995466   111.95797510   186.59250367
 H     26  21  20     1.102790029833   111.22641105    69.58180708
 H     26  21  20     1.110205726026   110.01175627   305.86652833
 C     25  24  23     1.511456434106   115.10157980   182.28325587
 H     30  25  24     1.100081662696   115.34986059   172.54244662
 H     30  25  24     1.110953236550   108.88382406    55.00739005
 H     30  25  24     1.110568760816   109.82127736   296.24035878
 H      8   7   6     1.083732651949   121.12009224   180.04307398
 H      9   8   7     1.082815799848   120.03809616   179.96221675
 H     10   9   8     1.083631099960   117.48648960   179.98358644
 H     23  22  21     1.082615112771   119.98020467   180.05069008
 H     24  23  22     1.083998225321   118.49192961   180.63151816
 H     22  21  20     1.083397124789   120.82533728   179.23590489
 H      3   2   1     1.067148320478   129.57274347   181.04469640
 H      4   3   2     1.075212501834   123.66537053   181.85064674
 H      1   2   3     1.342328505024   126.06477122   180.89596838

---------------------------
INTERNAL COORDINATES (A.U.)
---------------------------
 C      0   0   0     0.000000000000     0.00000000     0.00000000
 N      1   0   0     2.746567029282     0.00000000     0.00000000
 C      2   1   0     2.687602247806   105.91704516     0.00000000
 C      3   2   1     2.577101941298   110.39853876     0.30523949
 N      4   3   2     2.650821216367   109.36825144   359.62879325
 C      2   1   3     2.767071995772   126.11243554   180.05824011
 C      6   2   1     2.735750796284   123.80033895   269.34753304
 C      7   6   2     2.659358405635   120.28362112   179.92433281
 C      8   7   6     2.606330900225   121.60850411     0.08622283
 C      9   8   7     2.605341325724   119.93390891   359.97394471
 C     10   9   8     2.655777345643   121.44219173   359.95181225
 C      7   6   2     2.844624250990   125.34487408     0.00000000
 H     12   7   6     2.096756199634   109.84859152    61.70754007
 H     12   7   6     2.096091298447   109.74335021   296.65265269
 H     12   7   6     2.100066927722   112.91935631   179.37387063
 C     11  10   9     2.859600337910   114.67136548   179.97508529
 H     16  11  10     2.097081186885   110.26142966   118.14208414
 H     16  11  10     2.099835978983   112.81674272   359.82299599
 H     16  11  10     2.097037784948   110.15916630   241.44924865
 C      5   4   3     2.721391488283   128.03304919   180.44251140
 C     20   5   4     2.711250300232   121.39509438   269.11566103
 C     21  20   5     2.656482335382   119.76409199   183.64328727
 C     22  21  20     2.619368948751   121.15326032   359.68988628
 C     23  22  21     2.618385516814   120.06415001   359.96963387
 C     24  23  22     2.651083363446   121.12162759     0.08066561
 C     21  20   5     2.852157176853   123.68872221     0.73532019
 H     26  21  20     2.099625565952   111.95797510   186.59250367
 H     26  21  20     2.083971139604   111.22641105    69.58180708
 H     26  21  20     2.097984774500   110.01175627   305.86652833
 C     25  24  23     2.856238723813   115.10157980   182.28325587
 H     30  25  24     2.078853067444   115.34986059   172.54244662
 H     30  25  24     2.099397364672   108.88382406    55.00739005
 H     30  25  24     2.098670810830   109.82127736   296.24035878
 H      8   7   6     2.047957914571   121.12009224   180.04307398
 H      9   8   7     2.046225315195   120.03809616   179.96221675
 H     10   9   8     2.047766009124   117.48648960   179.98358644
 H     23  22  21     2.045846071581   119.98020467   180.05069008
 H     24  23  22     2.048459775514   118.49192961   180.63151816
 H     22  21  20     2.047323860128   120.82533728   179.23590489
 H      3   2   1     2.016618069978   129.57274347   181.04469640
 H      4   3   2     2.031857164234   123.66537053   181.85064674
 H      1   2   3     2.536633256251   126.06477122   180.89596838

---------------------
BASIS SET INFORMATION
---------------------
There are 3 groups of distinct atoms

 Group   1 Type C   : 7s4p1d contracted to 3s2p1d pattern {511/31/1}
 Group   2 Type N   : 7s4p1d contracted to 3s2p1d pattern {511/31/1}
 Group   3 Type H   : 4s1p contracted to 2s1p pattern {31/1}

Atom   0C    basis set group =>   1
Atom   1N    basis set group =>   2
Atom   2C    basis set group =>   1
Atom   3C    basis set group =>   1
Atom   4N    basis set group =>   2
Atom   5C    basis set group =>   1
Atom   6C    basis set group =>   1
Atom   7C    basis set group =>   1
Atom   8C    basis set group =>   1
Atom   9C    basis set group =>   1
Atom  10C    basis set group =>   1
Atom  11C    basis set group =>   1
Atom  12H    basis set group =>   3
Atom  13H    basis set group =>   3
Atom  14H    basis set group =>   3
Atom  15C    basis set group =>   1
Atom  16H    basis set group =>   3
Atom  17H    basis set group =>   3
Atom  18H    basis set group =>   3
Atom  19C    basis set group =>   1
Atom  20C    basis set group =>   1
Atom  21C    basis set group =>   1
Atom  22C    basis set group =>   1
Atom  23C    basis set group =>   1
Atom  24C    basis set group =>   1
Atom  25C    basis set group =>   1
Atom  26H    basis set group =>   3
Atom  27H    basis set group =>   3
Atom  28H    basis set group =>   3
Atom  29C    basis set group =>   1
Atom  30H    basis set group =>   3
Atom  31H    basis set group =>   3
Atom  32H    basis set group =>   3
Atom  33H    basis set group =>   3
Atom  34H    basis set group =>   3
Atom  35H    basis set group =>   3
Atom  36H    basis set group =>   3
Atom  37H    basis set group =>   3
Atom  38H    basis set group =>   3
Atom  39H    basis set group =>   3
Atom  40H    basis set group =>   3
Atom  41H    basis set group =>   3
---------------------------------
AUXILIARY/J BASIS SET INFORMATION
---------------------------------
There are 3 groups of distinct atoms

 Group   1 Type C   : 12s5p4d2f1g contracted to 6s4p3d1f1g pattern {711111/2111/211/2/1}
 Group   2 Type N   : 12s5p4d2f1g contracted to 6s4p3d1f1g pattern {711111/2111/211/2/1}
 Group   3 Type H   : 5s2p1d contracted to 3s1p1d pattern {311/2/1}

Atom   0C    basis set group =>   1
Atom   1N    basis set group =>   2
Atom   2C    basis set group =>   1
Atom   3C    basis set group =>   1
Atom   4N    basis set group =>   2
Atom   5C    basis set group =>   1
Atom   6C    basis set group =>   1
Atom   7C    basis set group =>   1
Atom   8C    basis set group =>   1
Atom   9C    basis set group =>   1
Atom  10C    basis set group =>   1
Atom  11C    basis set group =>   1
Atom  12H    basis set group =>   3
Atom  13H    basis set group =>   3
Atom  14H    basis set group =>   3
Atom  15C    basis set group =>   1
Atom  16H    basis set group =>   3
Atom  17H    basis set group =>   3
Atom  18H    basis set group =>   3
Atom  19C    basis set group =>   1
Atom  20C    basis set group =>   1
Atom  21C    basis set group =>   1
Atom  22C    basis set group =>   1
Atom  23C    basis set group =>   1
Atom  24C    basis set group =>   1
Atom  25C    basis set group =>   1
Atom  26H    basis set group =>   3
Atom  27H    basis set group =>   3
Atom  28H    basis set group =>   3
Atom  29C    basis set group =>   1
Atom  30H    basis set group =>   3
Atom  31H    basis set group =>   3
Atom  32H    basis set group =>   3
Atom  33H    basis set group =>   3
Atom  34H    basis set group =>   3
Atom  35H    basis set group =>   3
Atom  36H    basis set group =>   3
Atom  37H    basis set group =>   3
Atom  38H    basis set group =>   3
Atom  39H    basis set group =>   3
Atom  40H    basis set group =>   3
Atom  41H    basis set group =>   3


           ************************************************************
           *        Program running with 4 parallel MPI-processes     *
           *              working on a common directory               *
           ************************************************************
------------------------------------------------------------------------------
                           ORCA GTO INTEGRAL CALCULATION
                           -- RI-GTO INTEGRALS CHOSEN --
------------------------------------------------------------------------------
------------------------------------------------------------------------------
                   ___                                                        
                  /   \      - P O W E R E D   B Y -                         
                 /     \                                                     
                 |  |  |   _    _      __       _____    __    __             
                 |  |  |  | |  | |    /  \     |  _  \  |  |  /  |          
                  \  \/   | |  | |   /    \    | | | |  |  | /  /          
                 / \  \   | |__| |  /  /\  \   | |_| |  |  |/  /          
                |  |  |   |  __  | /  /__\  \  |    /   |      \           
                |  |  |   | |  | | |   __   |  |    \   |  |\   \          
                \     /   | |  | | |  |  |  |  | |\  \  |  | \   \       
                 \___/    |_|  |_| |__|  |__|  |_| \__\ |__|  \__/        
                                                                              
                      - O R C A' S   B I G   F R I E N D -                    
                                      &                                       
                       - I N T E G R A L  F E E D E R -                       
                                                                              
 v1 FN, 2020, v2 2021                                                         
------------------------------------------------------------------------------


Reading SHARK input file 8_prot.SHARKINP.tmp ... ok
----------------------
SHARK INTEGRAL PACKAGE
----------------------

Number of atoms                             ...     42
Number of basis functions                   ...    399
Number of shells                            ...    189
Maximum angular momentum                    ...      2
Integral batch strategy                     ... SHARK/LIBINT Hybrid
RI-J (if used) integral strategy            ... SPLIT-RIJ (Revised 2003 algorithm where possible)
Printlevel                                  ...      1
Contraction scheme used                     ... SEGMENTED contraction
Coulomb Range Separation                    ... NOT USED
Exchange Range Separation                   ... Long Range
   Mu parameter                             ...  0.300000
   Scaling (regular/separated)              ...  0.157706  0.842294
Finite Nucleus Model                        ... NOT USED
Auxiliary Coulomb fitting basis             ... AVAILABLE
   # of basis functions in Aux-J            ...   1260
   # of shells in Aux-J                     ...    420
   Maximum angular momentum in Aux-J        ...      4
Auxiliary J/K fitting basis                 ... NOT available
Auxiliary Correlation fitting basis         ... NOT available
Auxiliary 'external' fitting basis          ... NOT available
Integral threshold                          ...     2.500000e-11
Primitive cut-off                           ...     2.500000e-12
Primitive pair pre-selection threshold      ...     2.500000e-12

Calculating pre-screening integrals         ... done (  0.0 sec) Dimension = 189
Organizing shell pair data                  ... done (  0.1 sec)
Shell pair information
Total number of shell pairs                 ...     17955
Shell pairs after pre-screening             ...     13148
Total number of primitive shell pairs       ...     64239
Primitive shell pairs kept                  ...     29894
          la=0 lb=0:   4222 shell pairs
          la=1 lb=0:   4912 shell pairs
          la=1 lb=1:   1476 shell pairs
          la=2 lb=0:   1519 shell pairs
          la=2 lb=1:    877 shell pairs
          la=2 lb=2:    142 shell pairs

Calculating one electron integrals          ... done (  0.0 sec)
Calculating RI/J V-Matrix + Cholesky decomp.... done (  0.1 sec)
Calculating Nuclear repulsion               ... done (  0.0 sec) ENN=   1562.624258925741 Eh

SHARK setup successfully completed in   0.4 seconds

Maximum memory used throughout the entire GTOINT-calculation: 26.9 MB


           ************************************************************
           *        Program running with 4 parallel MPI-processes     *
           *              working on a common directory               *
           ************************************************************
-------------------------------------------------------------------------------
                                 ORCA SCF
-------------------------------------------------------------------------------

------------
SCF SETTINGS
------------
Hamiltonian:
 Density Functional     Method          .... DFT(GTOs)
 Exchange Functional    Exchange        .... WB97X
 Correlation Functional Correlation     .... WB97X
 Gradients option       PostSCFGGA      .... off
 Hybrid DFT is turned on
   Fraction HF Exchange ScalHFX         ....  0.157706
   Scaling of DF-GGA-X  ScalDFX         ....  0.000000
   Scaling of DF-GGA-C  ScalDFC         ....  1.000000
   Scaling of DF-LDA-C  ScalLDAC        ....  1.000000
   Perturbative correction              ....  0.000000
   Density functional embedding theory  .... OFF
 Long-range corrected/Screened/Range-Separated Hybrid DFT is turned on
   Amount of maximum screened exact exchange              ....  0.842294
   Range separation parameter mu (erf(mu*r12)/r12)        ....  0.300000
 RI-approximation to the Coulomb term is turned on
   Number of AuxJ basis functions       .... 1260
   RIJ-COSX (HFX calculated with COS-X)).... on


General Settings:
 Integral files         IntName         .... 8_prot
 Hartree-Fock type      HFTyp           .... RHF
 Total Charge           Charge          ....    1
 Multiplicity           Mult            ....    1
 Number of Electrons    NEL             ....  148
 Basis Dimension        Dim             ....  399
 Nuclear Repulsion      ENuc            ....   1562.6242589257 Eh

Convergence Acceleration:
 DIIS                   CNVDIIS         .... on
   Start iteration      DIISMaxIt       ....     0
   Startup error        DIISStart       ....  0.200000
   # of expansion vecs  DIISMaxEq       ....     5
   Bias factor          DIISBfac        ....   1.050
   Max. coefficient     DIISMaxC        ....  10.000
 Trust-Rad. Augm. Hess. CNVTRAH         .... auto
   Auto Start mean grad. ratio tolernc. ....  1.125000
   Auto Start start iteration           ....    20
   Auto Start num. interpolation iter.  ....    10
   Max. Number of Micro iterations      ....    16
   Max. Number of Macro iterations      .... Maxiter - #DIIS iter
   Number of Davidson start vectors     ....     2
   Converg. threshold I  (grad. norm)   ....   1.000e-05
   Converg. threshold II (energy diff.) ....   1.000e-08
   Grad. Scal. Fac. for Micro threshold ....   0.100
   Minimum threshold for Micro iter.    ....   0.010
   NR start threshold (gradient norm)   ....   0.001
   Initial trust radius                 ....   0.400
   Minimum AH scaling param. (alpha)    ....   1.000
   Maximum AH scaling param. (alpha)    .... 1000.000
   Orbital update algorithm             .... Taylor
   White noise on init. David. guess    .... on
   Maximum white noise                  ....   0.010
   Quad. conv. algorithm                .... NR
 SOSCF                  CNVSOSCF        .... on
   Start iteration      SOSCFMaxIt      ....   150
   Startup grad/error   SOSCFStart      ....  0.001000
 Level Shifting         CNVShift        .... on
   Level shift para.    LevelShift      ....    0.2500
   Turn off err/grad.   ShiftErr        ....    0.0000
 Zerner damping         CNVZerner       .... off
 Static damping         CNVDamp         .... on
   Fraction old density DampFac         ....    0.8500
   Max. Damping (<1)    DampMax         ....    0.9800
   Min. Damping (>=0)   DampMin         ....    0.0000
   Turn off err/grad.   DampErr         ....    0.0300
 Fernandez-Rico         CNVRico         .... off

SCF Procedure:
 Maximum # iterations   MaxIter         ....   125
 SCF integral mode      SCFMode         .... Direct
   Integral package                     .... SHARK and LIBINT hybrid scheme
 Reset frequency        DirectResetFreq ....    20
 Integral Threshold     Thresh          ....  2.500e-11 Eh
 Primitive CutOff       TCut            ....  2.500e-12 Eh

Convergence Tolerance:
 Convergence Check Mode ConvCheckMode   .... Total+1el-Energy
 Convergence forced     ConvForced      .... 0
 Energy Change          TolE            ....  1.000e-08 Eh
 1-El. energy change                    ....  1.000e-05 Eh
 Orbital Gradient       TolG            ....  1.000e-05
 Orbital Rotation angle TolX            ....  1.000e-05
 DIIS Error             TolErr          ....  5.000e-07


Diagonalization of the overlap matrix:
Smallest eigenvalue                        ... 2.208e-04
Time for diagonalization                   ...    0.026 sec
Threshold for overlap eigenvalues          ... 1.000e-08
Number of eigenvalues below threshold      ... 0
Time for construction of square roots      ...    0.013 sec
Total time needed                          ...    0.041 sec

Time for model grid setup =    0.564 sec

------------------------------
INITIAL GUESS: MODEL POTENTIAL
------------------------------
Loading Hartree-Fock densities                     ... done
Calculating cut-offs                               ... done
Initializing the effective Hamiltonian             ... done
Setting up the integral package (SHARK)            ... done
Starting the Coulomb interaction                   ... done (   0.4 sec)
Reading the grid                                   ... done
Mapping shells                                     ... done
Starting the XC term evaluation                    ... done (   0.3 sec)
  promolecular density results
     # of electrons  =    148.999288892
     EX              =   -116.329745797
     EC              =     -4.930713731
     EX+EC           =   -121.260459528
Transforming the Hamiltonian                       ... done (   0.0 sec)
Diagonalizing the Hamiltonian                      ... done (   0.0 sec)
Back transforming the eigenvectors                 ... done (   0.0 sec)
Now organizing SCF variables                       ... done
                      ------------------
                      INITIAL GUESS DONE (   1.2 sec)
                      ------------------
-------------------
DFT GRID GENERATION
-------------------

General Integration Accuracy     IntAcc      ... 4.388
Radial Grid Type                 RadialGrid  ... OptM3 with GC (2021)
Angular Grid (max. ang.)         AngularGrid ... 4 (Lebedev-302)
Angular grid pruning method      GridPruning ... 4 (adaptive)
Weight generation scheme         WeightScheme... Becke
Basis function cutoff            BFCut       ... 1.0000e-11
Integration weight cutoff        WCut        ... 1.0000e-14
Angular grids for H and He will be reduced by one unit
Partially contracted basis set               ... off
Rotationally invariant grid construction     ... off

Total number of grid points                  ...   192318
Total number of batches                      ...     3026
Average number of points per batch           ...       63
Average number of grid points per atom       ...     4579
Time for grid setup =    1.591 sec

--------------------
COSX GRID GENERATION
--------------------

GRIDX 1
-------
General Integration Accuracy     IntAcc      ... 3.816
Radial Grid Type                 RadialGrid  ... OptM3 with GC (2021)
Angular Grid (max. ang.)         AngularGrid ... 1 (Lebedev-50)
Angular grid pruning method      GridPruning ... 4 (adaptive)
Weight generation scheme         WeightScheme... Becke
Basis function cutoff            BFCut       ... 1.0000e-11
Integration weight cutoff        WCut        ... 1.0000e-14
Angular grids for H and He will be reduced by one unit
Partially contracted basis set               ... on
Rotationally invariant grid construction     ... off

Total number of grid points                  ...    24527
Total number of batches                      ...      401
Average number of points per batch           ...       61
Average number of grid points per atom       ...      584
UseSFitting                                  ... on

GRIDX 2
-------
General Integration Accuracy     IntAcc      ... 4.020
Radial Grid Type                 RadialGrid  ... OptM3 with GC (2021)
Angular Grid (max. ang.)         AngularGrid ... 2 (Lebedev-110)
Angular grid pruning method      GridPruning ... 4 (adaptive)
Weight generation scheme         WeightScheme... Becke
Basis function cutoff            BFCut       ... 1.0000e-11
Integration weight cutoff        WCut        ... 1.0000e-14
Angular grids for H and He will be reduced by one unit
Partially contracted basis set               ... on
Rotationally invariant grid construction     ... off

Total number of grid points                  ...    52313
Total number of batches                      ...      838
Average number of points per batch           ...       62
Average number of grid points per atom       ...     1246
UseSFitting                                  ... on

GRIDX 3
-------
General Integration Accuracy     IntAcc      ... 4.338
Radial Grid Type                 RadialGrid  ... OptM3 with GC (2021)
Angular Grid (max. ang.)         AngularGrid ... 3 (Lebedev-194)
Angular grid pruning method      GridPruning ... 4 (adaptive)
Weight generation scheme         WeightScheme... Becke
Basis function cutoff            BFCut       ... 1.0000e-11
Integration weight cutoff        WCut        ... 1.0000e-14
Angular grids for H and He will be reduced by one unit
Partially contracted basis set               ... on
Rotationally invariant grid construction     ... off

Total number of grid points                  ...   113954
Total number of batches                      ...     1804
Average number of points per batch           ...       63
Average number of grid points per atom       ...     2713
UseSFitting                                  ... on

Time for X-Grid setup             =    1.834 sec


--------------------
CPCM SOLVATION MODEL
--------------------
CPCM parameters:
  Epsilon                                         ...      80.4000
  Refrac                                          ...       1.3300
  Rsolv                                           ...       1.3000
  Surface type                                    ... GAUSSIAN VDW
  Epsilon function type                           ...         CPCM
Radii:
 Radius for C  used is    3.8550 Bohr (=   2.0400 Ang.)
 Radius for N  used is    3.5149 Bohr (=   1.8600 Ang.)
 Radius for H  used is    2.4944 Bohr (=   1.3200 Ang.)
Calculating surface                               ...        done! (  0.0s)
GEPOL surface points                              ...         2293
GEPOL Volume                                      ...    2473.5998
GEPOL Surface-area                                ...    1288.5226
Calculating surface distance matrix               ...        done! (  0.1s)
Performing Cholesky decomposition & store         ...        done! (  0.2s)
Overall time for CPCM initialization              ...                 0.3s
--------------
SCF ITERATIONS
--------------
ITER       Energy         Delta-E        Max-DP      RMS-DP      [F,P]     Damp
               ***  Starting incremental Fock matrix formation  ***
  0   -844.7639368619   0.000000000000 0.03135519  0.00060221  0.1449180 0.8500
  1   -844.8439873201  -0.080050458223 0.02828467  0.00056367  0.1171116 0.8500
                               ***Turning on DIIS***
  2   -844.9048471698  -0.060859849684 0.02221176  0.00046338  0.0903080 0.8500
  3   -844.9497337877  -0.044886617941 0.01408463  0.00034353  0.0688115 0.8500
  4   -844.9842379549  -0.034504167210 0.00956237  0.00027138  0.0548629 0.8500
  5   -845.0113690706  -0.027131115632 0.00724539  0.00022524  0.0452891 0.8500
  6   -845.0334178508  -0.022048780256 0.00582937  0.00019073  0.0380149 0.8500
  7   -845.0516737187  -0.018255867922 0.00491919  0.00016372  0.0321475 0.8500
  8   -845.0669546410  -0.015280922273 0.02789838  0.00093769  0.0271855 0.0000
  9   -845.1493575329  -0.082402891924 0.00268573  0.00003426  0.0015865 0.0000
                      *** Initiating the SOSCF procedure ***
                           *** Shutting down DIIS ***
                      *** Re-Reading the Fockian *** 
                      *** Removing any level shift *** 
ITER      Energy       Delta-E        Grad      Rot      Max-DP    RMS-DP
 10   -845.14940991  -0.0000523746  0.000826  0.000826  0.001120  0.000017
               *** Restarting incremental Fock matrix formation ***
 11   -845.14928696   0.0001229426  0.000396  0.000971  0.000768  0.000016
 12   -845.14929271  -0.0000057483  0.000242  0.001265  0.000880  0.000014
 13   -845.14929426  -0.0000015435  0.000100  0.000240  0.000224  0.000005
 14   -845.14929464  -0.0000003852  0.000030  0.000067  0.000091  0.000001
 15   -845.14929466  -0.0000000164  0.000022  0.000044  0.000042  0.000001
 16   -845.14929467  -0.0000000096  0.000004  0.000013  0.000010  0.000000
                  ***Gradient check signals convergence***
              ***Rediagonalizing the Fockian in SOSCF/NRSCF***

               *****************************************************
               *                     SUCCESS                       *
               *           SCF CONVERGED AFTER  17 CYCLES          *
               *****************************************************

Old exchange energy                            =    -38.101162134 Eh
New exchange energy                            =    -38.101197886 Eh
Exchange energy change after final integration =     -0.000035752 Eh
Total energy after final integration           =   -845.149330436 Eh
Final COS-X integration done in                =    41.859 sec

----------------
TOTAL SCF ENERGY
----------------

Total Energy       :         -845.14933044 Eh          -22997.68246 eV

Components:
Nuclear Repulsion  :         1562.62425893 Eh           42521.16782 eV
Electronic Energy  :        -2407.77358936 Eh          -65518.85028 eV
One Electron Energy:        -4224.02073076 Eh         -114941.44759 eV
Two Electron Energy:         1816.24714139 Eh           49422.59731 eV
Max COSX asymmetry :            0.00000371 Eh               0.00010 eV
CPCM Dielectric    :           -0.07485374 Eh              -2.03687 eV

Virial components:
Potential Energy   :        -1678.96619489 Eh          -45686.99284 eV
Kinetic Energy     :          833.81686446 Eh           22689.31038 eV
Virial Ratio       :            2.01359107


DFT components:
N(Alpha)           :       74.000004844273 electrons
N(Beta)            :       74.000004844273 electrons
N(Total)           :      148.000009688546 electrons
E(XC)              :      -85.668483431211 Eh       
DFET-embed. en.    :        0.000000000000 Eh       
CPCM Solvation Model Properties:
Surface-charge          :           -1.02741715
Charge-correction       :            0.00305201 Eh               0.08305 eV
Free-energy (cav+disp)  :  This term is not implemented in the current solvation scheme

---------------
SCF CONVERGENCE
---------------

  Last Energy change         ...   -1.6488e-08  Tolerance :   1.0000e-08
  Last MAX-Density change    ...    5.3291e-15  Tolerance :   1.0000e-07
  Last RMS-Density change    ...    4.0253e-17  Tolerance :   5.0000e-09
  Last Orbital Gradient      ...    8.6076e-07  Tolerance :   1.0000e-05
  Last Orbital Rotation      ...    4.9144e-06  Tolerance :   1.0000e-05

             **** THE GBW FILE WAS UPDATED (8_prot.gbw) ****
             **** DENSITY 8_prot.scfp WAS UPDATED ****
             **** ENERGY FILE WAS UPDATED (8_prot.en.tmp) ****
             **** THE GBW FILE WAS UPDATED (8_prot.gbw) ****
             **** DENSITY 8_prot.scfp WAS UPDATED ****
----------------
ORBITAL ENERGIES
----------------

  NO   OCC          E(Eh)            E(eV) 
   0   2.0000     -14.541241      -395.6873 
   1   2.0000     -14.538315      -395.6077 
   2   2.0000     -10.438518      -284.0465 
   3   2.0000     -10.350299      -281.6459 
   4   2.0000     -10.346839      -281.5518 
   5   2.0000     -10.346043      -281.5301 
   6   2.0000     -10.343515      -281.4614 
   7   2.0000     -10.312370      -280.6139 
   8   2.0000     -10.311393      -280.5873 
   9   2.0000     -10.309557      -280.5373 
  10   2.0000     -10.309164      -280.5266 
  11   2.0000     -10.284808      -279.8638 
  12   2.0000     -10.282595      -279.8036 
  13   2.0000     -10.280035      -279.7340 
  14   2.0000     -10.279613      -279.7225 
  15   2.0000     -10.279008      -279.7060 
  16   2.0000     -10.278566      -279.6940 
  17   2.0000     -10.278427      -279.6902 
  18   2.0000     -10.277861      -279.6748 
  19   2.0000     -10.277688      -279.6701 
  20   2.0000     -10.277677      -279.6698 
  21   2.0000      -1.183090       -32.1935 
  22   2.0000      -1.092990       -29.7418 
  23   2.0000      -1.005886       -27.3715 
  24   2.0000      -0.991962       -26.9927 
  25   2.0000      -0.931710       -25.3531 
  26   2.0000      -0.921007       -25.0619 
  27   2.0000      -0.920254       -25.0414 
  28   2.0000      -0.896474       -24.3943 
  29   2.0000      -0.888219       -24.1697 
  30   2.0000      -0.847774       -23.0691 
  31   2.0000      -0.827141       -22.5077 
  32   2.0000      -0.803799       -21.8725 
  33   2.0000      -0.802346       -21.8329 
  34   2.0000      -0.782468       -21.2920 
  35   2.0000      -0.764441       -20.8015 
  36   2.0000      -0.724386       -19.7116 
  37   2.0000      -0.717996       -19.5377 
  38   2.0000      -0.706374       -19.2214 
  39   2.0000      -0.703107       -19.1325 
  40   2.0000      -0.678036       -18.4503 
  41   2.0000      -0.645407       -17.5624 
  42   2.0000      -0.626742       -17.0545 
  43   2.0000      -0.608339       -16.5537 
  44   2.0000      -0.606705       -16.5093 
  45   2.0000      -0.591027       -16.0827 
  46   2.0000      -0.587427       -15.9847 
  47   2.0000      -0.577000       -15.7010 
  48   2.0000      -0.563363       -15.3299 
  49   2.0000      -0.556876       -15.1534 
  50   2.0000      -0.547396       -14.8954 
  51   2.0000      -0.544779       -14.8242 
  52   2.0000      -0.542518       -14.7627 
  53   2.0000      -0.539955       -14.6929 
  54   2.0000      -0.531876       -14.4731 
  55   2.0000      -0.529770       -14.4158 
  56   2.0000      -0.519123       -14.1260 
  57   2.0000      -0.516278       -14.0486 
  58   2.0000      -0.509955       -13.8766 
  59   2.0000      -0.507787       -13.8176 
  60   2.0000      -0.482542       -13.1306 
  61   2.0000      -0.478465       -13.0197 
  62   2.0000      -0.469605       -12.7786 
  63   2.0000      -0.468310       -12.7434 
  64   2.0000      -0.466228       -12.6867 
  65   2.0000      -0.456860       -12.4318 
  66   2.0000      -0.451857       -12.2957 
  67   2.0000      -0.451129       -12.2758 
  68   2.0000      -0.427864       -11.6428 
  69   2.0000      -0.377024       -10.2593 
  70   2.0000      -0.365019        -9.9327 
  71   2.0000      -0.359420        -9.7803 
  72   2.0000      -0.343769        -9.3544 
  73   2.0000      -0.342915        -9.3312 
  74   0.0000       0.010950         0.2980 
  75   0.0000       0.037256         1.0138 
  76   0.0000       0.048187         1.3112 
  77   0.0000       0.058873         1.6020 
  78   0.0000       0.064123         1.7449 
  79   0.0000       0.087069         2.3693 
  80   0.0000       0.107513         2.9256 
  81   0.0000       0.133215         3.6250 
  82   0.0000       0.158692         4.3182 
  83   0.0000       0.159314         4.3351 
  84   0.0000       0.162294         4.4163 
  85   0.0000       0.169657         4.6166 
  86   0.0000       0.181077         4.9273 
  87   0.0000       0.184079         5.0090 
  88   0.0000       0.195560         5.3214 
  89   0.0000       0.199880         5.4390 
  90   0.0000       0.202311         5.5052 
  91   0.0000       0.209532         5.7016 
  92   0.0000       0.211517         5.7557 
  93   0.0000       0.217497         5.9184 
  94   0.0000       0.219914         5.9842 
  95   0.0000       0.222126         6.0444 
  96   0.0000       0.229062         6.2331 
  97   0.0000       0.233285         6.3480 
  98   0.0000       0.238137         6.4800 
  99   0.0000       0.248071         6.7503 
 100   0.0000       0.253740         6.9046 
 101   0.0000       0.256184         6.9711 
 102   0.0000       0.258678         7.0390 
 103   0.0000       0.269092         7.3224 
 104   0.0000       0.277856         7.5608 
 105   0.0000       0.290446         7.9034 
 106   0.0000       0.302517         8.2319 
 107   0.0000       0.312821         8.5123 
 108   0.0000       0.323592         8.8054 
 109   0.0000       0.325936         8.8692 
 110   0.0000       0.327853         8.9213 
 111   0.0000       0.342857         9.3296 
 112   0.0000       0.365947         9.9579 
 113   0.0000       0.375641        10.2217 
 114   0.0000       0.380755        10.3609 
 115   0.0000       0.387056        10.5323 
 116   0.0000       0.392072        10.6688 
 117   0.0000       0.405344        11.0300 
 118   0.0000       0.410961        11.1828 
 119   0.0000       0.416406        11.3310 
 120   0.0000       0.419465        11.4142 
 121   0.0000       0.428734        11.6665 
 122   0.0000       0.432806        11.7772 
 123   0.0000       0.446106        12.1392 
 124   0.0000       0.450770        12.2661 
 125   0.0000       0.466612        12.6972 
 126   0.0000       0.473570        12.8865 
 127   0.0000       0.481721        13.1083 
 128   0.0000       0.487182        13.2569 
 129   0.0000       0.496223        13.5029 
 130   0.0000       0.500952        13.6316 
 131   0.0000       0.505596        13.7580 
 132   0.0000       0.522082        14.2066 
 133   0.0000       0.528874        14.3914 
 134   0.0000       0.537286        14.6203 
 135   0.0000       0.543530        14.7902 
 136   0.0000       0.547929        14.9099 
 137   0.0000       0.552157        15.0250 
 138   0.0000       0.557426        15.1683 
 139   0.0000       0.565802        15.3963 
 140   0.0000       0.571128        15.5412 
 141   0.0000       0.576282        15.6814 
 142   0.0000       0.582357        15.8467 
 143   0.0000       0.583051        15.8656 
 144   0.0000       0.586472        15.9587 
 145   0.0000       0.588403        16.0113 
 146   0.0000       0.591557        16.0971 
 147   0.0000       0.599107        16.3025 
 148   0.0000       0.611014        16.6265 
 149   0.0000       0.624628        16.9970 
 150   0.0000       0.632651        17.2153 
 151   0.0000       0.645183        17.5563 
 152   0.0000       0.650056        17.6889 
 153   0.0000       0.668260        18.1843 
 154   0.0000       0.676716        18.4144 
 155   0.0000       0.684306        18.6209 
 156   0.0000       0.692421        18.8417 
 157   0.0000       0.699229        19.0270 
 158   0.0000       0.703696        19.1485 
 159   0.0000       0.713508        19.4156 
 160   0.0000       0.718032        19.5386 
 161   0.0000       0.722573        19.6622 
 162   0.0000       0.729225        19.8432 
 163   0.0000       0.731513        19.9055 
 164   0.0000       0.734252        19.9800 
 165   0.0000       0.739500        20.1228 
 166   0.0000       0.742527        20.2052 
 167   0.0000       0.749442        20.3934 
 168   0.0000       0.751727        20.4555 
 169   0.0000       0.758906        20.6509 
 170   0.0000       0.760279        20.6882 
 171   0.0000       0.763722        20.7819 
 172   0.0000       0.764756        20.8101 
 173   0.0000       0.768908        20.9230 
 174   0.0000       0.771914        21.0048 
 175   0.0000       0.773117        21.0376 
 176   0.0000       0.774410        21.0728 
 177   0.0000       0.783363        21.3164 
 178   0.0000       0.785466        21.3736 
 179   0.0000       0.789669        21.4880 
 180   0.0000       0.791447        21.5364 
 181   0.0000       0.799552        21.7569 
 182   0.0000       0.804898        21.9024 
 183   0.0000       0.805505        21.9189 
 184   0.0000       0.817697        22.2507 
 185   0.0000       0.820492        22.3267 
 186   0.0000       0.825468        22.4621 
 187   0.0000       0.836012        22.7491 
 188   0.0000       0.840664        22.8756 
 189   0.0000       0.842206        22.9176 
 190   0.0000       0.852407        23.1952 
 191   0.0000       0.859972        23.4010 
 192   0.0000       0.868570        23.6350 
 193   0.0000       0.872212        23.7341 
 194   0.0000       0.875675        23.8283 
 195   0.0000       0.889451        24.2032 
 196   0.0000       0.900367        24.5002 
 197   0.0000       0.901626        24.5345 
 198   0.0000       0.905258        24.6333 
 199   0.0000       0.912287        24.8246 
 200   0.0000       0.915102        24.9012 
 201   0.0000       0.923868        25.1397 
 202   0.0000       0.926919        25.2227 
 203   0.0000       0.956698        26.0331 
 204   0.0000       0.972175        26.4542 
 205   0.0000       0.989333        26.9211 
 206   0.0000       1.005160        27.3518 
 207   0.0000       1.033850        28.1325 
 208   0.0000       1.037757        28.2388 
 209   0.0000       1.054568        28.6963 
 210   0.0000       1.078277        29.3414 
 211   0.0000       1.105506        30.0824 
 212   0.0000       1.126725        30.6597 
 213   0.0000       1.142209        31.0811 
 214   0.0000       1.170993        31.8643 
 215   0.0000       1.191752        32.4292 
 216   0.0000       1.196897        32.5692 
 217   0.0000       1.201020        32.6814 
 218   0.0000       1.224539        33.3214 
 219   0.0000       1.234828        33.6014 
 220   0.0000       1.242267        33.8038 
 221   0.0000       1.251513        34.0554 
 222   0.0000       1.254894        34.1474 
 223   0.0000       1.261722        34.3332 
 224   0.0000       1.266660        34.4676 
 225   0.0000       1.280857        34.8539 
 226   0.0000       1.292743        35.1773 
 227   0.0000       1.297138        35.2969 
 228   0.0000       1.325774        36.0762 
 229   0.0000       1.329338        36.1731 
 230   0.0000       1.347652        36.6715 
 231   0.0000       1.349760        36.7288 
 232   0.0000       1.350996        36.7625 
 233   0.0000       1.386899        37.7394 
 234   0.0000       1.393143        37.9093 
 235   0.0000       1.404356        38.2145 
 236   0.0000       1.419740        38.6331 
 237   0.0000       1.428057        38.8594 
 238   0.0000       1.442218        39.2448 
 239   0.0000       1.482350        40.3368 
 240   0.0000       1.495055        40.6825 
 241   0.0000       1.562517        42.5183 
 242   0.0000       1.578568        42.9550 
 243   0.0000       1.589370        43.2490 
 244   0.0000       1.594872        43.3987 
 245   0.0000       1.601839        43.5883 
 246   0.0000       1.612489        43.8781 
 247   0.0000       1.618652        44.0458 
 248   0.0000       1.627519        44.2870 
 249   0.0000       1.635702        44.5097 
 250   0.0000       1.643503        44.7220 
 251   0.0000       1.646460        44.8025 
 252   0.0000       1.648742        44.8646 
 253   0.0000       1.653706        44.9996 
 254   0.0000       1.654711        45.0270 
 255   0.0000       1.665709        45.3262 
 256   0.0000       1.672799        45.5192 
 257   0.0000       1.689279        45.9676 
 258   0.0000       1.737255        47.2731 
 259   0.0000       1.743748        47.4498 
 260   0.0000       1.762282        47.9541 
 261   0.0000       1.776120        48.3307 
 262   0.0000       1.778187        48.3869 
 263   0.0000       1.793589        48.8060 
 264   0.0000       1.798527        48.9404 
 265   0.0000       1.802105        49.0378 
 266   0.0000       1.809611        49.2420 
 267   0.0000       1.812261        49.3141 
 268   0.0000       1.815899        49.4131 
 269   0.0000       1.820855        49.5480 
 270   0.0000       1.823170        49.6110 
 271   0.0000       1.827864        49.7387 
 272   0.0000       1.834444        49.9178 
 273   0.0000       1.845370        50.2151 
 274   0.0000       1.847832        50.2821 
 275   0.0000       1.857516        50.5456 
 276   0.0000       1.865893        50.7735 
 277   0.0000       1.884929        51.2915 
 278   0.0000       1.892804        51.5058 
 279   0.0000       1.896659        51.6107 
 280   0.0000       1.900817        51.7239 
 281   0.0000       1.905018        51.8382 
 282   0.0000       1.916031        52.1379 
 283   0.0000       1.919812        52.2407 
 284   0.0000       1.921678        52.2915 
 285   0.0000       1.922011        52.3006 
 286   0.0000       1.928555        52.4787 
 287   0.0000       1.935589        52.6700 
 288   0.0000       1.940561        52.8053 
 289   0.0000       1.947015        52.9810 
 290   0.0000       1.955248        53.2050 
 291   0.0000       1.961751        53.3820 
 292   0.0000       1.978127        53.8276 
 293   0.0000       1.981931        53.9311 
 294   0.0000       1.992080        54.2072 
 295   0.0000       1.997847        54.3642 
 296   0.0000       2.006205        54.5916 
 297   0.0000       2.026220        55.1363 
 298   0.0000       2.033836        55.3435 
 299   0.0000       2.039458        55.4965 
 300   0.0000       2.046606        55.6910 
 301   0.0000       2.054429        55.9039 
 302   0.0000       2.066597        56.2350 
 303   0.0000       2.072388        56.3926 
 304   0.0000       2.080403        56.6106 
 305   0.0000       2.101814        57.1933 
 306   0.0000       2.119029        57.6617 
 307   0.0000       2.125591        57.8403 
 308   0.0000       2.127883        57.9026 
 309   0.0000       2.135628        58.1134 
 310   0.0000       2.141689        58.2783 
 311   0.0000       2.147133        58.4265 
 312   0.0000       2.150738        58.5246 
 313   0.0000       2.170154        59.0529 
 314   0.0000       2.177457        59.2516 
 315   0.0000       2.186754        59.5046 
 316   0.0000       2.191686        59.6388 
 317   0.0000       2.199758        59.8585 
 318   0.0000       2.204638        59.9912 
 319   0.0000       2.231038        60.7096 
 320   0.0000       2.249512        61.2123 
 321   0.0000       2.251247        61.2596 
 322   0.0000       2.288694        62.2785 
 323   0.0000       2.293846        62.4187 
 324   0.0000       2.304690        62.7138 
 325   0.0000       2.320313        63.1389 
 326   0.0000       2.339336        63.6566 
 327   0.0000       2.346301        63.8461 
 328   0.0000       2.350272        63.9542 
 329   0.0000       2.356153        64.1142 
 330   0.0000       2.360619        64.2357 
 331   0.0000       2.370613        64.5077 
 332   0.0000       2.374732        64.6197 
 333   0.0000       2.386785        64.9477 
 334   0.0000       2.402424        65.3733 
 335   0.0000       2.413297        65.6691 
 336   0.0000       2.418957        65.8232 
 337   0.0000       2.445193        66.5371 
 338   0.0000       2.486317        67.6561 
 339   0.0000       2.496805        67.9415 
 340   0.0000       2.512154        68.3592 
 341   0.0000       2.519225        68.5516 
 342   0.0000       2.533168        68.9310 
 343   0.0000       2.535750        69.0013 
 344   0.0000       2.541768        69.1650 
 345   0.0000       2.543575        69.2142 
 346   0.0000       2.557056        69.5810 
 347   0.0000       2.562795        69.7372 
 348   0.0000       2.591383        70.5151 
 349   0.0000       2.615441        71.1698 
 350   0.0000       2.627181        71.4892 
 351   0.0000       2.632005        71.6205 
 352   0.0000       2.635401        71.7129 
 353   0.0000       2.645315        71.9827 
 354   0.0000       2.645798        71.9958 
 355   0.0000       2.665835        72.5411 
 356   0.0000       2.674563        72.7786 
 357   0.0000       2.683563        73.0235 
 358   0.0000       2.694859        73.3308 
 359   0.0000       2.706444        73.6461 
 360   0.0000       2.728017        74.2331 
 361   0.0000       2.737244        74.4842 
 362   0.0000       2.748506        74.7906 
 363   0.0000       2.767144        75.2978 
 364   0.0000       2.827418        76.9379 
 365   0.0000       2.836322        77.1802 
 366   0.0000       2.841187        77.3126 
 367   0.0000       2.845642        77.4338 
 368   0.0000       2.850667        77.5706 
 369   0.0000       2.853417        77.6454 
 370   0.0000       2.857202        77.7484 
 371   0.0000       2.887649        78.5769 
 372   0.0000       2.935787        79.8868 
 373   0.0000       2.942790        80.0774 
 374   0.0000       2.976891        81.0053 
 375   0.0000       2.994780        81.4921 
 376   0.0000       2.998836        81.6025 
 377   0.0000       3.008957        81.8779 
[...]
 14:    145.92   0.000038    0.19  0.000082  ( 0.001746 -0.008573 -0.002373)
 15:    153.02   0.000016    0.08  0.000033  (-0.001302  0.002309  0.005097)
 16:    156.61   0.000180    0.91  0.000360  (-0.000484 -0.018943  0.000773)
 17:    199.53   0.000088    0.45  0.000138  ( 0.011234 -0.000470  0.003446)
 18:    210.42   0.000084    0.42  0.000124  (-0.000676 -0.011111 -0.000379)
 19:    238.48   0.000002    0.01  0.000002  (-0.000425 -0.001206 -0.000705)
 20:    239.15   0.000006    0.03  0.000007  (-0.000880  0.000532 -0.002531)
 21:    284.20   0.000017    0.09  0.000019  ( 0.004318  0.000415  0.000497)
 22:    303.20   0.000002    0.01  0.000002  ( 0.000296  0.000357 -0.001473)
 23:    334.56   0.003600   18.19  0.003358  (-0.000712  0.057939  0.000434)
 24:    357.14   0.001347    6.81  0.001177  ( 0.000235 -0.034312 -0.000278)
 25:    359.48   0.000620    3.13  0.000538  ( 0.000489 -0.023189 -0.000280)
 26:    394.13   0.000058    0.29  0.000046  ( 0.004661  0.000547  0.004857)
 27:    427.31   0.001742    8.80  0.001272  (-0.035662 -0.000483  0.000009)
 28:    483.23   0.000329    1.66  0.000212  ( 0.000634  0.000196 -0.014559)
 29:    494.05   0.000000    0.00  0.000000  ( 0.000104  0.000253  0.000136)
 30:    538.88   0.000093    0.47  0.000054  (-0.000234 -0.000483  0.007326)
 31:    539.27   0.000033    0.17  0.000019  (-0.000222 -0.000030  0.004344)
 32:    541.24   0.001070    5.41  0.000617  (-0.000518  0.000289 -0.024826)
 33:    545.89   0.000006    0.03  0.000003  (-0.000084  0.001801 -0.000119)
 34:    569.69   0.000680    3.43  0.000372  ( 0.000349 -0.019289 -0.000237)
 35:    593.70   0.000008    0.04  0.000004  ( 0.000111 -0.002098 -0.000074)
 36:    595.71   0.000360    1.82  0.000189  ( 0.013728  0.000423  0.000437)
 37:    620.44   0.000128    0.65  0.000064  ( 0.008013  0.000130  0.000296)
 38:    692.31   0.013186   66.64  0.005944  (-0.001451  0.001146 -0.077073)
 39:    693.68   0.000028    0.14  0.000013  (-0.000415  0.003109 -0.001686)
 40:    768.43   0.000039    0.20  0.000016  (-0.000183 -0.002906 -0.002729)
 41:    769.55   0.008966   45.31  0.003636  (-0.002553  0.001198 -0.060231)
 42:    776.29   0.000121    0.61  0.000049  ( 0.003491  0.006013  0.000491)
 43:    776.55   0.000192    0.97  0.000077  (-0.008324  0.002430  0.001463)
 44:    784.04   0.000053    0.27  0.000021  (-0.004477 -0.000678  0.000726)
 45:    811.66   0.017536   88.62  0.006742  (-0.003234 -0.082033 -0.001565)
 46:    812.11   0.002811   14.21  0.001080  ( 0.029759 -0.011367  0.008089)
 47:    899.67   0.005564   28.12  0.001930  ( 0.001860 -0.000800  0.043883)
 48:    914.25   0.000001    0.01  0.000000  ( 0.000316 -0.000605 -0.000036)
 49:    945.20   0.000012    0.06  0.000004  ( 0.000012 -0.000278  0.001943)
 50:    945.63   0.000203    1.02  0.000067  (-0.001136  0.001350  0.007983)
 51:    946.72   0.000064    0.32  0.000021  (-0.000117  0.004009  0.002232)
 52:    947.75   0.000827    4.18  0.000272  ( 0.000161  0.001399 -0.016437)
 53:    971.17   0.003587   18.13  0.001153  ( 0.033930  0.000382 -0.001084)
 54:    981.14   0.000027    0.13  0.000008  ( 0.000031 -0.002906 -0.000163)
 55:   1011.71   0.001206    6.09  0.000372  ( 0.018368  0.005876 -0.000279)
 56:   1012.43   0.000817    4.13  0.000252  (-0.014158  0.007097  0.000963)
 57:   1041.33   0.000432    2.18  0.000129  (-0.001877  0.010749  0.003210)
 58:   1041.77   0.000450    2.27  0.000135  (-0.001409 -0.011228  0.002603)
 59:   1058.30   0.001355    6.85  0.000400  (-0.001435 -0.019858  0.001786)
 60:   1058.47   0.000675    3.41  0.000199  (-0.002296  0.013751  0.002122)
 61:   1062.10   0.001891    9.56  0.000556  (-0.007346  0.021006  0.007779)
 62:   1063.12   0.001853    9.36  0.000544  (-0.005719 -0.021896  0.005628)
 63:   1065.58   0.000436    2.20  0.000128  ( 0.000404  0.010689 -0.003628)
 64:   1066.12   0.000715    3.61  0.000209  ( 0.000076 -0.001559 -0.014385)
 65:   1081.20   0.007610   38.46  0.002196  ( 0.046843  0.000241 -0.001422)
 66:   1094.66   0.004418   22.33  0.001259  (-0.000456 -0.035477 -0.000824)
 67:   1111.67   0.000066    0.33  0.000018  ( 0.001833 -0.003878 -0.000239)
 68:   1122.63   0.010471   52.92  0.002911  ( 0.053911  0.000684 -0.001947)
 69:   1147.66   0.000162    0.82  0.000044  ( 0.001098 -0.006539 -0.000392)
 70:   1175.71   0.000973    4.92  0.000258  ( 0.000294 -0.000834 -0.016045)
 71:   1177.26   0.001022    5.17  0.000271  (-0.000366  0.001153 -0.016415)
 72:   1246.83   0.012419   62.76  0.003108  ( 0.055674  0.000805 -0.002855)
 73:   1263.46   0.008307   41.98  0.002052  ( 0.045256  0.000435 -0.001842)
 74:   1282.43   0.000011    0.05  0.000003  (-0.000344  0.000021 -0.001566)
 75:   1283.51   0.000009    0.05  0.000002  ( 0.000240 -0.000048  0.001452)
 76:   1300.58   0.000012    0.06  0.000003  (-0.000391  0.001676  0.000147)
 77:   1308.78   0.001614    8.15  0.000385  ( 0.019589  0.000080 -0.001008)
 78:   1332.66   0.000245    1.24  0.000057  ( 0.000193 -0.002437 -0.007167)
 79:   1333.17   0.008055   40.71  0.001886  (-0.000957  0.000880 -0.043403)
 80:   1382.90   0.000840    4.24  0.000189  ( 0.000160  0.013752  0.000560)
 81:   1395.85   0.000147    0.74  0.000033  ( 0.005400  0.000851 -0.001737)
 82:   1396.47   0.000059    0.30  0.000013  (-0.003042  0.001795  0.000827)
 83:   1403.24   0.001376    6.95  0.000306  ( 0.017359 -0.000042 -0.002142)
 84:   1407.80   0.000025    0.13  0.000006  (-0.001039 -0.002101 -0.000187)
 85:   1425.71   0.000319    1.61  0.000070  (-0.008065 -0.000009 -0.002188)
 86:   1441.50   0.001462    7.39  0.000316  ( 0.000542  0.017779  0.000092)
 87:   1444.01   0.002491   12.59  0.000538  (-0.022950  0.001293 -0.003142)
 88:   1449.58   0.000530    2.68  0.000114  ( 0.000188  0.008892  0.005913)
 89:   1450.21   0.004455   22.51  0.000959  ( 0.008108  0.004321 -0.029566)
 90:   1452.56   0.005458   27.58  0.001173  (-0.004797 -0.033710 -0.003636)
 91:   1453.45   0.005547   28.03  0.001191  (-0.017600  0.029412 -0.004009)
 92:   1453.86   0.000130    0.66  0.000028  ( 0.005053  0.001020 -0.001188)
 93:   1455.28   0.003093   15.63  0.000663  (-0.016107 -0.019461 -0.005018)
 94:   1474.79   0.000540    2.73  0.000114  ( 0.000096 -0.010674 -0.000483)
 95:   1527.59   0.012565   63.50  0.002567  (-0.050655 -0.000722  0.000588)
 96:   1535.89   0.000428    2.16  0.000087  (-0.000582  0.003333  0.008685)
 97:   1536.33   0.011018   55.68  0.002238  ( 0.000993  0.001156 -0.047284)
 98:   1550.55   0.003243   16.39  0.000653  ( 0.000551 -0.025532 -0.000747)
 99:   1644.89   0.002929   14.80  0.000556  ( 0.019547 -0.013106 -0.001364)
100:   1645.39   0.053912  272.45  0.010225  (-0.100909 -0.003957  0.005156)
101:   1695.12   0.002669   13.49  0.000491  ( 0.022149  0.000148 -0.000839)
102:   1695.76   0.000272    1.37  0.000050  ( 0.000057  0.007061  0.000310)
103:   1707.62   0.000034    0.17  0.000006  (-0.000137  0.002501  0.000137)
104:   1708.43   0.006310   31.89  0.001153  ( 0.000985 -0.000328  0.033935)
105:   3067.47   0.007044   35.60  0.000717  (-0.004949 -0.001700  0.026253)
106:   3067.81   0.000438    2.21  0.000045  ( 0.002073 -0.003597 -0.005223)
107:   3068.65   0.001555    7.86  0.000158  ( 0.011953 -0.003732  0.001137)
108:   3069.38   0.003096   15.64  0.000315  (-0.015433 -0.003063 -0.008195)
109:   3156.17   0.001816    9.18  0.000180  ( 0.002776  0.013071 -0.000989)
110:   3156.60   0.001895    9.57  0.000187  ( 0.000846  0.013472  0.002257)
111:   3156.99   0.000429    2.17  0.000042  ( 0.004962 -0.002989  0.002969)
112:   3157.63   0.000612    3.09  0.000060  (-0.005478  0.005099 -0.002111)
113:   3191.94   0.002060   10.41  0.000201  (-0.008677 -0.003605 -0.010638)
114:   3192.27   0.001642    8.30  0.000161  ( 0.007023 -0.004127  0.009705)
115:   3192.86   0.003154   15.94  0.000308  ( 0.013230  0.001310 -0.011466)
116:   3192.89   0.000742    3.75  0.000073  (-0.005848  0.002764  0.005543)
117:   3214.40   0.000068    0.34  0.000007  ( 0.002547  0.000035 -0.000355)
118:   3214.42   0.000012    0.06  0.000001  ( 0.000199 -0.001074  0.000115)
119:   3221.91   0.001440    7.28  0.000140  (-0.000394 -0.000749 -0.011781)
120:   3222.02   0.001453    7.34  0.000141  ( 0.000406 -0.000902  0.011822)
121:   3233.64   0.001850    9.35  0.000179  (-0.012958  0.003120  0.000960)
122:   3233.71   0.001266    6.40  0.000122  ( 0.010163  0.004299 -0.000657)
123:   3296.71   0.015227   76.95  0.001441  ( 0.000561 -0.037955 -0.000733)
124:   3300.90   0.007681   38.82  0.000726  ( 0.026918  0.000294 -0.001224)
125:   3319.28   0.004018   20.31  0.000378  (-0.000052  0.019433  0.000374)

* The epsilon (eps) is given for a Dirac delta lineshape.
** The dipole moment derivative (T) already includes vibrational overlap.

The first frequency considered to be a vibration is 6
The total number of vibrations considered is 120


--------------------------
THERMOCHEMISTRY AT 298.15K
--------------------------

Temperature         ... 298.15 K
Pressure            ... 1.00 atm
Total Mass          ... 277.39 AMU

Throughout the following assumptions are being made:
  (1) The electronic state is orbitally nondegenerate
  (2) There are no thermally accessible electronically excited states
  (3) Hindered rotations indicated by low frequency modes are not
      treated as such but are treated as vibrations and this may
      cause some error
  (4) All equations used are the standard statistical mechanics
      equations for an ideal gas
  (5) All vibrations are strictly harmonic

freq.      21.12  E(vib)   ...       0.56 
freq.      24.19  E(vib)   ...       0.56 
freq.      54.16  E(vib)   ...       0.52 
freq.      70.09  E(vib)   ...       0.50 
freq.      89.13  E(vib)   ...       0.47 
freq.      90.82  E(vib)   ...       0.47 
freq.     122.56  E(vib)   ...       0.43 
freq.     141.70  E(vib)   ...       0.41 
freq.     145.92  E(vib)   ...       0.41 
freq.     153.02  E(vib)   ...       0.40 
freq.     156.61  E(vib)   ...       0.40 
freq.     199.53  E(vib)   ...       0.35 
freq.     210.42  E(vib)   ...       0.34 
freq.     238.48  E(vib)   ...       0.32 
freq.     239.15  E(vib)   ...       0.31 
freq.     284.20  E(vib)   ...       0.28 
freq.     303.20  E(vib)   ...       0.26 
freq.     334.56  E(vib)   ...       0.24 
freq.     357.14  E(vib)   ...       0.22 
freq.     359.48  E(vib)   ...       0.22 
freq.     394.13  E(vib)   ...       0.20 
freq.     427.31  E(vib)   ...       0.18 
freq.     483.23  E(vib)   ...       0.15 
freq.     494.05  E(vib)   ...       0.14 
freq.     538.88  E(vib)   ...       0.12 
freq.     539.27  E(vib)   ...       0.12 
freq.     541.24  E(vib)   ...       0.12 
freq.     545.89  E(vib)   ...       0.12 
freq.     569.69  E(vib)   ...       0.11 
freq.     593.70  E(vib)   ...       0.10 
freq.     595.71  E(vib)   ...       0.10 
freq.     620.44  E(vib)   ...       0.09 
freq.     692.31  E(vib)   ...       0.07 
freq.     693.68  E(vib)   ...       0.07 
freq.     768.43  E(vib)   ...       0.06 
freq.     769.55  E(vib)   ...       0.06 
freq.     776.29  E(vib)   ...       0.05 
freq.     776.55  E(vib)   ...       0.05 
freq.     784.04  E(vib)   ...       0.05 
freq.     811.66  E(vib)   ...       0.05 
freq.     812.11  E(vib)   ...       0.05 
freq.     899.67  E(vib)   ...       0.03 
freq.     914.25  E(vib)   ...       0.03 
freq.     945.20  E(vib)   ...       0.03 
freq.     945.63  E(vib)   ...       0.03 
freq.     946.72  E(vib)   ...       0.03 
freq.     947.75  E(vib)   ...       0.03 
freq.     971.17  E(vib)   ...       0.03 
freq.     981.14  E(vib)   ...       0.02 
freq.    1011.71  E(vib)   ...       0.02 
freq.    1012.43  E(vib)   ...       0.02 
freq.    1041.33  E(vib)   ...       0.02 
freq.    1041.77  E(vib)   ...       0.02 
freq.    1058.30  E(vib)   ...       0.02 
freq.    1058.47  E(vib)   ...       0.02 
freq.    1062.10  E(vib)   ...       0.02 
freq.    1063.12  E(vib)   ...       0.02 
freq.    1065.58  E(vib)   ...       0.02 
freq.    1066.12  E(vib)   ...       0.02 
freq.    1081.20  E(vib)   ...       0.02 
freq.    1094.66  E(vib)   ...       0.02 
freq.    1111.67  E(vib)   ...       0.01 
freq.    1122.63  E(vib)   ...       0.01 
freq.    1147.66  E(vib)   ...       0.01 
freq.    1175.71  E(vib)   ...       0.01 
freq.    1177.26  E(vib)   ...       0.01 
freq.    1246.83  E(vib)   ...       0.01 
freq.    1263.46  E(vib)   ...       0.01 
freq.    1282.43  E(vib)   ...       0.01 
freq.    1283.51  E(vib)   ...       0.01 
freq.    1300.58  E(vib)   ...       0.01 
freq.    1308.78  E(vib)   ...       0.01 
freq.    1332.66  E(vib)   ...       0.01 
freq.    1333.17  E(vib)   ...       0.01 
freq.    1382.90  E(vib)   ...       0.01 
freq.    1395.85  E(vib)   ...       0.00 
freq.    1396.47  E(vib)   ...       0.00 
freq.    1403.24  E(vib)   ...       0.00 
freq.    1407.80  E(vib)   ...       0.00 
freq.    1425.71  E(vib)   ...       0.00 
freq.    1441.50  E(vib)   ...       0.00 
freq.    1444.01  E(vib)   ...       0.00 
freq.    1449.58  E(vib)   ...       0.00 
freq.    1450.21  E(vib)   ...       0.00 
freq.    1452.56  E(vib)   ...       0.00 
freq.    1453.45  E(vib)   ...       0.00 
freq.    1453.86  E(vib)   ...       0.00 
freq.    1455.28  E(vib)   ...       0.00 
freq.    1474.79  E(vib)   ...       0.00 
freq.    1527.59  E(vib)   ...       0.00 
freq.    1535.89  E(vib)   ...       0.00 
freq.    1536.33  E(vib)   ...       0.00 
freq.    1550.55  E(vib)   ...       0.00 
freq.    1644.89  E(vib)   ...       0.00 
freq.    1645.39  E(vib)   ...       0.00 
freq.    1695.12  E(vib)   ...       0.00 
freq.    1695.76  E(vib)   ...       0.00 
freq.    1707.62  E(vib)   ...       0.00 
freq.    1708.43  E(vib)   ...       0.00 
freq.    3067.47  E(vib)   ...       0.00 
freq.    3067.81  E(vib)   ...       0.00 
freq.    3068.65  E(vib)   ...       0.00 
freq.    3069.38  E(vib)   ...       0.00 
freq.    3156.17  E(vib)   ...       0.00 
freq.    3156.60  E(vib)   ...       0.00 
freq.    3156.99  E(vib)   ...       0.00 
freq.    3157.63  E(vib)   ...       0.00 
freq.    3191.94  E(vib)   ...       0.00 
freq.    3192.27  E(vib)   ...       0.00 
freq.    3192.86  E(vib)   ...       0.00 
freq.    3192.89  E(vib)   ...       0.00 
freq.    3214.40  E(vib)   ...       0.00 
freq.    3214.42  E(vib)   ...       0.00 
freq.    3221.91  E(vib)   ...       0.00 
freq.    3222.02  E(vib)   ...       0.00 
freq.    3233.64  E(vib)   ...       0.00 
freq.    3233.71  E(vib)   ...       0.00 
freq.    3296.71  E(vib)   ...       0.00 
freq.    3300.90  E(vib)   ...       0.00 
freq.    3319.28  E(vib)   ...       0.00 

------------
INNER ENERGY
------------

The inner energy is: U= E(el) + E(ZPE) + E(vib) + E(rot) + E(trans)
    E(el)   - is the total energy from the electronic structure calculation
              = E(kin-el) + E(nuc-el) + E(el-el) + E(nuc-nuc)
    E(ZPE)  - the the zero temperature vibrational energy from the frequency calculation
    E(vib)  - the the finite temperature correction to E(ZPE) due to population
              of excited vibrational states
    E(rot)  - is the rotational thermal energy
    E(trans)- is the translational thermal energy

Summary of contributions to the inner energy U:
Electronic energy                ...   -845.24591258 Eh
Zero point energy                ...      0.35945104 Eh     225.56 kcal/mol
Thermal vibrational correction   ...      0.01659631 Eh      10.41 kcal/mol
Thermal rotational correction    ...      0.00141627 Eh       0.89 kcal/mol
Thermal translational correction ...      0.00141627 Eh       0.89 kcal/mol
-----------------------------------------------------------------------
Total thermal energy                   -844.86703269 Eh


Summary of corrections to the electronic energy:
(perhaps to be used in another calculation)
Total thermal correction                  0.01942885 Eh      12.19 kcal/mol
Non-thermal (ZPE) correction              0.35945104 Eh     225.56 kcal/mol
-----------------------------------------------------------------------
Total correction                          0.37887989 Eh     237.75 kcal/mol


--------
ENTHALPY
--------

The enthalpy is H = U + kB*T
                kB is Boltzmann's constant
Total free energy                 ...   -844.86703269 Eh 
Thermal Enthalpy correction       ...      0.00094421 Eh       0.59 kcal/mol
-----------------------------------------------------------------------
Total Enthalpy                    ...   -844.86608848 Eh


Note: Only C1 symmetry has been detected, increase convergence thresholds 
      if your molecule has a higher symmetry. Symmetry factor of 1.0 is   
      used for the rotational entropy correction. 
 

Note: Rotational entropy computed according to Herzberg 
Infrared and Raman Spectra, Chapter V,1, Van Nostrand Reinhold, 1945 
Point Group:  C1, Symmetry Number:   1  
Rotational constants in cm-1:     0.023155     0.005945     0.005195 

Vibrational entropy computed according to the QRRHO of S. Grimme
Chem.Eur.J. 2012 18 9955


-------
ENTROPY
-------

The entropy contributions are T*S = T*(S(el)+S(vib)+S(rot)+S(trans))
     S(el)   - electronic entropy
     S(vib)  - vibrational entropy
     S(rot)  - rotational entropy
     S(trans)- translational entropy
The entropies will be listed as multiplied by the temperature to get
units of energy

Electronic entropy                ...      0.00000000 Eh      0.00 kcal/mol
Vibrational entropy               ...      0.02945249 Eh     18.48 kcal/mol
Rotational entropy                ...      0.01619132 Eh     10.16 kcal/mol
Translational entropy             ...      0.02031620 Eh     12.75 kcal/mol
-----------------------------------------------------------------------
Final entropy term                ...      0.06596002 Eh     41.39 kcal/mol

In case the symmetry of your molecule has not been determined correctly
or in case you have a reason to use a different symmetry number we print 
out the resulting rotational entropy values for sn=1,12 :
 --------------------------------------------------------
|  sn= 1 | S(rot)=       0.01619132 Eh     10.16 kcal/mol|
|  sn= 2 | S(rot)=       0.01553687 Eh      9.75 kcal/mol|
|  sn= 3 | S(rot)=       0.01515404 Eh      9.51 kcal/mol|
|  sn= 4 | S(rot)=       0.01488241 Eh      9.34 kcal/mol|
|  sn= 5 | S(rot)=       0.01467172 Eh      9.21 kcal/mol|
|  sn= 6 | S(rot)=       0.01449958 Eh      9.10 kcal/mol|
|  sn= 7 | S(rot)=       0.01435403 Eh      9.01 kcal/mol|
|  sn= 8 | S(rot)=       0.01422796 Eh      8.93 kcal/mol|
|  sn= 9 | S(rot)=       0.01411675 Eh      8.86 kcal/mol|
|  sn=10 | S(rot)=       0.01401727 Eh      8.80 kcal/mol|
|  sn=11 | S(rot)=       0.01392728 Eh      8.74 kcal/mol|
|  sn=12 | S(rot)=       0.01384512 Eh      8.69 kcal/mol|
 --------------------------------------------------------


-------------------
GIBBS FREE ENERGY
-------------------

The Gibbs free energy is G = H - T*S

Total enthalpy                    ...   -844.86608848 Eh 
Total entropy correction          ...     -0.06596002 Eh    -41.39 kcal/mol
-----------------------------------------------------------------------
Final Gibbs free energy         ...   -844.93204850 Eh

For completeness - the Gibbs free energy minus the electronic energy
G-E(el)                           ...      0.31386408 Eh    196.95 kcal/mol


Timings for individual modules:

Sum of individual times         ...     8126.329 sec (= 135.439 min)
GTO integral calculation        ...       19.938 sec (=   0.332 min)   0.2 %
SCF iterations                  ...     5113.015 sec (=  85.217 min)  62.9 %
SCF Gradient evaluation         ...     1514.119 sec (=  25.235 min)  18.6 %
Geometry relaxation             ...        2.769 sec (=   0.046 min)   0.0 %
Analytical frequency calculation...     1476.488 sec (=  24.608 min)  18.2 %
                             ****ORCA TERMINATED NORMALLY****
TOTAL RUN TIME: 0 days 2 hours 15 minutes 37 seconds 693 msec
