
                                 *****************
                                 * O   R   C   A *
                                 *****************

                                            #,                                       
                                            ###                                      
                                            ####                                     
                                            #####                                    
                                            ######                                   
                                           ########,                                 
                                     ,,################,,,,,                         
                               ,,#################################,,                 
                          ,,##########################################,,             
                       ,#########################################, ''#####,          
                    ,#############################################,,   '####,        
                  ,##################################################,,,,####,       
                ,###########''''           ''''###############################       
              ,#####''   ,,,,##########,,,,          '''####'''          '####       
            ,##' ,,,,###########################,,,                        '##       
           ' ,,###''''                  '''############,,,                           
         ,,##''                                '''############,,,,        ,,,,,,###''
      ,#''                                            '''#######################'''  
     '                                                          ''''####''''         
             ,#######,   #######,   ,#######,      ##                                
            ,#'     '#,  ##    ##  ,#'     '#,    #''#        ######   ,####,        
            ##       ##  ##   ,#'  ##            #'  '#       #        #'  '#        
            ##       ##  #######   ##           ,######,      #####,   #    #        
            '#,     ,#'  ##    ##  '#,     ,#' ,#      #,         ##   #,  ,#        
             '#######'   ##     ##  '#######'  #'      '#     #####' # '####'        



                  #######################################################
                  #                        -***-                        #
                  #          Department of theory and spectroscopy      #
                  #    Directorship and core code : Frank Neese         #
                  #        Max Planck Institute fuer Kohlenforschung    #
                  #                Kaiser Wilhelm Platz 1               #
                  #                 D-45470 Muelheim/Ruhr               #
                  #                      Germany                        #
                  #                                                     #
                  #                  All rights reserved                #
                  #                        -***-                        #
                  #######################################################


                         Program Version 5.0.4 -  RELEASE  -


 With contributions from (in alphabetic order):
   Daniel Aravena         : Magnetic Suceptibility
   Michael Atanasov       : Ab Initio Ligand Field Theory (pilot matlab implementation)
   Alexander A. Auer      : GIAO ZORA, VPT2 properties, NMR spectrum
   Ute Becker             : Parallelization
   Giovanni Bistoni       : ED, misc. LED, open-shell LED, HFLD
   Martin Brehm           : Molecular dynamics
   Dmytro Bykov           : SCF Hessian
   Vijay G. Chilkuri      : MRCI spin determinant printing, contributions to CSF-ICE
   Dipayan Datta          : RHF DLPNO-CCSD density
   Achintya Kumar Dutta   : EOM-CC, STEOM-CC
   Dmitry Ganyushin       : Spin-Orbit,Spin-Spin,Magnetic field MRCI
   Miquel Garcia          : C-PCM and meta-GGA Hessian, CC/C-PCM, Gaussian charge scheme
   Yang Guo               : DLPNO-NEVPT2, F12-NEVPT2, CIM, IAO-localization
   Andreas Hansen         : Spin unrestricted coupled pair/coupled cluster methods
   Benjamin Helmich-Paris : MC-RPA, TRAH-SCF, COSX integrals
   Lee Huntington         : MR-EOM, pCC
   Robert Izsak           : Overlap fitted RIJCOSX, COSX-SCS-MP3, EOM
   Marcus Kettner         : VPT2
   Christian Kollmar      : KDIIS, OOCD, Brueckner-CCSD(T), CCSD density, CASPT2, CASPT2-K
   Simone Kossmann        : Meta GGA functionals, TD-DFT gradient, OOMP2, MP2 Hessian
   Martin Krupicka        : Initial AUTO-CI
   Lucas Lang             : DCDCAS
   Marvin Lechner         : AUTO-CI (C++ implementation), FIC-MRCC
   Dagmar Lenk            : GEPOL surface, SMD
   Dimitrios Liakos       : Extrapolation schemes; Compound Job, initial MDCI parallelization
   Dimitrios Manganas     : Further ROCIS development; embedding schemes
   Dimitrios Pantazis     : SARC Basis sets
   Anastasios Papadopoulos: AUTO-CI, single reference methods and gradients
   Taras Petrenko         : DFT Hessian,TD-DFT gradient, ASA, ECA, R-Raman, ABS, FL, XAS/XES, NRVS
   Peter Pinski           : DLPNO-MP2, DLPNO-MP2 Gradient
   Christoph Reimann      : Effective Core Potentials
   Marius Retegan         : Local ZFS, SOC
   Christoph Riplinger    : Optimizer, TS searches, QM/MM, DLPNO-CCSD(T), (RO)-DLPNO pert. Triples
   Tobias Risthaus        : Range-separated hybrids, TD-DFT gradient, RPA, STAB
   Michael Roemelt        : Original ROCIS implementation
   Masaaki Saitow         : Open-shell DLPNO-CCSD energy and density
   Barbara Sandhoefer     : DKH picture change effects
   Avijit Sen             : IP-ROCIS
   Kantharuban Sivalingam : CASSCF convergence, NEVPT2, FIC-MRCI
   Bernardo de Souza      : ESD, SOC TD-DFT
   Georgi Stoychev        : AutoAux, RI-MP2 NMR, DLPNO-MP2 response
   Willem Van den Heuvel  : Paramagnetic NMR
   Boris Wezisla          : Elementary symmetry handling
   Frank Wennmohs         : Technical directorship


 We gratefully acknowledge several colleagues who have allowed us to
 interface, adapt or use parts of their codes:
   Stefan Grimme, W. Hujo, H. Kruse, P. Pracht,  : VdW corrections, initial TS optimization,
                  C. Bannwarth, S. Ehlert          DFT functionals, gCP, sTDA/sTD-DF
   Ed Valeev, F. Pavosevic, A. Kumar             : LibInt (2-el integral package), F12 methods
   Garnet Chan, S. Sharma, J. Yang, R. Olivares  : DMRG
   Ulf Ekstrom                                   : XCFun DFT Library
   Mihaly Kallay                                 : mrcc  (arbitrary order and MRCC methods)
   Jiri Pittner, Ondrej Demel                    : Mk-CCSD
   Frank Weinhold                                : gennbo (NPA and NBO analysis)
   Christopher J. Cramer and Donald G. Truhlar   : smd solvation model
   Lars Goerigk                                  : TD-DFT with DH, B97 family of functionals
   V. Asgeirsson, H. Jonsson                     : NEB implementation
   FAccTs GmbH                                   : IRC, NEB, NEB-TS, DLPNO-Multilevel, CI-OPT
                                                   MM, QMMM, 2- and 3-layer-ONIOM, Crystal-QMMM,
                                                   LR-CPCM, SF, NACMEs, symmetry and pop. for TD-DFT,
                                                   nearIR, NL-DFT gradient (VV10), updates on ESD,
                                                   ML-optimized integration grids
   S Lehtola, MJT Oliveira, MAL Marques          : LibXC Library
   Liviu Ungur et al                             : ANISO software


 Your calculation uses the libint2 library for the computation of 2-el integrals
 For citations please refer to: http://libint.valeyev.net

 Your ORCA version has been built with support for libXC version: 5.1.0
 For citations please refer to: https://tddft.org/programs/libxc/

 This ORCA versions uses:
   CBLAS   interface :  Fast vector & matrix operations
   LAPACKE interface :  Fast linear algebra routines
   SCALAPACK package :  Parallel linear algebra routines
   Shared memory     :  Shared parallel matrices
   BLAS/LAPACK       :  OpenBLAS 0.3.15  USE64BITINT DYNAMIC_ARCH NO_AFFINITY SkylakeX SINGLE_THREADED
        Core in use  :  SkylakeX
   Copyright (c) 2011-2014, The OpenBLAS Project




***************************************
The coordinates will be read from file: 9+_Water_imag.xyz
***************************************


Your calculation utilizes the atom-pairwise dispersion correction
based on tight binding partial charges (D4)
Cite in your paper:
E.Caldeweyher, C.Bannwarth, S.Grimme, J.Chem.Phys., (2017), 147, 034112.
E.Caldeweyher, S.Ehlert, A.Hansen, H.Neugebauer, S.Grimme, J.Chem.Phys., (2018), in progress.
   

XCFun DFT library Copyright 2009-2010 Ulf Ekstrom and contributors.
See http://admol.org/xcfun for more information.
This is free software; see the source code for copying conditions.
There is ABSOLUTELY NO WARRANTY; not even for MERCHANTABILITY or FITNESS FOR A PARTICULAR PURPOSE.
For details see the documentation.
Scientific users of this library should cite U. Ekstrom, L. Visscher, R. Bast, A. J. Thorvaldsen and K. Ruud;
J.Chem.Theor.Comp. 2010, DOI: 10.1021/ct100117s
XCFun Version 0.99 

================================================================================

----- Orbital basis set information -----
Your calculation utilizes the basis: def2-SVP
   F. Weigend and R. Ahlrichs, Phys. Chem. Chem. Phys. 7, 3297 (2005).

----- AuxJ basis set information -----
Your calculation utilizes the auxiliary basis: def2/J
   F. Weigend, Phys. Chem. Chem. Phys. 8, 1057 (2006).

================================================================================
                                        WARNINGS
                       Please study these warnings very carefully!
================================================================================


WARNING: Geometry Optimization
  ===> : Switching off AutoStart
         For restart on a previous wavefunction, please use MOREAD

INFO   : the flag for use of the SHARK integral package has been found!

================================================================================
                                       INPUT FILE
================================================================================
NAME = 9+_Water_imag.inp
|  1> # ORCAForces - ../2023_04/pKa_prediction/extra_carbenes/imag/Ours/9+_Water_imag.inp
|  2> # Basic Mode
|  3> #
|  4> ! Opt FREQ wB97X D4 Def2-SVP SlowConv TightSCF DEFGRID2 Def2/J RIJCOSX CPCM(Water)
|  5> 
|  6> %maxcore 4500
|  7> 
|  8> %PAL NPROCS 4 END
|  9> 
| 10> %geom 
| 11> Maxiter 150
| 12> END
| 13> 
| 14> * xyzfile 1 1 9+_Water_imag.xyz
| 15> 
| 16>                          ****END OF INPUT****
================================================================================

                       *****************************
                       * Geometry Optimization Run *
                       *****************************

Geometry optimization settings:
Update method            Update   .... BFGS
Choice of coordinates    CoordSys .... Z-matrix Internals
Initial Hessian          InHess   .... Almoef's Model

Convergence Tolerances:
Energy Change            TolE     ....  5.0000e-06 Eh
Max. Gradient            TolMAXG  ....  3.0000e-04 Eh/bohr
RMS Gradient             TolRMSG  ....  1.0000e-04 Eh/bohr
Max. Displacement        TolMAXD  ....  4.0000e-03 bohr
RMS Displacement         TolRMSD  ....  2.0000e-03 bohr
Strict Convergence                ....  False
------------------------------------------------------------------------------
                        ORCA OPTIMIZATION COORDINATE SETUP
------------------------------------------------------------------------------

The optimization will be done in new redundant internal coordinates
Making redundant internal coordinates   ...  (new redundants) done
Evaluating the initial hessian          ...  (Almloef) done
Evaluating the coordinates              ...  done
Calculating the B-matrix                .... done
Calculating the G-matrix                .... done
Diagonalizing the G-matrix              .... done
The first mode is                       ....   44
The number of degrees of freedom        ....   48

    -----------------------------------------------------------------
                    Redundant Internal Coordinates


    -----------------------------------------------------------------
         Definition                    Initial Value    Approx d2E/dq
    -----------------------------------------------------------------
      1. B(C   1,C   0)                  1.5416         0.358020   
      2. B(N   2,C   0)                  1.4680         0.420214   
      3. B(N   3,C   1)                  1.4680         0.420213   
      4. B(C   4,N   3)                  1.3122         0.744674   
      5. B(C   4,N   2)                  1.3122         0.744673   
      6. B(H   5,C   0)                  1.0997         0.347551   
      7. B(H   6,C   1)                  1.1008         0.346083   
      8. B(H   7,C   1)                  1.0997         0.347551   
      9. B(H   8,C   0)                  1.1008         0.346083   
     10. B(C   9,N   2)                  1.4475         0.453034   
     11. B(C  10,N   3)                  1.4475         0.453034   
     12. B(H  11,C   9)                  1.0996         0.347637   
     13. B(H  12,C  10)                  1.1004         0.346562   
     14. B(H  13,C  10)                  1.0996         0.347637   
     15. B(H  14,C   9)                  1.1004         0.346562   
     16. B(H  15,C   9)                  1.0974         0.350449   
     17. B(H  16,C  10)                  1.0974         0.350449   
     18. B(H  17,C   4)                  1.0946         0.354063   
     19. A(N   2,C   0,H   5)          109.8875         0.326764   
     20. A(C   1,C   0,N   2)          102.8342         0.365760   
     21. A(C   1,C   0,H   8)          112.8929         0.319980   
     22. A(C   1,C   0,H   5)          112.9840         0.320201   
     23. A(H   5,C   0,H   8)          108.6750         0.287434   
     24. A(N   2,C   0,H   8)          109.4011         0.326536   
     25. A(C   0,C   1,N   3)          102.8342         0.365759   
     26. A(H   6,C   1,H   7)          108.6751         0.287434   
     27. A(N   3,C   1,H   7)          109.8874         0.326764   
     28. A(C   0,C   1,H   7)          112.9841         0.320201   
     29. A(C   0,C   1,H   6)          112.8929         0.319980   
     30. A(N   3,C   1,H   6)          109.4011         0.326536   
     31. A(C   0,N   2,C   4)          110.2019         0.412968   
     32. A(C   0,N   2,C   9)          122.8043         0.378502   
     33. A(C   4,N   2,C   9)          126.7624         0.418530   
     34. A(C   4,N   3,C  10)          126.7624         0.418530   
     35. A(C   1,N   3,C  10)          122.8043         0.378502   
     36. A(C   1,N   3,C   4)          110.2019         0.412968   
     37. A(N   2,C   4,N   3)          113.6771         0.457762   
     38. A(N   3,C   4,H  17)          123.1614         0.360778   
     39. A(N   2,C   4,H  17)          123.1614         0.360778   
     40. A(H  14,C   9,H  15)          109.4002         0.287870   
     41. A(N   2,C   9,H  15)          109.4070         0.331301   
     42. A(H  11,C   9,H  14)          109.1176         0.287507   
     43. A(N   2,C   9,H  14)          110.0513         0.330690   
     44. A(H  11,C   9,H  15)          109.2307         0.288009   
     45. A(N   2,C   9,H  11)          109.6173         0.330859   
     46. A(H  13,C  10,H  16)          109.2307         0.288009   
     47. A(H  12,C  10,H  16)          109.4003         0.287870   
     48. A(N   3,C  10,H  16)          109.4070         0.331301   
     49. A(H  12,C  10,H  13)          109.1176         0.287507   
     50. A(N   3,C  10,H  13)          109.6173         0.330859   
     51. A(N   3,C  10,H  12)          110.0513         0.330690   
     52. D(H   7,C   1,C   0,N   2)   -123.1942         0.010292   
     53. D(N   3,C   1,C   0,H   8)    112.9810         0.010292   
     54. D(H   6,C   1,C   0,N   2)    112.9809         0.010292   
     55. D(H   7,C   1,C   0,H   8)     -5.4178         0.010292   
     56. D(H   6,C   1,C   0,H   8)   -129.2427         0.010292   
     57. D(N   3,C   1,C   0,N   2)     -4.7955         0.010292   
     58. D(H   6,C   1,C   0,H   5)     -5.4179         0.010292   
     59. D(N   3,C   1,C   0,H   5)   -123.1943         0.010292   
     60. D(H   7,C   1,C   0,H   5)    118.4070         0.010292   
     61. D(C   9,N   2,C   0,H   8)     58.7832         0.015057   
     62. D(C   9,N   2,C   0,H   5)    -60.4527         0.015057   
     63. D(C   4,N   2,C   0,H   8)   -116.0297         0.015057   
     64. D(C   9,N   2,C   0,C   1)    178.9972         0.015057   
     65. D(C   4,N   2,C   0,H   5)    124.7345         0.015057   
     66. D(C   4,N   2,C   0,C   1)      4.1843         0.015057   
     67. D(C  10,N   3,C   1,H   7)    -60.4528         0.015057   
     68. D(C  10,N   3,C   1,H   6)     58.7831         0.015057   
     69. D(C  10,N   3,C   1,C   0)    178.9970         0.015057   
     70. D(C   4,N   3,C   1,H   7)    124.7345         0.015057   
     71. D(C   4,N   3,C   1,H   6)   -116.0296         0.015057   
     72. D(C   4,N   3,C   1,C   0)      4.1844         0.015057   
     73. D(H  17,C   4,N   3,C  10)      3.6956         0.046493   
     74. D(H  17,C   4,N   3,C   1)    178.2523         0.046493   
     75. D(N   2,C   4,N   3,C  10)   -176.3045         0.046493   
     76. D(N   2,C   4,N   3,C   1)     -1.7477         0.046493   
     77. D(H  17,C   4,N   2,C   9)      3.6953         0.046493   
     78. D(H  17,C   4,N   2,C   0)    178.2523         0.046493   
     79. D(N   3,C   4,N   2,C   9)   -176.3046         0.046493   
     80. D(N   3,C   4,N   2,C   0)     -1.7477         0.046493   
     81. D(H  11,C   9,N   2,C   4)   -127.2678         0.017512   
     82. D(H  11,C   9,N   2,C   0)     58.8118         0.017512   
     83. D(H  15,C   9,N   2,C   4)     -7.5124         0.017512   
     84. D(H  15,C   9,N   2,C   0)    178.5672         0.017512   
     85. D(H  14,C   9,N   2,C   4)    112.7181         0.017512   
     86. D(H  14,C   9,N   2,C   0)    -61.2023         0.017512   
     87. D(H  16,C  10,N   3,C   4)     -7.5129         0.017512   
     88. D(H  16,C  10,N   3,C   1)    178.5670         0.017512   
     89. D(H  13,C  10,N   3,C   4)   -127.2683         0.017512   
     90. D(H  13,C  10,N   3,C   1)     58.8116         0.017512   
     91. D(H  12,C  10,N   3,C   4)    112.7176         0.017512   
     92. D(H  12,C  10,N   3,C   1)    -61.2025         0.017512   
    -----------------------------------------------------------------

Number of atoms                         .... 18
Number of degrees of freedom            .... 92

         *************************************************************
         *                GEOMETRY OPTIMIZATION CYCLE   1            *
         *************************************************************
---------------------------------
CARTESIAN COORDINATES (ANGSTROEM)
---------------------------------
  C      0.028992    0.770243   -1.266274
  C     -0.028990   -0.770243   -1.266275
  N     -0.018581    1.098346    0.163774
  N      0.018583   -1.098347    0.163774
  C      0.000001   -0.000000    0.881559
  H     -0.823848    1.232035   -1.784592
  H     -0.960684   -1.163703   -1.700917
  H      0.823850   -1.232035   -1.784592
  H      0.960685    1.163704   -1.700917
  C      0.033173    2.457647    0.658639
  C     -0.033175   -2.457648    0.658638
  H     -0.804402    3.034749    0.240889
  H     -0.980928   -2.931464    0.361633
  H      0.804395   -3.034753    0.240884
  H      0.980922    2.931468    0.361629
  H     -0.043344    2.450325    1.753338
  H      0.043348   -2.450326    1.753338
  H      0.000001   -0.000000    1.976161

----------------------------
CARTESIAN COORDINATES (A.U.)
----------------------------
  NO LB      ZA    FRAG     MASS         X           Y           Z
   0 C     6.0000    0    12.011    0.054787    1.455549   -2.392911
   1 C     6.0000    0    12.011   -0.054784   -1.455548   -2.392912
   2 N     7.0000    0    14.007   -0.035112    2.075574    0.309488
   3 N     7.0000    0    14.007    0.035116   -2.075575    0.309488
   4 C     6.0000    0    12.011    0.000002   -0.000001    1.665905
   5 H     1.0000    0     1.008   -1.556847    2.328209   -3.372390
   6 H     1.0000    0     1.008   -1.815429   -2.199079   -3.214267
   7 H     1.0000    0     1.008    1.556851   -2.328208   -3.372390
   8 H     1.0000    0     1.008    1.815431    2.199081   -3.214267
   9 C     6.0000    0    12.011    0.062689    4.644280    1.244647
  10 C     6.0000    0    12.011   -0.062692   -4.644281    1.244646
  11 H     1.0000    0     1.008   -1.520099    5.734845    0.455214
  12 H     1.0000    0     1.008   -1.853685   -5.539664    0.683388
  13 H     1.0000    0     1.008    1.520087   -5.734852    0.455204
  14 H     1.0000    0     1.008    1.853675    5.539672    0.683380
  15 H     1.0000    0     1.008   -0.081908    4.630443    3.313330
  16 H     1.0000    0     1.008    0.081916   -4.630445    3.313328
  17 H     1.0000    0     1.008    0.000001   -0.000001    3.734404

--------------------------------
INTERNAL COORDINATES (ANGSTROEM)
--------------------------------
 C      0   0   0     0.000000000000     0.00000000     0.00000000
 C      1   0   0     1.541576651647     0.00000000     0.00000000
 N      1   2   0     1.467975768477   102.83419969     0.00000000
 N      2   1   3     1.467976226658   102.83418738   355.20452892
 C      4   2   1     1.312221601483   110.20190458     4.18436894
 H      1   2   3     1.099655233056   112.98403596   241.60119331
 H      2   1   3     1.100807350390   112.89291007   112.98091226
 H      2   1   3     1.099655193845   112.98406453   236.80578247
 H      1   2   3     1.100807342437   112.89293026   117.77643673
 C      3   1   2     1.447504326887   122.80425958   178.99719461
 C      4   2   1     1.447504278069   122.80428418   178.99700436
 H     10   3   1     1.099587969010   109.61730826    58.81184181
 H     11   4   2     1.100431461356   110.05125459   298.79746697
 H     11   4   2     1.099587933062   109.61730233    58.81159355
 H     10   3   1     1.100431430474   110.05125902   298.79771734
 H     10   3   1     1.097394993751   109.40696617   178.56721776
 H     11   4   2     1.097394973201   109.40696192   178.56695850
 H      5   4   2     1.094602389519   123.16144162   178.25231393

---------------------------
INTERNAL COORDINATES (A.U.)
---------------------------
 C      0   0   0     0.000000000000     0.00000000     0.00000000
 C      1   0   0     2.913157686060     0.00000000     0.00000000
 N      1   2   0     2.774072173653   102.83419969     0.00000000
 N      2   1   3     2.774073039491   102.83418738   355.20452892
 C      4   2   1     2.479739453819   110.20190458     4.18436894
 H      1   2   3     2.078047232210   112.98403596   241.60119331
 H      2   1   3     2.080224418444   112.89291007   112.98091226
 H      2   1   3     2.078047158112   112.98406453   236.80578247
 H      1   2   3     2.080224403416   112.89293026   117.77643673
 C      3   1   2     2.735386755482   122.80425958   178.99719461
 C      4   2   1     2.735386663230   122.80428418   178.99700436
 H     10   3   1     2.077920121584   109.61730826    58.81184181
 H     11   4   2     2.079514091113   110.05125459   298.79746697
 H     11   4   2     2.077920053652   109.61730233    58.81159355
 H     10   3   1     2.079514032755   110.05125902   298.79771734
 H     10   3   1     2.073775998926   109.40696617   178.56721776
 H     11   4   2     2.073775960092   109.40696192   178.56695850
 H      5   4   2     2.068498741726   123.16144162   178.25231393

---------------------
BASIS SET INFORMATION
---------------------
There are 3 groups of distinct atoms

 Group   1 Type C   : 7s4p1d contracted to 3s2p1d pattern {511/31/1}
 Group   2 Type N   : 7s4p1d contracted to 3s2p1d pattern {511/31/1}
 Group   3 Type H   : 4s1p contracted to 2s1p pattern {31/1}

Atom   0C    basis set group =>   1
Atom   1C    basis set group =>   1
Atom   2N    basis set group =>   2
Atom   3N    basis set group =>   2
Atom   4C    basis set group =>   1
Atom   5H    basis set group =>   3
Atom   6H    basis set group =>   3
Atom   7H    basis set group =>   3
Atom   8H    basis set group =>   3
Atom   9C    basis set group =>   1
Atom  10C    basis set group =>   1
Atom  11H    basis set group =>   3
Atom  12H    basis set group =>   3
Atom  13H    basis set group =>   3
Atom  14H    basis set group =>   3
Atom  15H    basis set group =>   3
Atom  16H    basis set group =>   3
Atom  17H    basis set group =>   3
---------------------------------
AUXILIARY/J BASIS SET INFORMATION
---------------------------------
There are 3 groups of distinct atoms

 Group   1 Type C   : 12s5p4d2f1g contracted to 6s4p3d1f1g pattern {711111/2111/211/2/1}
 Group   2 Type N   : 12s5p4d2f1g contracted to 6s4p3d1f1g pattern {711111/2111/211/2/1}
 Group   3 Type H   : 5s2p1d contracted to 3s1p1d pattern {311/2/1}

Atom   0C    basis set group =>   1
Atom   1C    basis set group =>   1
Atom   2N    basis set group =>   2
Atom   3N    basis set group =>   2
Atom   4C    basis set group =>   1
Atom   5H    basis set group =>   3
Atom   6H    basis set group =>   3
Atom   7H    basis set group =>   3
Atom   8H    basis set group =>   3
Atom   9C    basis set group =>   1
Atom  10C    basis set group =>   1
Atom  11H    basis set group =>   3
Atom  12H    basis set group =>   3
Atom  13H    basis set group =>   3
Atom  14H    basis set group =>   3
Atom  15H    basis set group =>   3
Atom  16H    basis set group =>   3
Atom  17H    basis set group =>   3


           ************************************************************
           *        Program running with 4 parallel MPI-processes     *
           *              working on a common directory               *
           ************************************************************
------------------------------------------------------------------------------
                           ORCA GTO INTEGRAL CALCULATION
                           -- RI-GTO INTEGRALS CHOSEN --
------------------------------------------------------------------------------
------------------------------------------------------------------------------
                   ___                                                        
                  /   \      - P O W E R E D   B Y -                         
                 /     \                                                     
                 |  |  |   _    _      __       _____    __    __             
                 |  |  |  | |  | |    /  \     |  _  \  |  |  /  |          
                  \  \/   | |  | |   /    \    | | | |  |  | /  /          
                 / \  \   | |__| |  /  /\  \   | |_| |  |  |/  /          
                |  |  |   |  __  | /  /__\  \  |    /   |      \           
                |  |  |   | |  | | |   __   |  |    \   |  |\   \          
                \     /   | |  | | |  |  |  |  | |\  \  |  | \   \       
                 \___/    |_|  |_| |__|  |__|  |_| \__\ |__|  \__/        
                                                                              
                      - O R C A' S   B I G   F R I E N D -                    
                                      &                                       
                       - I N T E G R A L  F E E D E R -                       
                                                                              
 v1 FN, 2020, v2 2021                                                         
------------------------------------------------------------------------------


Reading SHARK input file 9+_Water_imag.SHARKINP.tmp ... ok
----------------------
SHARK INTEGRAL PACKAGE
----------------------

Number of atoms                             ...     18
Number of basis functions                   ...    153
Number of shells                            ...     75
Maximum angular momentum                    ...      2
Integral batch strategy                     ... SHARK/LIBINT Hybrid
RI-J (if used) integral strategy            ... SPLIT-RIJ (Revised 2003 algorithm where possible)
Printlevel                                  ...      1
Contraction scheme used                     ... SEGMENTED contraction
Coulomb Range Separation                    ... NOT USED
Exchange Range Separation                   ... Long Range
   Mu parameter                             ...  0.300000
   Scaling (regular/separated)              ...  0.157706  0.842294
Finite Nucleus Model                        ... NOT USED
Auxiliary Coulomb fitting basis             ... AVAILABLE
   # of basis functions in Aux-J            ...    464
   # of shells in Aux-J                     ...    160
   Maximum angular momentum in Aux-J        ...      4
Auxiliary J/K fitting basis                 ... NOT available
Auxiliary Correlation fitting basis         ... NOT available
Auxiliary 'external' fitting basis          ... NOT available
Integral threshold                          ...     2.500000e-11
Primitive cut-off                           ...     2.500000e-12
Primitive pair pre-selection threshold      ...     2.500000e-12

Calculating pre-screening integrals         ... done (  0.0 sec) Dimension = 75
Organizing shell pair data                  ... done (  0.0 sec)
Shell pair information
Total number of shell pairs                 ...      2850
Shell pairs after pre-screening             ...      2722
Total number of primitive shell pairs       ...      9854
Primitive shell pairs kept                  ...      7141
          la=0 lb=0:    910 shell pairs
          la=1 lb=0:   1027 shell pairs
          la=1 lb=1:    302 shell pairs
          la=2 lb=0:    287 shell pairs
          la=2 lb=1:    169 shell pairs
          la=2 lb=2:     27 shell pairs

Calculating one electron integrals          ... done (  0.0 sec)
Calculating RI/J V-Matrix + Cholesky decomp.... done (  0.0 sec)
Calculating Nuclear repulsion               ... done (  0.0 sec) ENN=    325.459352522462 Eh

SHARK setup successfully completed in   0.2 seconds

Maximum memory used throughout the entire GTOINT-calculation: 11.4 MB


           ************************************************************
           *        Program running with 4 parallel MPI-processes     *
           *              working on a common directory               *
           ************************************************************
-------------------------------------------------------------------------------
                                 ORCA SCF
-------------------------------------------------------------------------------

------------
SCF SETTINGS
------------
Hamiltonian:
 Density Functional     Method          .... DFT(GTOs)
 Exchange Functional    Exchange        .... WB97X
 Correlation Functional Correlation     .... WB97X
 Gradients option       PostSCFGGA      .... off
 Hybrid DFT is turned on
   Fraction HF Exchange ScalHFX         ....  0.157706
   Scaling of DF-GGA-X  ScalDFX         ....  0.000000
   Scaling of DF-GGA-C  ScalDFC         ....  1.000000
   Scaling of DF-LDA-C  ScalLDAC        ....  1.000000
   Perturbative correction              ....  0.000000
   Density functional embedding theory  .... OFF
 Long-range corrected/Screened/Range-Separated Hybrid DFT is turned on
   Amount of maximum screened exact exchange              ....  0.842294
   Range separation parameter mu (erf(mu*r12)/r12)        ....  0.300000
 RI-approximation to the Coulomb term is turned on
   Number of AuxJ basis functions       .... 464
   RIJ-COSX (HFX calculated with COS-X)).... on


General Settings:
 Integral files         IntName         .... 9+_Water_imag
 Hartree-Fock type      HFTyp           .... RHF
 Total Charge           Charge          ....    1
 Multiplicity           Mult            ....    1
 Number of Electrons    NEL             ....   54
 Basis Dimension        Dim             ....  153
 Nuclear Repulsion      ENuc            ....    325.4593525225 Eh

Convergence Acceleration:
 DIIS                   CNVDIIS         .... on
   Start iteration      DIISMaxIt       ....     0
   Startup error        DIISStart       ....  0.200000
   # of expansion vecs  DIISMaxEq       ....     5
   Bias factor          DIISBfac        ....   1.050
   Max. coefficient     DIISMaxC        ....  10.000
 Trust-Rad. Augm. Hess. CNVTRAH         .... auto
   Auto Start mean grad. ratio tolernc. ....  1.125000
   Auto Start start iteration           ....    20
   Auto Start num. interpolation iter.  ....    10
   Max. Number of Micro iterations      ....    16
   Max. Number of Macro iterations      .... Maxiter - #DIIS iter
   Number of Davidson start vectors     ....     2
   Converg. threshold I  (grad. norm)   ....   1.000e-05
   Converg. threshold II (energy diff.) ....   1.000e-08
   Grad. Scal. Fac. for Micro threshold ....   0.100
   Minimum threshold for Micro iter.    ....   0.010
   NR start threshold (gradient norm)   ....   0.001
   Initial trust radius                 ....   0.400
   Minimum AH scaling param. (alpha)    ....   1.000
   Maximum AH scaling param. (alpha)    .... 1000.000
   Orbital update algorithm             .... Taylor
   White noise on init. David. guess    .... on
   Maximum white noise                  ....   0.010
   Quad. conv. algorithm                .... NR
 SOSCF                  CNVSOSCF        .... on
   Start iteration      SOSCFMaxIt      ....   150
   Startup grad/error   SOSCFStart      ....  0.001000
 Level Shifting         CNVShift        .... on
   Level shift para.    LevelShift      ....    0.2500
   Turn off err/grad.   ShiftErr        ....    0.0000
 Zerner damping         CNVZerner       .... off
 Static damping         CNVDamp         .... on
   Fraction old density DampFac         ....    0.8500
   Max. Damping (<1)    DampMax         ....    0.9800
   Min. Damping (>=0)   DampMin         ....    0.0000
   Turn off err/grad.   DampErr         ....    0.0300
 Fernandez-Rico         CNVRico         .... off

SCF Procedure:
 Maximum # iterations   MaxIter         ....   125
 SCF integral mode      SCFMode         .... Direct
   Integral package                     .... SHARK and LIBINT hybrid scheme
 Reset frequency        DirectResetFreq ....    20
 Integral Threshold     Thresh          ....  2.500e-11 Eh
 Primitive CutOff       TCut            ....  2.500e-12 Eh

Convergence Tolerance:
 Convergence Check Mode ConvCheckMode   .... Total+1el-Energy
 Convergence forced     ConvForced      .... 0
 Energy Change          TolE            ....  1.000e-08 Eh
 1-El. energy change                    ....  1.000e-05 Eh
 Orbital Gradient       TolG            ....  1.000e-05
 Orbital Rotation angle TolX            ....  1.000e-05
 DIIS Error             TolErr          ....  5.000e-07


Diagonalization of the overlap matrix:
Smallest eigenvalue                        ... 1.665e-03
Time for diagonalization                   ...    0.004 sec
Threshold for overlap eigenvalues          ... 1.000e-08
Number of eigenvalues below threshold      ... 0
Time for construction of square roots      ...    0.003 sec
Total time needed                          ...    0.007 sec

Time for model grid setup =    0.073 sec

------------------------------
INITIAL GUESS: MODEL POTENTIAL
------------------------------
Loading Hartree-Fock densities                     ... done
Calculating cut-offs                               ... done
Initializing the effective Hamiltonian             ... done
Setting up the integral package (SHARK)            ... done
Starting the Coulomb interaction                   ... done (   0.0 sec)
Reading the grid                                   ... done
Mapping shells                                     ... done
Starting the XC term evaluation                    ... done (   0.1 sec)
  promolecular density results
     # of electrons  =     54.996260964
     EX              =    -41.959291744
     EC              =     -1.820646422
     EX+EC           =    -43.779938166
Transforming the Hamiltonian                       ... done (   0.0 sec)
Diagonalizing the Hamiltonian                      ... done (   0.0 sec)
Back transforming the eigenvectors                 ... done (   0.0 sec)
Now organizing SCF variables                       ... done
                      ------------------
                      INITIAL GUESS DONE (   0.2 sec)
                      ------------------
-------------------
DFT GRID GENERATION
-------------------

General Integration Accuracy     IntAcc      ... 4.388
Radial Grid Type                 RadialGrid  ... OptM3 with GC (2021)
Angular Grid (max. ang.)         AngularGrid ... 4 (Lebedev-302)
Angular grid pruning method      GridPruning ... 4 (adaptive)
Weight generation scheme         WeightScheme... Becke
Basis function cutoff            BFCut       ... 1.0000e-11
Integration weight cutoff        WCut        ... 1.0000e-14
Angular grids for H and He will be reduced by one unit
Partially contracted basis set               ... off
Rotationally invariant grid construction     ... off

Total number of grid points                  ...    77412
Total number of batches                      ...     1219
Average number of points per batch           ...       63
Average number of grid points per atom       ...     4301
Time for grid setup =    0.369 sec

--------------------
COSX GRID GENERATION
--------------------

GRIDX 1
-------
General Integration Accuracy     IntAcc      ... 3.816
Radial Grid Type                 RadialGrid  ... OptM3 with GC (2021)
Angular Grid (max. ang.)         AngularGrid ... 1 (Lebedev-50)
Angular grid pruning method      GridPruning ... 4 (adaptive)
Weight generation scheme         WeightScheme... Becke
Basis function cutoff            BFCut       ... 1.0000e-11
Integration weight cutoff        WCut        ... 1.0000e-14
Angular grids for H and He will be reduced by one unit
Partially contracted basis set               ... on
Rotationally invariant grid construction     ... off

Total number of grid points                  ...     9942
Total number of batches                      ...      167
Average number of points per batch           ...       59
Average number of grid points per atom       ...      552
UseSFitting                                  ... on

GRIDX 2
-------
General Integration Accuracy     IntAcc      ... 4.020
Radial Grid Type                 RadialGrid  ... OptM3 with GC (2021)
Angular Grid (max. ang.)         AngularGrid ... 2 (Lebedev-110)
Angular grid pruning method      GridPruning ... 4 (adaptive)
Weight generation scheme         WeightScheme... Becke
Basis function cutoff            BFCut       ... 1.0000e-11
Integration weight cutoff        WCut        ... 1.0000e-14
Angular grids for H and He will be reduced by one unit
Partially contracted basis set               ... on
Rotationally invariant grid construction     ... off

Total number of grid points                  ...    20885
Total number of batches                      ...      332
Average number of points per batch           ...       62
Average number of grid points per atom       ...     1160
UseSFitting                                  ... on

GRIDX 3
-------
General Integration Accuracy     IntAcc      ... 4.338
Radial Grid Type                 RadialGrid  ... OptM3 with GC (2021)
Angular Grid (max. ang.)         AngularGrid ... 3 (Lebedev-194)
Angular grid pruning method      GridPruning ... 4 (adaptive)
Weight generation scheme         WeightScheme... Becke
Basis function cutoff            BFCut       ... 1.0000e-11
Integration weight cutoff        WCut        ... 1.0000e-14
Angular grids for H and He will be reduced by one unit
Partially contracted basis set               ... on
Rotationally invariant grid construction     ... off

Total number of grid points                  ...    45676
Total number of batches                      ...      725
Average number of points per batch           ...       63
Average number of grid points per atom       ...     2538
UseSFitting                                  ... on

Time for X-Grid setup             =    0.369 sec


--------------------
CPCM SOLVATION MODEL
--------------------
CPCM parameters:
  Epsilon                                         ...      80.4000
  Refrac                                          ...       1.3300
  Rsolv                                           ...       1.3000
  Surface type                                    ... GAUSSIAN VDW
  Epsilon function type                           ...         CPCM
Radii:
 Radius for C  used is    3.8550 Bohr (=   2.0400 Ang.)
 Radius for N  used is    3.5149 Bohr (=   1.8600 Ang.)
 Radius for H  used is    2.4944 Bohr (=   1.3200 Ang.)
Calculating surface                               ...        done! (  0.0s)
GEPOL surface points                              ...         1021
GEPOL Volume                                      ...     932.3684
GEPOL Surface-area                                ...     549.8457
Calculating surface distance matrix               ...        done! (  0.0s)
Performing Cholesky decomposition & store         ...        done! (  0.0s)
Overall time for CPCM initialization              ...                 0.0s
--------------
SCF ITERATIONS
--------------
ITER       Energy         Delta-E        Max-DP      RMS-DP      [F,P]     Damp
               ***  Starting incremental Fock matrix formation  ***
  0   -306.1378482480   0.000000000000 0.02300355  0.00064187  0.1066346 0.8500
  1   -306.1540653898  -0.016217141807 0.02097943  0.00058876  0.0866310 0.8500
                               ***Turning on DIIS***
  2   -306.1664600541  -0.012394664273 0.01662836  0.00047658  0.0672613 0.8500
  3   -306.1757766823  -0.009316628259 0.01084777  0.00034211  0.0516444 0.8500
  4   -306.1830383729  -0.007261690581 0.00746291  0.00026521  0.0413927 0.8500
  5   -306.1888008313  -0.005762458353 0.00573833  0.00021982  0.0343774 0.8500
  6   -306.1935119462  -0.004711114903 0.03130209  0.00124277  0.0290247 0.0000
  7   -306.2184964802  -0.024984534050 0.00132991  0.00004489  0.0010775 0.0000
                      *** Initiating the SOSCF procedure ***
                           *** Shutting down DIIS ***
                      *** Re-Reading the Fockian *** 
                      *** Removing any level shift *** 
ITER      Energy       Delta-E        Grad      Rot      Max-DP    RMS-DP
  8   -306.21850937  -0.0000128932  0.000523  0.000523  0.000755  0.000020
               *** Restarting incremental Fock matrix formation ***
  9   -306.21852844  -0.0000190695  0.000161  0.000243  0.000378  0.000014
 10   -306.21852905  -0.0000006089  0.000151  0.000319  0.000292  0.000007
 11   -306.21852922  -0.0000001689  0.000013  0.000027  0.000033  0.000002
 12   -306.21852923  -0.0000000126  0.000003  0.000004  0.000017  0.000000
 13   -306.21852924  -0.0000000032  0.000003  0.000006  0.000006  0.000000
                 **** Energy Check signals convergence ****
              ***Rediagonalizing the Fockian in SOSCF/NRSCF***

               *****************************************************
               *                     SUCCESS                       *
               *           SCF CONVERGED AFTER  14 CYCLES          *
               *****************************************************

Old exchange energy                            =    -13.866935129 Eh
New exchange energy                            =    -13.866935799 Eh
Exchange energy change after final integration =     -0.000000670 Eh
Total energy after final integration           =   -306.218529902 Eh
Final COS-X integration done in                =     4.629 sec

----------------
TOTAL SCF ENERGY
----------------

Total Energy       :         -306.21852990 Eh           -8332.62982 eV

Components:
Nuclear Repulsion  :          325.45935252 Eh            8856.19922 eV
Electronic Energy  :         -631.67788242 Eh          -17188.82904 eV
One Electron Energy:        -1045.72895738 Eh          -28455.73159 eV
Two Electron Energy:          414.05107495 Eh           11266.90255 eV
Max COSX asymmetry :            0.00000192 Eh               0.00005 eV
CPCM Dielectric    :           -0.08385227 Eh              -2.28174 eV

Virial components:
Potential Energy   :         -608.74241349 Eh          -16564.72321 eV
Kinetic Energy     :          302.52388358 Eh            8232.09338 eV
Virial Ratio       :            2.01221274


DFT components:
N(Alpha)           :       26.999984862288 electrons
N(Beta)            :       26.999984862288 electrons
N(Total)           :       53.999969724576 electrons
E(XC)              :      -30.832984944280 Eh       
DFET-embed. en.    :        0.000000000000 Eh       
CPCM Solvation Model Properties:
Surface-charge          :           -1.01388724
Charge-correction       :            0.00114853 Eh               0.03125 eV
Free-energy (cav+disp)  :  This term is not implemented in the current solvation scheme

---------------
SCF CONVERGENCE
---------------

  Last Energy change         ...    4.3020e-09  Tolerance :   1.0000e-08
  Last MAX-Density change    ...    2.2204e-15  Tolerance :   1.0000e-07
  Last RMS-Density change    ...    4.2792e-17  Tolerance :   5.0000e-09
  Last Orbital Gradient      ...    2.4965e-07  Tolerance :   1.0000e-05
  Last Orbital Rotation      ...    6.0372e-07  Tolerance :   1.0000e-05

             **** THE GBW FILE WAS UPDATED (9+_Water_imag.gbw) ****
             **** DENSITY 9+_Water_imag.scfp WAS UPDATED ****
             **** ENERGY FILE WAS UPDATED (9+_Water_imag.en.tmp) ****
             **** THE GBW FILE WAS UPDATED (9+_Water_imag.gbw) ****
             **** DENSITY 9+_Water_imag.scfp WAS UPDATED ****
----------------
ORBITAL ENERGIES
----------------

  NO   OCC          E(Eh)            E(eV) 
   0   2.0000     -14.481665      -394.0661 
   1   2.0000     -14.481635      -394.0653 
   2   2.0000     -10.399152      -282.9753 
   3   2.0000     -10.330810      -281.1156 
   4   2.0000     -10.330785      -281.1149 
   5   2.0000     -10.320165      -280.8260 
   6   2.0000     -10.320139      -280.8253 
   7   2.0000      -1.184728       -32.2381 
   8   2.0000      -1.074426       -29.2366 
   9   2.0000      -0.923675       -25.1345 
  10   2.0000      -0.894749       -24.3474 
  11   2.0000      -0.825934       -22.4748 
  12   2.0000      -0.781754       -21.2726 
  13   2.0000      -0.728691       -19.8287 
  14   2.0000      -0.665358       -18.1053 
  15   2.0000      -0.650411       -17.6986 
  16   2.0000      -0.609988       -16.5986 
  17   2.0000      -0.578915       -15.7531 
  18   2.0000      -0.569506       -15.4971 
  19   2.0000      -0.564901       -15.3717 
  20   2.0000      -0.549780       -14.9603 
  21   2.0000      -0.533578       -14.5194 
  22   2.0000      -0.507868       -13.8198 
  23   2.0000      -0.496332       -13.5059 
  24   2.0000      -0.494416       -13.4538 
  25   2.0000      -0.479722       -13.0539 
  26   2.0000      -0.349764        -9.5176 
  27   0.0000       0.060454         1.6450 
  28   0.0000       0.138373         3.7653 
  29   0.0000       0.155546         4.2326 
  30   0.0000       0.161468         4.3938 
  31   0.0000       0.192473         5.2375 
  32   0.0000       0.192524         5.2388 
  33   0.0000       0.205182         5.5833 
  34   0.0000       0.210831         5.7370 
  35   0.0000       0.228211         6.2099 
  36   0.0000       0.234028         6.3682 
  37   0.0000       0.238634         6.4936 
  38   0.0000       0.253493         6.8979 
  39   0.0000       0.259496         7.0613 
  40   0.0000       0.277668         7.5557 
  41   0.0000       0.280130         7.6227 
  42   0.0000       0.285868         7.7789 
  43   0.0000       0.334562         9.1039 
  44   0.0000       0.363764         9.8985 
  45   0.0000       0.417900        11.3716 
  46   0.0000       0.465192        12.6585 
  47   0.0000       0.465916        12.6782 
  48   0.0000       0.485490        13.2109 
  49   0.0000       0.520670        14.1682 
  50   0.0000       0.537557        14.6277 
  51   0.0000       0.557636        15.1741 
  52   0.0000       0.567849        15.4520 
  53   0.0000       0.572517        15.5790 
  54   0.0000       0.637649        17.3513 
  55   0.0000       0.656382        17.8611 
  56   0.0000       0.679252        18.4834 
  57   0.0000       0.680533        18.5182 
  58   0.0000       0.713780        19.4229 
  59   0.0000       0.716521        19.4975 
  60   0.0000       0.727798        19.8044 
  61   0.0000       0.737688        20.0735 
  62   0.0000       0.740074        20.1384 
  63   0.0000       0.756183        20.5768 
  64   0.0000       0.762638        20.7524 
  65   0.0000       0.766000        20.8439 
  66   0.0000       0.774629        21.0787 
  67   0.0000       0.779891        21.2219 
  68   0.0000       0.781625        21.2691 
  69   0.0000       0.783337        21.3157 
  70   0.0000       0.795387        21.6436 
  71   0.0000       0.806328        21.9413 
  72   0.0000       0.811850        22.0916 
  73   0.0000       0.834647        22.7119 
  74   0.0000       0.909853        24.7584 
  75   0.0000       0.922839        25.1117 
  76   0.0000       1.001298        27.2467 
  77   0.0000       1.056972        28.7617 
  78   0.0000       1.058610        28.8062 
  79   0.0000       1.103144        30.0181 
  80   0.0000       1.183285        32.1988 
  81   0.0000       1.219476        33.1836 
  82   0.0000       1.228442        33.4276 
  83   0.0000       1.296750        35.2864 
  84   0.0000       1.319371        35.9019 
  85   0.0000       1.323848        36.0237 
  86   0.0000       1.329087        36.1663 
  87   0.0000       1.429598        38.9013 
  88   0.0000       1.466503        39.9056 
  89   0.0000       1.531680        41.6791 
  90   0.0000       1.580564        43.0093 
  91   0.0000       1.604523        43.6613 
  92   0.0000       1.622335        44.1460 
  93   0.0000       1.629268        44.3346 
  94   0.0000       1.655127        45.0383 
  95   0.0000       1.688330        45.9418 
  96   0.0000       1.722818        46.8803 
  97   0.0000       1.760693        47.9109 
  98   0.0000       1.803339        49.0713 
  99   0.0000       1.811879        49.3037 
 100   0.0000       1.837571        50.0028 
 101   0.0000       1.851869        50.3919 
 102   0.0000       1.859146        50.5899 
 103   0.0000       1.868221        50.8369 
 104   0.0000       1.868904        50.8555 
 105   0.0000       1.882195        51.2171 
 106   0.0000       1.892676        51.5023 
 107   0.0000       1.915973        52.1363 
 108   0.0000       1.919338        52.2278 
 109   0.0000       1.934513        52.6408 
 110   0.0000       1.997705        54.3603 
 111   0.0000       2.008592        54.6566 
 112   0.0000       2.021131        54.9978 
 113   0.0000       2.031453        55.2786 
 114   0.0000       2.058341        56.0103 
 115   0.0000       2.108388        57.3721 
 116   0.0000       2.113085        57.5000 
 117   0.0000       2.135551        58.1113 
 118   0.0000       2.136056        58.1250 
 119   0.0000       2.201255        59.8992 
 120   0.0000       2.202232        59.9258 
 121   0.0000       2.321425        63.1692 
 122   0.0000       2.329491        63.3887 
 123   0.0000       2.368331        64.4456 
 124   0.0000       2.371764        64.5390 
 125   0.0000       2.416959        65.7688 
 126   0.0000       2.422512        65.9199 
 127   0.0000       2.456551        66.8461 
 128   0.0000       2.487922        67.6998 
 129   0.0000       2.534740        68.9738 
 130   0.0000       2.574229        70.0483 
 131   0.0000       2.589397        70.4611 
 132   0.0000       2.674499        72.7768 
 133   0.0000       2.675652        72.8082 
 134   0.0000       2.750428        74.8430 
 135   0.0000       2.777016        75.5664 
 136   0.0000       2.777306        75.5743 
 137   0.0000       2.836322        77.1803 
 138   0.0000       2.845216        77.4223 
 139   0.0000       2.871512        78.1378 
 140   0.0000       2.887820        78.5816 
 141   0.0000       2.953190        80.3604 
 142   0.0000       2.960255        80.5526 
 143   0.0000       2.985583        81.2418 
 144   0.0000       3.019316        82.1598 
 145   0.0000       3.041228        82.7560 
 146   0.0000       3.051400        83.0328 
 147   0.0000       3.058750        83.2328 
 148   0.0000       3.140738        85.4638 
 149   0.0000       3.168163        86.2101 
 150   0.0000       3.218230        87.5725 
 151   0.0000       3.422474        93.1302 
 152   0.0000       3.560596        96.8887 

                    ********************************
                    * MULLIKEN POPULATION ANALYSIS *
                    ********************************

-----------------------
MULLIKEN ATOMIC CHARGES
-----------------------
   0 C :    0.117212
   1 C :    0.117214
   2 N :   -0.342391
   3 N :   -0.342391
   4 C :    0.298630
   5 H :    0.089537
   6 H :    0.088517
   7 H :    0.089537
   8 H :    0.088517
   9 C :    0.085235
  10 C :    0.085235
  11 H :    0.078744
  12 H :    0.078838
  13 H :    0.078744
  14 H :    0.078838
  15 H :    0.084492
  16 H :    0.084492
  17 H :    0.141000
Sum of atomic charges:    1.0000000

--------------------------------
MULLIKEN REDUCED ORBITAL CHARGES
--------------------------------
  0 C s       :     2.995713  s :     2.995713
      pz      :     0.776419  p :     2.842733
      px      :     1.077793
      py      :     0.988521
      dz2     :     0.014366  d :     0.044342
      dxz     :     0.010019
      dyz     :     0.006520
      dx2y2   :     0.007038
      dxy     :     0.006400
  1 C s       :     2.995712  s :     2.995712
      pz      :     0.776418  p :     2.842732
      px      :     1.077793
      py      :     0.988521
      dz2     :     0.014366  d :     0.044342
      dxz     :     0.010019
      dyz     :     0.006519
      dx2y2   :     0.007038
      dxy     :     0.006400
  2 N s       :     3.429403  s :     3.429403
      pz      :     1.174109  p :     3.883339
      px      :     1.572133
      py      :     1.137097
      dz2     :     0.006396  d :     0.029649
      dxz     :     0.003762
      dyz     :     0.009670
      dx2y2   :     0.004124
      dxy     :     0.005697
  3 N s       :     3.429403  s :     3.429403
      pz      :     1.174109  p :     3.883339
      px      :     1.572133
      py      :     1.137097
      dz2     :     0.006396  d :     0.029649
      dxz     :     0.003762
      dyz     :     0.009670
      dx2y2   :     0.004124
      dxy     :     0.005697
  4 C s       :     3.088753  s :     3.088753
      pz      :     0.930512  p :     2.535586
      px      :     0.783025
      py      :     0.822048
      dz2     :     0.013326  d :     0.077031
      dxz     :     0.006358
      dyz     :     0.021672
      dx2y2   :     0.010154
      dxy     :     0.025522
  5 H s       :     0.888169  s :     0.888169
      pz      :     0.005365  p :     0.022294
      px      :     0.011698
      py      :     0.005231
  6 H s       :     0.889291  s :     0.889291
      pz      :     0.004520  p :     0.022192
      px      :     0.013037
      py      :     0.004636
  7 H s       :     0.888169  s :     0.888169
      pz      :     0.005365  p :     0.022294
      px      :     0.011698
      py      :     0.005231
  8 H s       :     0.889291  s :     0.889291
      pz      :     0.004520  p :     0.022192
      px      :     0.013037
      py      :     0.004636
  9 C s       :     3.015440  s :     3.015440
      pz      :     1.027129  p :     2.861152
      px      :     1.059150
      py      :     0.774874
      dz2     :     0.007909  d :     0.038173
      dxz     :     0.002845
      dyz     :     0.006480
      dx2y2   :     0.010013
      dxy     :     0.010926
 10 C s       :     3.015439  s :     3.015439
      pz      :     1.027129  p :     2.861153
      px      :     1.059150
      py      :     0.774874
      dz2     :     0.007909  d :     0.038173
      dxz     :     0.002845
      dyz     :     0.006480
      dx2y2   :     0.010013
      dxy     :     0.010926
 11 H s       :     0.898074  s :     0.898074
      pz      :     0.005842  p :     0.023182
      px      :     0.011383
      py      :     0.005958
 12 H s       :     0.898013  s :     0.898013
      pz      :     0.005089  p :     0.023148
      px      :     0.013208
      py      :     0.004851
 13 H s       :     0.898074  s :     0.898074
      pz      :     0.005842  p :     0.023182
      px      :     0.011383
      py      :     0.005958
 14 H s       :     0.898013  s :     0.898013
      pz      :     0.005089  p :     0.023148
      px      :     0.013208
      py      :     0.004851
 15 H s       :     0.891910  s :     0.891910
      pz      :     0.016119  p :     0.023598
      px      :     0.004897
      py      :     0.002582
 16 H s       :     0.891909  s :     0.891909
      pz      :     0.016119  p :     0.023598
      px      :     0.004897
      py      :     0.002582
 17 H s       :     0.836176  s :     0.836176
      pz      :     0.018858  p :     0.022824
      px      :     0.002660
      py      :     0.001306


                     *******************************
                     * LOEWDIN POPULATION ANALYSIS *
                     *******************************

----------------------
LOEWDIN ATOMIC CHARGES
----------------------
   0 C :    0.067121
   1 C :    0.067122
   2 N :    0.014755
   3 N :    0.014755
   4 C :    0.191885
   5 H :    0.049429
   6 H :    0.047847
   7 H :    0.049429
   8 H :    0.047847
   9 C :    0.047321
  10 C :    0.047321
  11 H :    0.044794
  12 H :    0.043756
  13 H :    0.044794
  14 H :    0.043756
  15 H :    0.051344
  16 H :    0.051344
  17 H :    0.075381

-------------------------------
LOEWDIN REDUCED ORBITAL CHARGES
-------------------------------
  0 C s       :     2.839605  s :     2.839605
      pz      :     0.870946  p :     2.987002
      px      :     1.100633
      py      :     1.015423
      dz2     :     0.034104  d :     0.106272
      dxz     :     0.025299
      dyz     :     0.014263
      dx2y2   :     0.018364
      dxy     :     0.014241
  1 C s       :     2.839605  s :     2.839605
      pz      :     0.870946  p :     2.987002
      px      :     1.100633
      py      :     1.015423
      dz2     :     0.034104  d :     0.106272
      dxz     :     0.025299
      dyz     :     0.014263
      dx2y2   :     0.018364
      dxy     :     0.014241
  2 N s       :     3.055441  s :     3.055441
      pz      :     1.183950  p :     3.862637
      px      :     1.500545
      py      :     1.178142
      dz2     :     0.016503  d :     0.067167
      dxz     :     0.006373
      dyz     :     0.025088
      dx2y2   :     0.009748
      dxy     :     0.009455
  3 N s       :     3.055441  s :     3.055441
      pz      :     1.183950  p :     3.862637
      px      :     1.500545
      py      :     1.178142
      dz2     :     0.016503  d :     0.067167
      dxz     :     0.006373
      dyz     :     0.025088
      dx2y2   :     0.009748
      dxy     :     0.009455
  4 C s       :     2.841555  s :     2.841555
      pz      :     1.041295  p :     2.787877
      px      :     0.805711
      py      :     0.940871
      dz2     :     0.032637  d :     0.178682
      dxz     :     0.009994
      dyz     :     0.057988
      dx2y2   :     0.025488
      dxy     :     0.052575
  5 H s       :     0.884086  s :     0.884086
      pz      :     0.016851  p :     0.066485
      px      :     0.032564
      py      :     0.017070
  6 H s       :     0.885691  s :     0.885691
      pz      :     0.014675  p :     0.066462
      px      :     0.036279
      py      :     0.015507
  7 H s       :     0.884086  s :     0.884086
      pz      :     0.016851  p :     0.066485
      px      :     0.032564
      py      :     0.017070
  8 H s       :     0.885691  s :     0.885691
      pz      :     0.014675  p :     0.066462
      px      :     0.036279
      py      :     0.015507
  9 C s       :     2.830047  s :     2.830047
      pz      :     1.062458  p :     3.026592
      px      :     1.091584
      py      :     0.872549
      dz2     :     0.021538  d :     0.096040
      dxz     :     0.006338
      dyz     :     0.015755
      dx2y2   :     0.023610
      dxy     :     0.028800
 10 C s       :     2.830047  s :     2.830047
      pz      :     1.062458  p :     3.026592
      px      :     1.091584
      py      :     0.872549
      dz2     :     0.021538  d :     0.096040
      dxz     :     0.006338
      dyz     :     0.015755
      dx2y2   :     0.023610
      dxy     :     0.028800
 11 H s       :     0.890045  s :     0.890045
      pz      :     0.016066  p :     0.065161
      px      :     0.031068
      py      :     0.018027
 12 H s       :     0.891029  s :     0.891029
      pz      :     0.013905  p :     0.065215
      px      :     0.036172
      py      :     0.015138
 13 H s       :     0.890045  s :     0.890045
      pz      :     0.016066  p :     0.065161
      px      :     0.031068
      py      :     0.018027
 14 H s       :     0.891029  s :     0.891029
      pz      :     0.013905  p :     0.065215
      px      :     0.036172
      py      :     0.015138
 15 H s       :     0.882855  s :     0.882855
      pz      :     0.044423  p :     0.065802
      px      :     0.012899
      py      :     0.008480
 16 H s       :     0.882855  s :     0.882855
      pz      :     0.044423  p :     0.065802
      px      :     0.012899
      py      :     0.008480
 17 H s       :     0.855528  s :     0.855528
      pz      :     0.053541  p :     0.069091
      px      :     0.008588
      py      :     0.006961


                      *****************************
                      * MAYER POPULATION ANALYSIS *
                      *****************************

  NA   - Mulliken gross atomic population
  ZA   - Total nuclear charge
  QA   - Mulliken gross atomic charge
  VA   - Mayer's total valence
  BVA  - Mayer's bonded valence
  FA   - Mayer's free valence

  ATOM       NA         ZA         QA         VA         BVA        FA
  0 C      5.8828     6.0000     0.1172     3.9530     3.9530    -0.0000
  1 C      5.8828     6.0000     0.1172     3.9530     3.9530    -0.0000
  2 N      7.3424     7.0000    -0.3424     3.4024     3.4024    -0.0000
  3 N      7.3424     7.0000    -0.3424     3.4024     3.4024    -0.0000
  4 C      5.7014     6.0000     0.2986     3.8376     3.8376     0.0000
  5 H      0.9105     1.0000     0.0895     0.9848     0.9848    -0.0000
  6 H      0.9115     1.0000     0.0885     0.9835     0.9835    -0.0000
  7 H      0.9105     1.0000     0.0895     0.9848     0.9848    -0.0000
  8 H      0.9115     1.0000     0.0885     0.9835     0.9835    -0.0000
  9 C      5.9148     6.0000     0.0852     3.8753     3.8753     0.0000
 10 C      5.9148     6.0000     0.0852     3.8753     3.8753    -0.0000
 11 H      0.9213     1.0000     0.0787     0.9915     0.9915     0.0000
 12 H      0.9212     1.0000     0.0788     0.9910     0.9910    -0.0000
 13 H      0.9213     1.0000     0.0787     0.9915     0.9915    -0.0000
 14 H      0.9212     1.0000     0.0788     0.9910     0.9910     0.0000
 15 H      0.9155     1.0000     0.0845     0.9964     0.9964     0.0000
 16 H      0.9155     1.0000     0.0845     0.9964     0.9964     0.0000
 17 H      0.8590     1.0000     0.1410     0.9896     0.9896    -0.0000

  Mayer bond orders larger than 0.100000
B(  0-C ,  1-C ) :   1.0912 B(  0-C ,  2-N ) :   0.9248 B(  0-C ,  5-H ) :   0.9546 
B(  0-C ,  8-H ) :   0.9528 B(  1-C ,  3-N ) :   0.9248 B(  1-C ,  6-H ) :   0.9528 
B(  1-C ,  7-H ) :   0.9546 B(  2-N ,  4-C ) :   1.4099 B(  2-N ,  9-C ) :   0.9258 
B(  3-N ,  4-C ) :   1.4099 B(  3-N , 10-C ) :   0.9258 B(  4-C , 17-H ) :   0.9612 
B(  9-C , 11-H ) :   0.9734 B(  9-C , 14-H ) :   0.9729 B(  9-C , 15-H ) :   0.9729 
B( 10-C , 12-H ) :   0.9729 B( 10-C , 13-H ) :   0.9734 B( 10-C , 16-H ) :   0.9729 


-------
TIMINGS
-------

Total SCF time: 0 days 0 hours 0 min 31 sec 

Total time                  ....      31.915 sec
Sum of individual times     ....      31.596 sec  ( 99.0%)

Fock matrix formation       ....      30.545 sec  ( 95.7%)
  Split-RI-J                ....       1.295 sec  (  4.2% of F)
  Chain of spheres X        ....      22.658 sec  ( 74.2% of F)
  XC integration            ....       3.639 sec  ( 11.9% of F)
    Basis function eval.    ....       1.185 sec  ( 32.6% of XC)
    Density eval.           ....       0.627 sec  ( 17.2% of XC)
    XC-Functional eval.     ....       0.485 sec  ( 13.3% of XC)
    XC-Potential eval.      ....       0.688 sec  ( 18.9% of XC)
Diagonalization             ....       0.042 sec  (  0.1%)
Density matrix formation    ....       0.004 sec  (  0.0%)
Population analysis         ....       0.018 sec  (  0.1%)
Initial guess               ....       0.117 sec  (  0.4%)
Orbital Transformation      ....       0.000 sec  (  0.0%)
Orbital Orthonormalization  ....       0.000 sec  (  0.0%)
DIIS solution               ....       0.033 sec  (  0.1%)
SOSCF solution              ....       0.026 sec  (  0.1%)
Grid generation             ....       0.811 sec  (  2.5%)

Maximum memory used throughout the entire SCF-calculation: 52.7 MB


-------------------------------------------------------------------------------
                          DFT DISPERSION CORRECTION                            
                                                                               
                                 DFTD4 V2.5                                    
-------------------------------------------------------------------------------
The WB97X functional is recognized
Active option DFTDOPT                   ...         5   

Starting D4
-------------------------   ----------------
Dispersion correction           -0.001840859
-------------------------   ----------------


-------------------------   --------------------
FINAL SINGLE POINT ENERGY      -306.220370761039
-------------------------   --------------------



           ************************************************************
           *        Program running with 4 parallel MPI-processes     *
           *              working on a common directory               *
           ************************************************************
------------------------------------------------------------------------------
                         ORCA SCF GRADIENT CALCULATION
------------------------------------------------------------------------------

 ... reading COSX grid (gridx3)
Gradient of the Kohn-Sham DFT energy:
Kohn-Sham wavefunction type      ... RKS
Hartree-Fock exchange scaling    ...    0.158
Number of operators              ...    1
Number of atoms                  ...   18
Basis set dimensions             ...  153
Integral neglect threshold       ... 2.5e-11
Integral primitive cutoff        ... 2.5e-12
SHARK Integral package           ... ON

Nuc. rep. gradient       (SHARK) ... done (  0.0 sec)
HCore & Overlap gradient (SHARK) ... done (  0.1 sec)
RI-J gradient            (SHARK) ... done (  0.3 sec)
COSX-gradient                    ... done (  5.1 sec)
Exchange-correlation gradient    ... done
Dispersion correction            ... Starting D4
Starting D4
Starting D4
Starting D4


------------------- 
Dispersion Gradient 
------------------- 
   1  :    0.000000604    0.000010002   -0.000018793
   2  :   -0.000000604   -0.000010002   -0.000018793
   3  :   -0.000000185    0.000012718    0.000000621
   4  :    0.000000185   -0.000012718    0.000000620
   5  :   -0.000000000   -0.000000000    0.000008568
   6  :   -0.000001077    0.000002734   -0.000002952
   7  :   -0.000001014   -0.000002591   -0.000002671
   8  :    0.000001077   -0.000002734   -0.000002952
   9  :    0.000001014    0.000002591   -0.000002671
  10  :    0.000000847    0.000035054    0.000009933
  11  :   -0.000000847   -0.000035054    0.000009933
  12  :    0.000000465    0.000007253    0.000002753
  13  :    0.000000417   -0.000007405    0.000002695
  14  :   -0.000000465   -0.000007253    0.000002753
  15  :   -0.000000417    0.000007405    0.000002695
  16  :    0.000000047    0.000008752    0.000002284
  17  :   -0.000000047   -0.000008752    0.000002284
  18  :    0.000000000   -0.000000000    0.000003693

  |G| =    0.000058180

done

------------------
CARTESIAN GRADIENT
------------------

   1   C   :    0.000295558    0.000146450   -0.000003925
   2   C   :   -0.000295618   -0.000146387   -0.000004283
   3   N   :   -0.000843708    0.000077177   -0.000397518
   4   N   :    0.000843658   -0.000077251   -0.000397428
   5   C   :    0.000000038   -0.000000012    0.000380999
   6   H   :   -0.000076267   -0.000082790    0.000034193
   7   H   :    0.000054705   -0.000059420   -0.000000929
   8   H   :    0.000076307    0.000082792    0.000034295
   9   H   :   -0.000054760    0.000059471   -0.000001006
  10   C   :    0.000306267   -0.000150895    0.000126896
  11   C   :   -0.000306222    0.000150926    0.000126943
  12   H   :    0.000013771    0.000024769   -0.000008165
  13   H   :   -0.000024575   -0.000020558    0.000086804
  14   H   :   -0.000013778   -0.000024763   -0.000008189
  15   H   :    0.000024558    0.000020582    0.000086811
  16   H   :   -0.000058010    0.000025726    0.000003480
  17   H   :    0.000058012   -0.000025697    0.000003478
  18   H   :    0.000000007    0.000000005    0.000000625

Difference to translation invariance:
           :   -0.0000000556    0.0000001255    0.0000630800

Difference to rotation invariance:
           :    0.0000000988    0.0000002929    0.0009622825

Norm of the cartesian gradient     ...    0.0015643985
RMS gradient                       ...    0.0002128877
MAX gradient                       ...    0.0008437076

-------
TIMINGS
-------

Total SCF gradient time            ...        7.374 sec

One electron gradient       ....       0.054 sec  (  0.7%)
RI-J Coulomb gradient       ....       0.312 sec  (  4.2%)
COSX gradient               ....       5.139 sec  ( 69.7%)
XC gradient                 ....       1.245 sec  ( 16.9%)
CPCM gradient               ....       0.193 sec  (  2.6%)
   A-Matrix (El+Nuc)        ....       0.046 sec  (  0.6%)
   Potential                ....       0.148 sec  (  2.0%)

Maximum memory used throughout the entire SCFGRAD-calculation: 40.8 MB
------------------------------------------------------------------------------
                         ORCA GEOMETRY RELAXATION STEP
------------------------------------------------------------------------------

Reading the OPT-File                    .... done
Getting information on internals        .... done
Copying old internal coords+grads       .... done
Making the new internal coordinates     .... (new redundants).... done
Validating the new internal coordinates .... (new redundants).... done
Calculating the B-matrix                .... done
Calculating the G,G- and P matrices     .... done
Transforming gradient to internals      .... done
Projecting the internal gradient        .... done
Number of atoms                         ....  18
Number of internal coordinates          ....  92
Current Energy                          ....  -306.220370761 Eh
Current gradient norm                   ....     0.001564398 Eh/bohr
Maximum allowed component of the step   ....  0.300
Current trust radius                    ....  0.300
Evaluating the initial hessian          ....  (Almloef) done
Projecting the Hessian                  .... done
Forming the augmented Hessian           .... done
Diagonalizing the augmented Hessian     .... done
Last element of RFO vector              ....  0.999798862
Lowest eigenvalues of augmented Hessian:
 -0.000010567  0.013489415  0.017511515  0.017513474  0.023107383
Length of the computed step             ....  0.020059822
The final length of the internal step   ....  0.020059822
Converting the step to cartesian space:
 Initial RMS(Int)=    0.0020913810
Transforming coordinates:
 Iter   0:  RMS(Cart)=    0.0027287399 RMS(Int)=    0.0020922168
 Iter   1:  RMS(Cart)=    0.0000056044 RMS(Int)=    0.0000027816
 Iter   2:  RMS(Cart)=    0.0000000140 RMS(Int)=    0.0000000081
done
Storing new coordinates                 .... done

                                .--------------------.
          ----------------------|Geometry convergence|-------------------------
          Item                value                   Tolerance       Converged
          ---------------------------------------------------------------------
          RMS gradient        0.0000873436            0.0001000000      YES
          MAX gradient        0.0003478066            0.0003000000      NO
          RMS step            0.0020913810            0.0020000000      NO
          MAX step            0.0058059750            0.0040000000      NO
          ........................................................
          Max(Bonds)      0.0003      Max(Angles)    0.06
          Max(Dihed)        0.33      Max(Improp)    0.00
          ---------------------------------------------------------------------

The optimization has not yet converged - more geometry cycles are needed


    ---------------------------------------------------------------------------
                         Redundant Internal Coordinates
                            (Angstroem and degrees)

        Definition                    Value    dE/dq     Step     New-Value
    ----------------------------------------------------------------------------
     1. B(C   1,C   0)                1.5416  0.000183 -0.0003    1.5413   
     2. B(N   2,C   0)                1.4680  0.000001  0.0000    1.4680   
     3. B(N   3,C   1)                1.4680  0.000001  0.0000    1.4680   
     4. B(C   4,N   3)                1.3122  0.000053 -0.0000    1.3122   
     5. B(C   4,N   2)                1.3122  0.000053 -0.0000    1.3122   
     6. B(H   5,C   0)                1.0997  0.000006 -0.0000    1.0996   
     7. B(H   6,C   1)                1.1008 -0.000019  0.0000    1.1008   
     8. B(H   7,C   1)                1.0997  0.000006 -0.0000    1.0996   
     9. B(H   8,C   0)                1.1008 -0.000019  0.0000    1.1008   
    10. B(C   9,N   2)                1.4475  0.000004 -0.0000    1.4475   
    11. B(C  10,N   3)                1.4475  0.000003 -0.0000    1.4475   
    12. B(H  11,C   9)                1.0996 -0.000006  0.0000    1.0996   
    13. B(H  12,C  10)                1.1004  0.000022 -0.0000    1.1004   
    14. B(H  13,C  10)                1.0996 -0.000006  0.0000    1.0996   
    15. B(H  14,C   9)                1.1004  0.000022 -0.0000    1.1004   
    16. B(H  15,C   9)                1.0974  0.000003 -0.0000    1.0974   
    17. B(H  16,C  10)                1.0974  0.000003 -0.0000    1.0974   
    18. B(H  17,C   4)                1.0946 -0.000003  0.0000    1.0946   
    19. A(N   2,C   0,H   5)          109.89 -0.000004    0.01    109.90   
    20. A(C   1,C   0,N   2)          102.83 -0.000034    0.01    102.84   
    21. A(C   1,C   0,H   8)          112.89  0.000032   -0.02    112.87   
    22. A(C   1,C   0,H   5)          112.98 -0.000025    0.02    113.00   
    23. A(H   5,C   0,H   8)          108.68  0.000009   -0.01    108.67   
    24. A(N   2,C   0,H   8)          109.40  0.000022   -0.01    109.39   
    25. A(C   0,C   1,N   3)          102.83 -0.000034    0.01    102.84   
    26. A(H   6,C   1,H   7)          108.68  0.000009   -0.01    108.67   
    27. A(N   3,C   1,H   7)          109.89 -0.000004    0.01    109.90   
    28. A(C   0,C   1,H   7)          112.98 -0.000025    0.02    113.00   
    29. A(C   0,C   1,H   6)          112.89  0.000032   -0.02    112.87   
    30. A(N   3,C   1,H   6)          109.40  0.000022   -0.01    109.39   
    31. A(C   0,N   2,C   4)          110.20  0.000064   -0.01    110.20   
    32. A(C   0,N   2,C   9)          122.80  0.000273   -0.03    122.77   
    33. A(C   4,N   2,C   9)          126.76 -0.000348    0.06    126.82   
    34. A(C   4,N   3,C  10)          126.76 -0.000348    0.06    126.82   
    35. A(C   1,N   3,C  10)          122.80  0.000273   -0.03    122.77   
    36. A(C   1,N   3,C   4)          110.20  0.000064   -0.01    110.20   
    37. A(N   2,C   4,N   3)          113.68 -0.000063    0.00    113.68   
    38. A(N   3,C   4,H  17)          123.16  0.000031   -0.00    123.16   
    39. A(N   2,C   4,H  17)          123.16  0.000031   -0.00    123.16   
    40. A(H  14,C   9,H  15)          109.40 -0.000047    0.01    109.41   
    41. A(N   2,C   9,H  15)          109.41  0.000010   -0.00    109.41   
    42. A(H  11,C   9,H  14)          109.12 -0.000018   -0.00    109.12   
    43. A(N   2,C   9,H  14)          110.05  0.000047   -0.01    110.04   
    44. A(H  11,C   9,H  15)          109.23 -0.000030    0.01    109.24   
    45. A(N   2,C   9,H  11)          109.62  0.000037   -0.01    109.61   
    46. A(H  13,C  10,H  16)          109.23 -0.000030    0.01    109.24   
    47. A(H  12,C  10,H  16)          109.40 -0.000047    0.01    109.41   
    48. A(N   3,C  10,H  16)          109.41  0.000010   -0.00    109.41   
    49. A(H  12,C  10,H  13)          109.12 -0.000018   -0.00    109.12   
    50. A(N   3,C  10,H  13)          109.62  0.000037   -0.01    109.61   
    51. A(N   3,C  10,H  12)          110.05  0.000047   -0.01    110.04   
    52. D(H   7,C   1,C   0,N   2)   -123.19 -0.000006   -0.00   -123.19   
    53. D(N   3,C   1,C   0,H   8)    112.98 -0.000023    0.01    112.99   
    54. D(H   6,C   1,C   0,N   2)    112.98 -0.000023    0.01    112.99   
    55. D(H   7,C   1,C   0,H   8)     -5.42  0.000015   -0.02     -5.44   
    56. D(H   6,C   1,C   0,H   8)   -129.24 -0.000002   -0.01   -129.25   
    57. D(N   3,C   1,C   0,N   2)     -4.80 -0.000044    0.03     -4.77   
    58. D(H   6,C   1,C   0,H   5)     -5.42  0.000014   -0.02     -5.44   
    59. D(N   3,C   1,C   0,H   5)   -123.19 -0.000006   -0.00   -123.19   
    60. D(H   7,C   1,C   0,H   5)    118.41  0.000031   -0.03    118.38   
    61. D(C   9,N   2,C   0,H   8)     58.78 -0.000130    0.26     59.05   
    62. D(C   9,N   2,C   0,H   5)    -60.45 -0.000152    0.27    -60.18   
    63. D(C   4,N   2,C   0,H   8)   -116.03  0.000012    0.00   -116.03   
    64. D(C   9,N   2,C   0,C   1)    179.00 -0.000102    0.24    179.24   
    65. D(C   4,N   2,C   0,H   5)    124.73 -0.000010    0.01    124.74   
    66. D(C   4,N   2,C   0,C   1)      4.18  0.000041   -0.02      4.16   
    67. D(C  10,N   3,C   1,H   7)    -60.45 -0.000152    0.27    -60.18   
    68. D(C  10,N   3,C   1,H   6)     58.78 -0.000130    0.26     59.05   
    69. D(C  10,N   3,C   1,C   0)    179.00 -0.000102    0.24    179.24   
    70. D(C   4,N   3,C   1,H   7)    124.73 -0.000010    0.01    124.74   
    71. D(C   4,N   3,C   1,H   6)   -116.03  0.000012    0.00   -116.03   
    72. D(C   4,N   3,C   1,C   0)      4.18  0.000041   -0.02      4.16   
    73. D(H  17,C   4,N   3,C  10)      3.70  0.000089   -0.26      3.44   
    74. D(H  17,C   4,N   3,C   1)    178.25 -0.000019    0.01    178.26   
[...]
      7      -0.266763   0.000994   0.000256   0.000008   0.000045   0.000021
      8       0.099557  -0.000578   0.000148  -0.000816   0.000141   0.000107
      9      -0.005688   0.000026   0.000030  -0.000043  -0.000058  -0.000789
     10      -0.266773   0.000994  -0.000256   0.000008  -0.000045  -0.000021
     11      -0.099563   0.000578   0.000148   0.000816   0.000141   0.000107
     12       0.007395  -0.000030  -0.000000  -0.000022   0.000000   0.000000
     13       0.475452  -0.003266  -0.000000  -0.002056   0.000000   0.000000
     14       0.000006   0.000000  -0.000064   0.000000   0.000121  -0.000028
     15       0.050290   0.009517   0.004363   0.380630  -0.373869   0.412799
     16      -0.100033  -0.004111  -0.002595  -0.192081   0.188774  -0.217672
     17      -0.201194   0.006334   0.000856   0.210341  -0.205064   0.236221
     18      -0.049456  -0.011186   0.005296  -0.440812  -0.447937  -0.382803
     19      -0.097232  -0.003837   0.002635  -0.179059  -0.181970  -0.162800
     20       0.202774  -0.006478   0.000946  -0.211719  -0.214613  -0.190851
     21       0.050292   0.009518  -0.004363   0.380675   0.373817  -0.412814
     22      -0.100036  -0.004111   0.002595  -0.192104  -0.188748   0.217679
     23       0.201198  -0.006334   0.000856  -0.210366  -0.205036   0.236230
     24      -0.049455  -0.011185  -0.005296  -0.440752   0.447991   0.382795
     25      -0.097230  -0.003836  -0.002635  -0.179034   0.181992   0.162796
     26      -0.202769   0.006478   0.000946   0.211690  -0.214639  -0.190848
     27       0.000787   0.000642  -0.000636   0.000112  -0.000172  -0.010465
     28       0.027578   0.034045  -0.034249  -0.000795  -0.000604   0.000209
     29      -0.009828   0.005530  -0.005793  -0.000658   0.000248   0.000072
     30       0.000787   0.000641   0.000636   0.000112   0.000172   0.010465
     31       0.027581   0.034043   0.034252  -0.000794   0.000604  -0.000209
     32       0.009828  -0.005530  -0.005793   0.000658   0.000248   0.000072
     33       0.076951   0.354400  -0.354208  -0.009259  -0.003241   0.062541
     34       0.181341  -0.210369   0.211022   0.004798   0.003283  -0.039459
     35       0.074937   0.136607  -0.136309  -0.004379  -0.000263   0.024405
     36      -0.067183  -0.357276  -0.357068   0.007809  -0.005361  -0.063257
     37       0.185638  -0.195917  -0.196544   0.003409  -0.004522  -0.036890
     38      -0.078489  -0.145781  -0.145466   0.004077  -0.001102  -0.026265
     39       0.076951   0.354381   0.354231  -0.009258   0.003242  -0.062542
     40       0.181346  -0.210355  -0.211034   0.004797  -0.003283   0.039459
     41      -0.074937  -0.136597  -0.136316   0.004379  -0.000264   0.024404
     42      -0.067181  -0.357300   0.357048   0.007811   0.005360   0.063257
     43       0.185634  -0.195927   0.196531   0.003410   0.004521   0.036889
     44       0.078488   0.145788  -0.145455  -0.004078  -0.001101  -0.026265
     45       0.000087  -0.004840   0.004848   0.000142   0.000065  -0.000453
     46      -0.021449   0.004580  -0.004323  -0.001120   0.001176  -0.000045
     47      -0.016352  -0.350193   0.350444   0.012248   0.001427   0.000780
     48       0.000087  -0.004842  -0.004851   0.000142  -0.000065   0.000453
     49      -0.021456   0.004580   0.004323  -0.001120  -0.001175   0.000045
     50       0.016352   0.350171   0.350465  -0.012248   0.001429   0.000781
     51      -0.006185   0.000032   0.000000   0.000147  -0.000000   0.000000
     52      -0.459859   0.001717   0.000000  -0.000172   0.000000   0.000000
     53       0.000009  -0.000000  -0.003971  -0.000001  -0.015868   0.001455
                 48         49         50         51         52         53    
      0      -0.060854   0.010803  -0.030519   0.000075   0.000044  -0.000023
      1       0.003727  -0.000677   0.001792  -0.000097  -0.000009  -0.000903
      2      -0.003038   0.000523  -0.001436  -0.000429  -0.000426   0.001447
      3      -0.060852  -0.010811  -0.030516   0.000077  -0.000043   0.000023
      4       0.003727   0.000678   0.001792  -0.000097   0.000007   0.000903
      5       0.003038   0.000524   0.001436   0.000439  -0.000416   0.001447
      6       0.000693   0.000392  -0.000100  -0.000028  -0.000031  -0.000063
      7      -0.000056  -0.000007  -0.000018  -0.000641  -0.000721  -0.004182
      8       0.000014  -0.000013   0.000008  -0.000116  -0.000178   0.003771
      9       0.000693  -0.000392  -0.000099  -0.000029   0.000030   0.000063
     10      -0.000056   0.000007  -0.000018  -0.000658   0.000706   0.004182
     11      -0.000014  -0.000013  -0.000008   0.000120  -0.000175   0.003771
     12      -0.000576   0.000000   0.000177   0.000005   0.000000  -0.000000
     13      -0.000054  -0.000000  -0.000026   0.000470   0.000006  -0.000000
     14      -0.000000   0.000003   0.000000   0.000004  -0.000361  -0.093982
     15       0.367970  -0.064232   0.182785   0.001756   0.001577  -0.005568
     16      -0.194679   0.034635  -0.097443  -0.001382  -0.001240   0.003229
     17       0.210401  -0.035271   0.102899   0.000636   0.000309  -0.003164
     18       0.353827   0.061727   0.177461  -0.002617   0.001908  -0.005640
     19       0.151225   0.027051   0.076637  -0.001572   0.001238  -0.002648
     20       0.176150   0.029215   0.086695  -0.000850   0.000311  -0.002765
     21       0.367961   0.064281   0.182765   0.001793  -0.001534   0.005568
     22      -0.194674  -0.034661  -0.097432  -0.001412   0.001207  -0.003229
     23      -0.210396  -0.035298  -0.102889  -0.000643   0.000293  -0.003164
     24       0.353839  -0.061680   0.177482  -0.002570  -0.001970   0.005639
     25       0.151230  -0.027030   0.076646  -0.001542  -0.001275   0.002648
     26      -0.176157   0.029192  -0.086705   0.000843   0.000331  -0.002765
     27      -0.030224  -0.066850   0.060642   0.000062   0.000054   0.000005
     28       0.000631   0.001394  -0.001259  -0.018726  -0.019223  -0.000003
     29       0.000236   0.000459  -0.000412   0.064198   0.065817  -0.000160
     30      -0.030225   0.066864   0.060626   0.000063  -0.000053  -0.000005
     31       0.000631  -0.001394  -0.001258  -0.019181   0.018769   0.000003
     32      -0.000236   0.000459   0.000412  -0.065757   0.064260  -0.000160
     33       0.179411   0.397710  -0.360620  -0.196085  -0.200960  -0.001578
     34      -0.110378  -0.242275   0.219200   0.113952   0.116841   0.002174
     35       0.071661   0.160469  -0.145809  -0.071166  -0.072814   0.000098
     36       0.180896  -0.400708  -0.363119   0.208774  -0.204033  -0.001567
     37       0.103043  -0.225886  -0.204204   0.112067  -0.109574  -0.002073
     38       0.076411  -0.170796  -0.155069   0.080855  -0.078899   0.000120
     39       0.179413  -0.397801  -0.360524  -0.200841   0.196203   0.001579
     40      -0.110378   0.242328   0.219139   0.116716  -0.114075  -0.002174
     41      -0.071661   0.160502   0.145767   0.072888  -0.071086   0.000098
     42       0.180896   0.400621  -0.363221   0.203826   0.208975   0.001566
     43       0.103041   0.225834  -0.204258   0.109409   0.112226   0.002073
     44      -0.076409  -0.170756   0.155109  -0.078940  -0.080812   0.000120
     45      -0.002411  -0.006061   0.005625  -0.008204  -0.008403   0.000131
     46      -0.000016   0.000084  -0.000087   0.009277   0.009504   0.001884
     47       0.001772   0.004852  -0.004527  -0.605917  -0.620459   0.000201
     48      -0.002411   0.006062   0.005623  -0.008407   0.008207  -0.000131
     49      -0.000016  -0.000084  -0.000087   0.009502  -0.009279  -0.001884
     50      -0.001774   0.004857   0.004529   0.620605  -0.605765   0.000201
     51      -0.001287  -0.000000  -0.001320   0.000003   0.000000   0.000001
     52      -0.000037   0.000000   0.000005   0.001427   0.000017  -0.000000
     53      -0.000000  -0.000049  -0.000000   0.000026  -0.002148   0.995423


-----------
IR SPECTRUM
-----------

 Mode   freq       eps      Int      T**2         TX        TY        TZ
       cm**-1   L/(mol*cm) km/mol    a.u.
----------------------------------------------------------------------------
  6:     42.31   0.000000    0.00  0.000000  (-0.000002 -0.000000  0.000154)
  7:    119.03   0.000641    3.24  0.001682  ( 0.040798 -0.004141 -0.000000)
  8:    132.81   0.000000    0.00  0.000000  ( 0.000004 -0.000001  0.000375)
  9:    166.90   0.001011    5.11  0.001890  ( 0.043429 -0.001935 -0.000000)
 10:    204.93   0.000000    0.00  0.000000  ( 0.000003 -0.000001  0.000548)
 11:    267.50   0.000003    0.02  0.000004  ( 0.000000 -0.000000  0.001887)
 12:    398.50   0.000203    1.03  0.000159  ( 0.000559  0.012606 -0.000000)
 13:    466.53   0.009303   47.01  0.006223  ( 0.078745 -0.004680 -0.000000)
 14:    617.03   0.000003    0.02  0.000002  (-0.000000 -0.000001 -0.001278)
 15:    635.86   0.001606    8.11  0.000788  ( 0.000612  0.028064 -0.000000)
 16:    846.68   0.000012    0.06  0.000004  ( 0.000913  0.001864  0.000000)
 17:    949.02   0.002623   13.25  0.000862  (-0.000000  0.000002  0.029368)
 18:    959.95   0.002637   13.32  0.000857  ( 0.000997 -0.029260  0.000002)
 19:   1012.05   0.001198    6.06  0.000369  ( 0.019157  0.001580  0.000000)
 20:   1016.33   0.000034    0.17  0.000010  ( 0.000000  0.000000 -0.003216)
 21:   1094.70   0.000001    0.00  0.000000  ( 0.000000  0.000001  0.000477)
 22:   1103.80   0.015239   77.01  0.004308  (-0.000852 -0.065632  0.000002)
 23:   1115.24   0.003443   17.40  0.000963  ( 0.000000  0.000002  0.031037)
 24:   1142.34   0.000262    1.32  0.000071  ( 0.008393 -0.001017  0.000000)
 25:   1158.89   0.000000    0.00  0.000000  (-0.000000  0.000001 -0.000226)
 26:   1201.92   0.023031  116.39  0.005980  ( 0.002788  0.077279  0.000001)
 27:   1229.44   0.002593   13.11  0.000658  ( 0.024692 -0.006970 -0.000000)
 28:   1257.83   0.000024    0.12  0.000006  (-0.000001  0.000000  0.002437)
 29:   1332.55   0.007177   36.27  0.001681  (-0.000711 -0.040992 -0.000000)
 30:   1339.14   0.002559   12.93  0.000596  (-0.000000  0.000001 -0.024419)
 31:   1351.73   0.015287   77.25  0.003529  ( 0.001798  0.059379 -0.000001)
 32:   1394.66   0.006819   34.46  0.001526  (-0.000000 -0.000001 -0.039063)
 33:   1436.28   0.012638   63.87  0.002746  ( 0.002528 -0.052340  0.000000)
 34:   1437.38   0.000001    0.00  0.000000  (-0.000006  0.000001 -0.000420)
 35:   1438.13   0.009545   48.24  0.002071  (-0.045414 -0.002965  0.000000)
 36:   1447.39   0.000710    3.59  0.000153  ( 0.000000  0.000003  0.012368)
 37:   1467.67   0.009060   45.79  0.001926  (-0.000000  0.000000 -0.043892)
 38:   1474.73   0.000026    0.13  0.000006  ( 0.000038 -0.002363  0.000000)
 39:   1475.43   0.000003    0.01  0.000001  (-0.000767 -0.000029 -0.000000)
 40:   1489.14   0.000455    2.30  0.000095  ( 0.000000  0.000000 -0.009761)
 41:   1627.29   0.006637   33.54  0.001273  (-0.000000 -0.000003  0.035676)
 42:   1767.63   0.166256  840.19  0.029351  ( 0.003484  0.171287  0.000000)
 43:   3076.15   0.013362   67.53  0.001356  ( 0.000596  0.036813  0.000000)
 44:   3077.36   0.000232    1.17  0.000023  (-0.000000  0.000001 -0.004846)
 45:   3103.99   0.003302   16.69  0.000332  ( 0.002469  0.018053  0.000001)
 46:   3108.68   0.002855   14.43  0.000287  (-0.000000 -0.000001  0.016928)
 47:   3167.89   0.000009    0.05  0.000001  (-0.000000 -0.000000 -0.000939)
 48:   3177.13   0.003984   20.13  0.000391  (-0.019766  0.000782  0.000000)
 49:   3182.20   0.000000    0.00  0.000000  ( 0.000001 -0.000000  0.000168)
 50:   3183.04   0.000827    4.18  0.000081  ( 0.009001 -0.000125 -0.000000)
 51:   3209.50   0.000506    2.55  0.000049  (-0.000193 -0.007008 -0.000056)
 52:   3209.51   0.000228    1.15  0.000022  (-0.000002 -0.000084  0.004705)
 53:   3263.95   0.003091   15.62  0.000296  ( 0.000000 -0.000000  0.017192)

* The epsilon (eps) is given for a Dirac delta lineshape.
** The dipole moment derivative (T) already includes vibrational overlap.

The first frequency considered to be a vibration is 6
The total number of vibrations considered is 48


--------------------------
THERMOCHEMISTRY AT 298.15K
--------------------------

Temperature         ... 298.15 K
Pressure            ... 1.00 atm
Total Mass          ... 99.16 AMU

Throughout the following assumptions are being made:
  (1) The electronic state is orbitally nondegenerate
  (2) There are no thermally accessible electronically excited states
  (3) Hindered rotations indicated by low frequency modes are not
      treated as such but are treated as vibrations and this may
      cause some error
  (4) All equations used are the standard statistical mechanics
      equations for an ideal gas
  (5) All vibrations are strictly harmonic

freq.      42.31  E(vib)   ...       0.53 
freq.     119.03  E(vib)   ...       0.44 
freq.     132.81  E(vib)   ...       0.42 
freq.     166.90  E(vib)   ...       0.39 
freq.     204.93  E(vib)   ...       0.35 
freq.     267.50  E(vib)   ...       0.29 
freq.     398.50  E(vib)   ...       0.20 
freq.     466.53  E(vib)   ...       0.16 
freq.     617.03  E(vib)   ...       0.09 
freq.     635.86  E(vib)   ...       0.09 
freq.     846.68  E(vib)   ...       0.04 
freq.     949.02  E(vib)   ...       0.03 
freq.     959.95  E(vib)   ...       0.03 
freq.    1012.05  E(vib)   ...       0.02 
freq.    1016.33  E(vib)   ...       0.02 
freq.    1094.70  E(vib)   ...       0.02 
freq.    1103.80  E(vib)   ...       0.02 
freq.    1115.24  E(vib)   ...       0.01 
freq.    1142.34  E(vib)   ...       0.01 
freq.    1158.89  E(vib)   ...       0.01 
freq.    1201.92  E(vib)   ...       0.01 
freq.    1229.44  E(vib)   ...       0.01 
freq.    1257.83  E(vib)   ...       0.01 
freq.    1332.55  E(vib)   ...       0.01 
freq.    1339.14  E(vib)   ...       0.01 
freq.    1351.73  E(vib)   ...       0.01 
freq.    1394.66  E(vib)   ...       0.00 
freq.    1436.28  E(vib)   ...       0.00 
freq.    1437.38  E(vib)   ...       0.00 
freq.    1438.13  E(vib)   ...       0.00 
freq.    1447.39  E(vib)   ...       0.00 
freq.    1467.67  E(vib)   ...       0.00 
freq.    1474.73  E(vib)   ...       0.00 
freq.    1475.43  E(vib)   ...       0.00 
freq.    1489.14  E(vib)   ...       0.00 
freq.    1627.29  E(vib)   ...       0.00 
freq.    1767.63  E(vib)   ...       0.00 
freq.    3076.15  E(vib)   ...       0.00 
freq.    3077.36  E(vib)   ...       0.00 
freq.    3103.99  E(vib)   ...       0.00 
freq.    3108.68  E(vib)   ...       0.00 
freq.    3167.89  E(vib)   ...       0.00 
freq.    3177.13  E(vib)   ...       0.00 
freq.    3182.20  E(vib)   ...       0.00 
freq.    3183.04  E(vib)   ...       0.00 
freq.    3209.50  E(vib)   ...       0.00 
freq.    3209.51  E(vib)   ...       0.00 
freq.    3263.95  E(vib)   ...       0.00 

------------
INNER ENERGY
------------

The inner energy is: U= E(el) + E(ZPE) + E(vib) + E(rot) + E(trans)
    E(el)   - is the total energy from the electronic structure calculation
              = E(kin-el) + E(nuc-el) + E(el-el) + E(nuc-nuc)
    E(ZPE)  - the the zero temperature vibrational energy from the frequency calculation
    E(vib)  - the the finite temperature correction to E(ZPE) due to population
              of excited vibrational states
    E(rot)  - is the rotational thermal energy
    E(trans)- is the translational thermal energy

Summary of contributions to the inner energy U:
Electronic energy                ...   -306.22043613 Eh
Zero point energy                ...      0.16488949 Eh     103.47 kcal/mol
Thermal vibrational correction   ...      0.00517681 Eh       3.25 kcal/mol
Thermal rotational correction    ...      0.00141627 Eh       0.89 kcal/mol
Thermal translational correction ...      0.00141627 Eh       0.89 kcal/mol
-----------------------------------------------------------------------
Total thermal energy                   -306.04753729 Eh


Summary of corrections to the electronic energy:
(perhaps to be used in another calculation)
Total thermal correction                  0.00800935 Eh       5.03 kcal/mol
Non-thermal (ZPE) correction              0.16488949 Eh     103.47 kcal/mol
-----------------------------------------------------------------------
Total correction                          0.17289884 Eh     108.50 kcal/mol


--------
ENTHALPY
--------

The enthalpy is H = U + kB*T
                kB is Boltzmann's constant
Total free energy                 ...   -306.04753729 Eh 
Thermal Enthalpy correction       ...      0.00094421 Eh       0.59 kcal/mol
-----------------------------------------------------------------------
Total Enthalpy                    ...   -306.04659308 Eh


Note: Rotational entropy computed according to Herzberg 
Infrared and Raman Spectra, Chapter V,1, Van Nostrand Reinhold, 1945 
Point Group:  C2, Symmetry Number:   2  
Rotational constants in cm-1:     0.191099     0.066455     0.051246 

Vibrational entropy computed according to the QRRHO of S. Grimme
Chem.Eur.J. 2012 18 9955


-------
ENTROPY
-------

The entropy contributions are T*S = T*(S(el)+S(vib)+S(rot)+S(trans))
     S(el)   - electronic entropy
     S(vib)  - vibrational entropy
     S(rot)  - rotational entropy
     S(trans)- translational entropy
The entropies will be listed as multiplied by the temperature to get
units of energy

Electronic entropy                ...      0.00000000 Eh      0.00 kcal/mol
Vibrational entropy               ...      0.00923127 Eh      5.79 kcal/mol
Rotational entropy                ...      0.01232023 Eh      7.73 kcal/mol
Translational entropy             ...      0.01885925 Eh     11.83 kcal/mol
-----------------------------------------------------------------------
Final entropy term                ...      0.04041075 Eh     25.36 kcal/mol

In case the symmetry of your molecule has not been determined correctly
or in case you have a reason to use a different symmetry number we print 
out the resulting rotational entropy values for sn=1,12 :
 --------------------------------------------------------
|  sn= 1 | S(rot)=       0.01297468 Eh      8.14 kcal/mol|
|  sn= 2 | S(rot)=       0.01232023 Eh      7.73 kcal/mol|
|  sn= 3 | S(rot)=       0.01193740 Eh      7.49 kcal/mol|
|  sn= 4 | S(rot)=       0.01166577 Eh      7.32 kcal/mol|
|  sn= 5 | S(rot)=       0.01145508 Eh      7.19 kcal/mol|
|  sn= 6 | S(rot)=       0.01128294 Eh      7.08 kcal/mol|
|  sn= 7 | S(rot)=       0.01113739 Eh      6.99 kcal/mol|
|  sn= 8 | S(rot)=       0.01101132 Eh      6.91 kcal/mol|
|  sn= 9 | S(rot)=       0.01090011 Eh      6.84 kcal/mol|
|  sn=10 | S(rot)=       0.01080063 Eh      6.78 kcal/mol|
|  sn=11 | S(rot)=       0.01071064 Eh      6.72 kcal/mol|
|  sn=12 | S(rot)=       0.01062848 Eh      6.67 kcal/mol|
 --------------------------------------------------------


-------------------
GIBBS FREE ENERGY
-------------------

The Gibbs free energy is G = H - T*S

Total enthalpy                    ...   -306.04659308 Eh 
Total entropy correction          ...     -0.04041075 Eh    -25.36 kcal/mol
-----------------------------------------------------------------------
Final Gibbs free energy         ...   -306.08700384 Eh

For completeness - the Gibbs free energy minus the electronic energy
G-E(el)                           ...      0.13343229 Eh     83.73 kcal/mol


Timings for individual modules:

Sum of individual times         ...      382.464 sec (=   6.374 min)
GTO integral calculation        ...        4.216 sec (=   0.070 min)   1.1 %
SCF iterations                  ...      202.446 sec (=   3.374 min)  52.9 %
SCF Gradient evaluation         ...       61.538 sec (=   1.026 min)  16.1 %
Geometry relaxation             ...        0.352 sec (=   0.006 min)   0.1 %
Analytical frequency calculation...      113.912 sec (=   1.899 min)  29.8 %
                             ****ORCA TERMINATED NORMALLY****
TOTAL RUN TIME: 0 days 0 hours 6 minutes 25 seconds 786 msec
