      -----------------------------------------------------------      
     |                   =====================                   |     
     |                           x T B                           |     
     |                   =====================                   |     
     |                         S. Grimme                         |     
     |          Mulliken Center for Theoretical Chemistry        |     
     |                    University of Bonn                     |     
      -----------------------------------------------------------      

   * xtb version 6.6.1 (8d0f1dd) compiled by 'conda@1efc2f54142f' on 2023-08-01

   xtb is free software: you can redistribute it and/or modify it under
   the terms of the GNU Lesser General Public License as published by
   the Free Software Foundation, either version 3 of the License, or
   (at your option) any later version.
   
   xtb is distributed in the hope that it will be useful,
   but WITHOUT ANY WARRANTY; without even the implied warranty of
   MERCHANTABILITY or FITNESS FOR A PARTICULAR PURPOSE.  See the
   GNU Lesser General Public License for more details.
   
   Cite this work as:
   * C. Bannwarth, E. Caldeweyher, S. Ehlert, A. Hansen, P. Pracht,
     J. Seibert, S. Spicher, S. Grimme, WIREs Comput. Mol. Sci., 2020, 11,
     e01493. DOI: 10.1002/wcms.1493
   
   for GFN2-xTB:
   * C. Bannwarth, S. Ehlert and S. Grimme., J. Chem. Theory Comput., 2019,
     15, 1652-1671. DOI: 10.1021/acs.jctc.8b01176
   for GFN1-xTB:
   * S. Grimme, C. Bannwarth, P. Shushkov, J. Chem. Theory Comput., 2017,
     13, 1989-2009. DOI: 10.1021/acs.jctc.7b00118
   for GFN0-xTB:
   * P. Pracht, E. Caldeweyher, S. Ehlert, S. Grimme, ChemRxiv, 2019, preprint.
     DOI: 10.26434/chemrxiv.8326202.v1
   for GFN-FF:
   * S. Spicher and S. Grimme, Angew. Chem. Int. Ed., 2020, 59, 15665-15673.
     DOI: 10.1002/anie.202004239
   
   for ALPB and GBSA implicit solvation:
   * S. Ehlert, M. Stahn, S. Spicher, S. Grimme, J. Chem. Theory Comput.,
     2021, 17, 4250-4261. DOI: 10.1021/acs.jctc.1c00471
   
   for DFT-D4:
   * E. Caldeweyher, C. Bannwarth and S. Grimme, J. Chem. Phys., 2017,
     147, 034112. DOI: 10.1063/1.4993215
   * E. Caldeweyher, S. Ehlert, A. Hansen, H. Neugebauer, S. Spicher,
     C. Bannwarth and S. Grimme, J. Chem. Phys., 2019, 150, 154122.
     DOI: 10.1063/1.5090222
   * E. Caldeweyher, J.-M. Mewes, S. Ehlert and S. Grimme, Phys. Chem. Chem. Phys.
     2020, 22, 8499-8512. DOI: 10.1039/D0CP00502A
   
   for sTDA-xTB:
   * S. Grimme and C. Bannwarth, J. Chem. Phys., 2016, 145, 054103.
     DOI: 10.1063/1.4959605
   
   in the mass-spec context:
   * V. Asgeirsson, C. Bauer and S. Grimme, Chem. Sci., 2017, 8, 4879.
     DOI: 10.1039/c7sc00601b
   * J. Koopman and S. Grimme, ACS Omega 2019, 4, 12, 15120-15133.
     DOI: 10.1021/acsomega.9b02011
   
   for metadynamics refer to:
   * S. Grimme, J. Chem. Theory Comput., 2019, 155, 2847-2862
     DOI: 10.1021/acs.jctc.9b00143
   
   for SPH calculations refer to:
   * S. Spicher and S. Grimme, J. Chem. Theory Comput., 2021, 17, 1701-1714
     DOI: 10.1021/acs.jctc.0c01306
   
   with help from (in alphabetical order)
   P. Atkinson, C. Bannwarth, F. Bohle, G. Brandenburg, E. Caldeweyher
   M. Checinski, S. Dohm, S. Ehlert, S. Ehrlich, I. Gerasimov, C. Hölzer
   A. Katbashev, J. Koopman, C. Lavigne, S. Lehtola, F. März, M. Müller,
   F. Musil, H. Neugebauer, J. Pisarek, C. Plett, P. Pracht, F. Pultar,
   J. Seibert, P. Shushkov, S. Spicher, M. Stahn, M. Steiner, T. Strunk,
   J. Stückrath, T. Rose, and J. Unsleber
   
 * started run on 2024/02/12 at 14:13:51.563     

           -------------------------------------------------
          |                Calculation Setup                |
           -------------------------------------------------

          program call               : xtb struc.xyz --gfn2 --ceasefiles --opt
          hostname                   : node021
          coordinate file            : struc.xyz
          omp threads                :                     1

   ID    Z sym.   atoms
    1    6 C      1, 2, 5-7, 11-14, 27, 28
    2    7 N      3, 4
    3    1 H      8-10, 15-26, 29-34

           -------------------------------------------------
          |                 G F N 2 - x T B                 |
           -------------------------------------------------

        Reference                      10.1021/acs.jctc.8b01176
      * Hamiltonian:
        H0-scaling (s, p, d)           1.850000    2.230000    2.230000
        zeta-weighting                 0.500000
      * Dispersion:
        s8                             2.700000
        a1                             0.520000
        a2                             5.000000
        s9                             5.000000
      * Repulsion:
        kExp                           1.500000    1.000000
        rExp                           1.000000
      * Coulomb:
        alpha                          2.000000
        third order                    shell-resolved
        anisotropic                    true
        a3                             3.000000
        a5                             4.000000
        cn-shift                       1.200000
        cn-exp                         4.000000
        max-rad                        5.000000


          ...................................................
          :                      SETUP                      :
          :.................................................:
          :  # basis functions                  73          :
          :  # atomic orbitals                  73          :
          :  # shells                           47          :
          :  # electrons                        74          :
          :  max. iterations                   250          :
          :  Hamiltonian                  GFN2-xTB          :
          :  restarted?                      false          :
          :  GBSA solvation                  false          :
          :  PC potential                    false          :
          :  electronic temp.          300.0000000     K    :
          :  accuracy                    1.0000000          :
          :  -> integral cutoff          0.2500000E+02      :
          :  -> integral neglect         0.1000000E-07      :
          :  -> SCF convergence          0.1000000E-05 Eh   :
          :  -> wf. convergence          0.1000000E-03 e    :
          :  Broyden damping             0.4000000          :
          ...................................................

 iter      E             dE          RMSdq      gap      omega  full diag
   1    -40.2447072 -0.402447E+02  0.267E+00    5.50       0.0  T
   2    -40.3478567 -0.103149E+00  0.190E+00    4.59       1.0  T
   3    -40.3547186 -0.686189E-02  0.107E+00    4.83       1.0  T
   4    -40.3547354 -0.168581E-04  0.279E-01    4.64       1.0  T
   5    -40.3556875 -0.952045E-03  0.716E-02    4.69       1.0  T
   6    -40.3557333 -0.457826E-04  0.380E-02    4.68       1.0  T
   7    -40.3557360 -0.277415E-05  0.172E-02    4.70       1.0  T
   8    -40.3557409 -0.487247E-05  0.186E-03    4.69       9.2  T
   9    -40.3557409 -0.147889E-07  0.101E-03    4.69      16.9  T
  10    -40.3557409 -0.912114E-08  0.485E-04    4.69      35.4  T
  11    -40.3557409 -0.286720E-08  0.795E-05    4.69     215.8  T

   *** convergence criteria satisfied after 11 iterations ***

         #    Occupation            Energy/Eh            Energy/eV
      -------------------------------------------------------------
         1        2.0000           -0.8798198             -23.9411
       ...           ...                  ...                  ...
        31        2.0000           -0.5840274             -15.8922
        32        2.0000           -0.5828828             -15.8610
        33        2.0000           -0.5811884             -15.8149
        34        2.0000           -0.5733299             -15.6011
        35        2.0000           -0.5728054             -15.5868
        36        2.0000           -0.5714129             -15.5489
        37        2.0000           -0.5691652             -15.4878 (HOMO)
        38                         -0.3966676             -10.7939 (LUMO)
        39                         -0.3616266              -9.8404
        40                         -0.1972761              -5.3682
        41                         -0.1499901              -4.0814
        42                         -0.0875799              -2.3832
       ...                                ...                  ...
        73                          0.4958210              13.4920
      -------------------------------------------------------------
                  HL-Gap            0.1724977 Eh            4.6939 eV
             Fermi-level           -0.4829164 Eh          -13.1408 eV

 SCC (total)                   0 d,  0 h,  0 min,  0.336 sec
 SCC setup                      ...        0 min,  0.000 sec (  0.139%)
 Dispersion                     ...        0 min,  0.000 sec (  0.131%)
 classical contributions        ...        0 min,  0.000 sec (  0.033%)
 integral evaluation            ...        0 min,  0.006 sec (  1.650%)
 iterations                     ...        0 min,  0.311 sec ( 92.565%)
 molecular gradient             ...        0 min,  0.018 sec (  5.397%)
 printout                       ...        0 min,  0.000 sec (  0.080%)

         :::::::::::::::::::::::::::::::::::::::::::::::::::::
         ::                     SUMMARY                     ::
         :::::::::::::::::::::::::::::::::::::::::::::::::::::
         :: total energy             -39.743684406171 Eh    ::
         :: gradient norm              0.078594869484 Eh/a0 ::
         :: HOMO-LUMO gap              4.693900381343 eV    ::
         ::.................................................::
         :: SCC energy               -40.355740938019 Eh    ::
         :: -> isotropic ES            0.077121463402 Eh    ::
         :: -> anisotropic ES         -0.005868495179 Eh    ::
         :: -> anisotropic XC          0.025603646853 Eh    ::
         :: -> dispersion             -0.027928429483 Eh    ::
         :: repulsion energy           0.611767713097 Eh    ::
         :: add. restraining           0.000000000000 Eh    ::
         :: total charge               1.000000000000 e     ::
         :::::::::::::::::::::::::::::::::::::::::::::::::::::

      ----------------------------------------------------------- 
     |                   =====================                   |
     |                        A N C O P T                        |
     |                   =====================                   |
     |               Approximate Normal Coordinate               |
     |                Rational Function Optimizer                |
      ----------------------------------------------------------- 

Optimization log is written to '/dev/null'

          ...................................................
          :                      SETUP                      :
          :.................................................:
          :   optimization level             crude          :
          :   max. optcycles                   200          :
          :   ANC micro-cycles                  20          :
          :   degrees of freedom                96          :
          :.................................................:
          :   RF solver                   davidson          :
          :   write xtbopt.log                true          :
          :   linear?                        false          :
          :   energy convergence         0.5000000E-03 Eh   :
          :   grad. convergence          0.1000000E-01 Eh/α :
          :   maxmium RF displ.          1.0000000          :
          :   Hlow (freq-cutoff)         0.5000000E-02      :
          :   Hmax (freq-cutoff)         5.0000000          :
          :   S6 in model hess.         20.0000000          :
          ...................................................

generating ANC from model Hessian ...
Using Lindh-Hessian (1995)
 Shifting diagonal of input Hessian by    4.2877774088825394E-003
 Lowest  eigenvalues of input Hessian
    0.000000    0.000000    0.000000    0.000000    0.000000    0.000000
    0.005000    0.005241    0.006700    0.008783    0.009195    0.009972
    0.010990    0.013985    0.014188    0.014243    0.014320    0.014470
 Highest eigenvalues
    1.328913    1.698940    1.982548    2.031305    2.155938    2.221328


........................................................................
.............................. CYCLE    1 ..............................
........................................................................

 iter      E             dE          RMSdq      gap      omega  full diag
   1    -40.3557409 -0.403557E+02  0.205E-05    4.69       0.0  T
   2    -40.3557409 -0.381561E-11  0.819E-06    4.69    2095.2  T
   3    -40.3557409 -0.277112E-12  0.475E-06    4.69    3613.3  T
     SCC iter.                  ...        0 min,  0.006 sec
     gradient                   ...        0 min,  0.017 sec
 * total energy  :   -39.7436844 Eh     change       -0.1512035E-10 Eh
   gradient norm :     0.0785951 Eh/α   predicted     0.0000000E+00 (-100.00%)
   displ. norm   :     0.4839787 α      lambda       -0.2665951E-01
   maximum displ.:     0.1492759 α      in ANC's #33, #6, #20, ...

........................................................................
.............................. CYCLE    2 ..............................
........................................................................

 iter      E             dE          RMSdq      gap      omega  full diag
   1    -40.3643243 -0.403643E+02  0.408E-01    4.79       0.0  T
   2    -40.3643835 -0.592741E-04  0.238E-01    4.81       1.0  T
   3    -40.3643854 -0.183958E-05  0.193E-02    4.81       1.0  T
   4    -40.3643910 -0.563837E-05  0.620E-03    4.81       2.8  T
   5    -40.3643914 -0.356792E-06  0.358E-03    4.81       4.8  T
   6    -40.3643914 -0.411383E-07  0.116E-03    4.81      14.8  T
   7    -40.3643914 -0.237720E-07  0.268E-04    4.81      64.0  T
   8    -40.3643914 -0.585530E-09  0.125E-04    4.81     136.7  T
     SCC iter.                  ...        0 min,  0.013 sec
     gradient                   ...        0 min,  0.017 sec
 * total energy  :   -39.7618488 Eh     change       -0.1816439E-01 Eh
   gradient norm :     0.0329221 Eh/α   predicted    -0.1645271E-01 (  -9.42%)
   displ. norm   :     0.4986663 α      lambda       -0.9180443E-02
   maximum displ.:     0.2299922 α      in ANC's #6, #5, #13, ...

........................................................................
.............................. CYCLE    3 ..............................
........................................................................

 iter      E             dE          RMSdq      gap      omega  full diag
   1    -40.3693303 -0.403693E+02  0.245E-01    4.84       0.0  T
   2    -40.3693434 -0.130684E-04  0.142E-01    4.84       1.0  T
   3    -40.3693321  0.112494E-04  0.238E-02    4.84       1.0  T
   4    -40.3693474 -0.152827E-04  0.477E-03    4.84       3.6  T
   5    -40.3693477 -0.301688E-06  0.219E-03    4.84       7.8  T
   6    -40.3693477 -0.875266E-08  0.698E-04    4.84      24.6  T
   7    -40.3693477 -0.582428E-08  0.217E-04    4.84      79.2  T
     SCC iter.                  ...        0 min,  0.011 sec
     gradient                   ...        0 min,  0.016 sec
 * total energy  :   -39.7682435 Eh     change       -0.6394669E-02 Eh
   gradient norm :     0.0194553 Eh/α   predicted    -0.5731667E-02 ( -10.37%)
   displ. norm   :     0.4716994 α      lambda       -0.3828098E-02
   maximum displ.:     0.2112704 α      in ANC's #5, #6, #13, ...

........................................................................
.............................. CYCLE    4 ..............................
........................................................................

 iter      E             dE          RMSdq      gap      omega  full diag
   1    -40.3737271 -0.403737E+02  0.160E-01    4.85       0.0  T
   2    -40.3737331 -0.593297E-05  0.924E-02    4.85       1.0  T
   3    -40.3737226  0.104558E-04  0.215E-02    4.85       1.0  T
   4    -40.3737356 -0.129937E-04  0.314E-03    4.85       5.5  T
   5    -40.3737357 -0.689146E-07  0.148E-03    4.85      11.6  T
   6    -40.3737357 -0.414828E-08  0.393E-04    4.85      43.7  T
   7    -40.3737357 -0.180997E-08  0.110E-04    4.85     155.3  T
     SCC iter.                  ...        0 min,  0.011 sec
     gradient                   ...        0 min,  0.017 sec
 * total energy  :   -39.7710105 Eh     change       -0.2767058E-02 Eh
   gradient norm :     0.0144388 Eh/α   predicted    -0.2339969E-02 ( -15.43%)
   displ. norm   :     0.4327534 α      lambda       -0.1960287E-02
   maximum displ.:     0.2094776 α      in ANC's #5, #3, #13, ...

........................................................................
.............................. CYCLE    5 ..............................
........................................................................

 iter      E             dE          RMSdq      gap      omega  full diag
   1    -40.3772958 -0.403773E+02  0.115E-01    4.85       0.0  T
   2    -40.3773001 -0.428897E-05  0.663E-02    4.85       1.0  T
   3    -40.3772951  0.499075E-05  0.152E-02    4.84       1.1  T
   4    -40.3773015 -0.640462E-05  0.299E-03    4.85       5.7  T
   5    -40.3773016 -0.959265E-07  0.140E-03    4.85      12.3  T
   6    -40.3773016 -0.490262E-08  0.407E-04    4.85      42.1  T
   7    -40.3773016 -0.191374E-08  0.896E-05    4.85     191.4  T
     SCC iter.                  ...        0 min,  0.011 sec
     gradient                   ...        0 min,  0.017 sec
 * total energy  :   -39.7724270 Eh     change       -0.1416507E-02 Eh
   gradient norm :     0.0090440 Eh/α   predicted    -0.1163718E-02 ( -17.85%)
   displ. norm   :     0.3921107 α      lambda       -0.1050470E-02
   maximum displ.:     0.1836526 α      in ANC's #5, #3, #10, ...

........................................................................
.............................. CYCLE    6 ..............................
........................................................................

 iter      E             dE          RMSdq      gap      omega  full diag
   1    -40.3794025 -0.403794E+02  0.854E-02    4.84       0.0  T
   2    -40.3794046 -0.213220E-05  0.498E-02    4.84       1.0  T
   3    -40.3794036  0.996786E-06  0.785E-03    4.84       2.2  T
   4    -40.3794052 -0.160410E-05  0.236E-03    4.84       7.3  T
   5    -40.3794053 -0.523952E-07  0.118E-03    4.84      14.5  T
   6    -40.3794053 -0.644284E-08  0.262E-04    4.84      65.5  T
   7    -40.3794053 -0.114273E-08  0.667E-05    4.84     257.2  T
     SCC iter.                  ...        0 min,  0.011 sec
     gradient                   ...        0 min,  0.017 sec
 * total energy  :   -39.7732046 Eh     change       -0.7776063E-03 Eh
   gradient norm :     0.0089463 Eh/α   predicted    -0.6059909E-03 ( -22.07%)
   displ. norm   :     0.3895023 α      lambda       -0.7573279E-03
   maximum displ.:     0.1647961 α      in ANC's #5, #3, #1, ...

........................................................................
.............................. CYCLE    7 ..............................
........................................................................

 iter      E             dE          RMSdq      gap      omega  full diag
   1    -40.3810717 -0.403811E+02  0.778E-02    4.84       0.0  T
   2    -40.3810729 -0.122679E-05  0.457E-02    4.84       1.0  T
   3    -40.3810731 -0.155950E-06  0.368E-03    4.84       4.7  T
   4    -40.3810733 -0.227086E-06  0.170E-03    4.84      10.1  T
   5    -40.3810733 -0.379257E-08  0.555E-04    4.84      30.9  T
   6    -40.3810733 -0.324230E-08  0.144E-04    4.84     119.3  T
     SCC iter.                  ...        0 min,  0.009 sec
     gradient                   ...        0 min,  0.016 sec
 * total energy  :   -39.7737854 Eh     change       -0.5808083E-03 Eh
   gradient norm :     0.0109160 Eh/α   predicted    -0.4361129E-03 ( -24.91%)
   displ. norm   :     0.4118908 α      lambda       -0.7095918E-03
   maximum displ.:     0.1698833 α      in ANC's #1, #3, #5, ...

........................................................................
.............................. CYCLE    8 ..............................
........................................................................

 iter      E             dE          RMSdq      gap      omega  full diag
   1    -40.3828871 -0.403829E+02  0.826E-02    4.85       0.0  T
   2    -40.3828883 -0.116352E-05  0.486E-02    4.85       1.0  T
   3    -40.3828876  0.724468E-06  0.641E-03    4.85       2.7  T
   4    -40.3828887 -0.117461E-05  0.200E-03    4.85       8.6  T
   5    -40.3828888 -0.202643E-07  0.856E-04    4.85      20.0  T
   6    -40.3828888 -0.251251E-08  0.173E-04    4.85      98.9  T
     SCC iter.                  ...        0 min,  0.009 sec
     gradient                   ...        0 min,  0.017 sec
 * total energy  :   -39.7743309 Eh     change       -0.5454747E-03 Eh
   gradient norm :     0.0103226 Eh/α   predicted    -0.4149916E-03 ( -23.92%)
   displ. norm   :     0.4004419 α      lambda       -0.6147093E-03
   maximum displ.:     0.1856482 α      in ANC's #1, #10, #3, ...

........................................................................
.............................. CYCLE    9 ..............................
........................................................................

 iter      E             dE          RMSdq      gap      omega  full diag
   1    -40.3842951 -0.403843E+02  0.836E-02    4.86       0.0  T
   2    -40.3842965 -0.136143E-05  0.491E-02    4.86       1.0  T
   3    -40.3842946  0.186958E-05  0.899E-03    4.87       1.9  T
   4    -40.3842970 -0.244210E-05  0.191E-03    4.86       9.0  T
   5    -40.3842971 -0.208318E-07  0.886E-04    4.86      19.3  T
   6    -40.3842971 -0.104319E-08  0.222E-04    4.86      77.1  T
     SCC iter.                  ...        0 min,  0.009 sec
     gradient                   ...        0 min,  0.017 sec
 * total energy  :   -39.7747902 Eh     change       -0.4592763E-03 Eh
   gradient norm :     0.0071256 Eh/α   predicted    -0.3566446E-03 ( -22.35%)
   displ. norm   :     0.3794221 α      lambda       -0.4521228E-03
   maximum displ.:     0.1830571 α      in ANC's #1, #10, #5, ...

   *** GEOMETRY OPTIMIZATION CONVERGED AFTER 9 ITERATIONS ***

------------------------------------------------------------------------
 total energy gain   :        -0.0311058 Eh      -19.5192 kcal/mol
 total RMSD          :         0.4890988 a0        0.2588 Å
 total power (kW/mol):        -9.0742501 (step) -240.3932 (real)
------------------------------------------------------------------------

 ANCopt (total)                0 d,  0 h,  0 min,  0.340 sec
 optimizer setup                ...        0 min,  0.000 sec (  0.037%)
 model hessian                  ...        0 min,  0.037 sec ( 10.872%)
 ANC generation                 ...        0 min,  0.001 sec (  0.440%)
 coordinate transformation      ...        0 min,  0.000 sec (  0.062%)
 single point calculation       ...        0 min,  0.297 sec ( 87.407%)
 optimization log               ...        0 min,  0.002 sec (  0.480%)
 hessian update                 ...        0 min,  0.000 sec (  0.057%)
 rational function              ...        0 min,  0.001 sec (  0.439%)

================
 final structure:
================
34
 xtb: 6.6.1 (8d0f1dd)
C           -2.20359244011503        0.79848655832301        0.96159850527590
C            2.30972464874951       -0.36174755077432       -0.82892944748976
N           -1.06677504259381        0.06755264565051        0.37271793788902
N            0.88183003280186       -0.42675407503738       -0.47071826449591
C           -1.13698385741585       -1.20907877244750       -0.09562678395712
C            0.08303831241374       -1.52223508935218       -0.60869722483241
C            0.15999299442195        0.51829117803209        0.12781793959169
H           -2.01772602410955       -1.81272370726937       -0.03844453100534
H            0.40411570394005       -2.43692046240211       -1.05679086229850
H            0.51953786840547        1.49397140893229        0.37587397597501
C           -1.73493304857449        2.15299212308567        1.48858171532000
C            3.06914951738269       -1.16839844279827        0.22807038863715
C            2.77730762338459        1.09146689629953       -0.83409248199669
C           -3.22337964705940        1.00663935917552       -0.16145856039709
H           -1.45338791793782        2.82260870682910        0.68145450337904
H            2.80892412070516       -2.22352715984515        0.17041173580062
H            2.79587400675351        1.51335078775871        0.16726351562648
H           -2.77937259359840        1.55079706058369       -0.99128555485304
H           -2.55035437144305        2.61586434369831        2.03194500686321
H            2.84092251979268       -0.80480016735648        1.22824644777601
H            3.78848452377876        1.13066626280243       -1.22612412942162
H           -4.05934368865970        1.58950260516531        0.21327575013925
H           -0.90038202188643        2.04393374363705        2.17657627050758
H            4.14223201219947       -1.07439729181878        0.07458566231729
H            2.14896960966853        1.70410052450085       -1.47705988208671
H           -3.60915576990145        0.06054012579464       -0.53315549677388
C           -2.79545535675358       -0.04013660449099        2.10688352536587
C            2.50292777672568       -0.96872684034013       -2.21706017918549
H           -2.55647961483997        0.40122383995176        3.07046143745976
H            1.99067966806750       -0.38129238808111       -2.97867358156984
H           -3.87669709191773       -0.09264390719017        2.02103404781805
H            2.14839771188038       -1.99548203275481       -2.26437830843711
H            3.56427201356383       -0.97979892994836       -2.45981806290326
H           -2.41128108772899       -1.05792983501302        2.11065149206194

 Bond Distances (Angstroems)
 ---------------------------
C1-N3=1.4742         C1-C11=1.5271        C1-C14=1.5312        C1-C27=1.5379        C2-N4=1.4736         C2-C12=1.5312        
C2-C13=1.5266        C2-C28=1.5273        N3-C1=1.4742         N3-C5=1.3616         N3-C7=1.3297         N4-C2=1.4736         
N4-C6=1.3628         N4-C7=1.3313         C5-N3=1.3616         C5-C6=1.3601         C5-H8=1.0693         C6-N4=1.3628         
C6-C5=1.3601         C6-H9=1.0680         C7-N3=1.3297         C7-N4=1.3313         C7-H10=1.0690        H8-C5=1.0693         
H9-C6=1.0680         H10-C7=1.0690        C11-C1=1.5271        C11-H15=1.0859       C11-H19=1.0837       C11-H23=1.0871       
C12-C2=1.5312        C12-H16=1.0883       C12-H20=1.0884       C12-H24=1.0881       C13-C2=1.5266        C13-H17=1.0868       
C13-H21=1.0852       C13-H25=1.0879       C14-C1=1.5312        C14-H18=1.0871       C14-H22=1.0858       C14-H26=1.0872       
H15-C11=1.0859       H16-C12=1.0883       H17-C13=1.0868       H18-C14=1.0871       H19-C11=1.0837       H20-C12=1.0884       
H21-C13=1.0852       H22-C14=1.0858       H23-C11=1.0871       H24-C12=1.0881       H25-C13=1.0879       H26-C14=1.0872       
C27-C1=1.5379        C27-H29=1.0865       C27-H31=1.0859       C27-H34=1.0879       C28-C2=1.5273        C28-H30=1.0897       
C28-H32=1.0873       C28-H33=1.0888       H29-C27=1.0865       H30-C28=1.0897       H31-C27=1.0859       H32-C28=1.0873       
H33-C28=1.0888       H34-C27=1.0879       
 C  H  Rav=1.0845 sigma=0.0066  Rmin=1.0680  Rmax=1.0897    21
 C  C  Rav=1.5059 sigma=0.0597  Rmin=1.3601  Rmax=1.5379     7
 N  C  Rav=1.3889 sigma=0.0615  Rmin=1.3297  Rmax=1.4742     6

 selected bond angles (degree)
 --------------------
C11-C1-N3=109.94               C14-C1-N3=106.74               C14-C1-C11=109.69              C27-C1-N3=108.90               
C27-C1-C11=110.17              C27-C1-C14=111.35              C12-C2-N4=106.83               C13-C2-N4=109.85               
C13-C2-C12=110.60              C28-C2-N4=109.03               C28-C2-C12=110.81              C28-C2-C13=109.66              
C5-N3-C1=124.23                C7-N3-C1=128.09                C7-N3-C5=107.58                C6-N4-C2=125.37                
C7-N4-C2=127.11                C7-N4-C6=107.36                C6-C5-N3=107.42                H8-C5-N3=123.60                
H8-C5-C6=128.98                C5-C6-N4=107.61                H9-C6-N4=123.69                H9-C6-C5=128.70                
N4-C7-N3=110.02                H10-C7-N3=125.24               H10-C7-N4=124.74               

 selected dihedral angles (degree)
 ---------------------------------
C5-N3-C1-C11=175.03           C5-N3-C1-C14=293.93           C5-N3-C1-C27= 54.24           C7-N3-C1-C11=350.92           
C7-N3-C1-C14=109.83           C7-N3-C1-C27=230.14           C6-N4-C2-C12=287.17           C6-N4-C2-C13=167.17           
C6-N4-C2-C28= 46.97           C7-N4-C2-C12=101.93           C7-N4-C2-C13=341.93           C7-N4-C2-C28=221.73           
C6-C5-N3-C1=177.56            C6-C5-N3-C7=  0.95            H8-C5-N3-C1=357.22            H8-C5-N3-C7=180.61            
C5-C6-N4-C2=176.36            C5-C6-N4-C7=  0.73            H9-C6-N4-C2=355.79            H9-C6-N4-C7=180.17            
N4-C6-C5-N3=358.97            N4-C6-C5-H8=179.33            H9-C6-C5-N3=179.57            H9-C6-C5-H8=359.93            
N4-C7-N3-C1=183.06            N4-C7-N3-C5=359.50            H10-C7-N3-C1=  3.24           H10-C7-N3-C5=179.68           
N3-C7-N4-C2=184.33            N3-C7-N4-C6=359.85            H10-C7-N4-C2=  4.15           H10-C7-N4-C6=179.68           
           -------------------------------------------------
          |                Final Singlepoint                |
           -------------------------------------------------

          ...................................................
          :                      SETUP                      :
          :.................................................:
          :  # basis functions                  73          :
          :  # atomic orbitals                  73          :
          :  # shells                           47          :
          :  # electrons                        74          :
          :  max. iterations                   250          :
          :  Hamiltonian                  GFN2-xTB          :
          :  restarted?                      false          :
          :  GBSA solvation                  false          :
          :  PC potential                    false          :
          :  electronic temp.          300.0000000     K    :
          :  accuracy                    1.0000000          :
          :  -> integral cutoff          0.2500000E+02      :
          :  -> integral neglect         0.1000000E-07      :
          :  -> SCF convergence          0.1000000E-05 Eh   :
          :  -> wf. convergence          0.1000000E-03 e    :
          :  Broyden damping             0.4000000          :
          ...................................................

 iter      E             dE          RMSdq      gap      omega  full diag
   1    -40.3842971 -0.403843E+02  0.562E-05    4.86       0.0  T
   2    -40.3842971 -0.199876E-10  0.323E-05    4.86     530.9  T
   3    -40.3842971 -0.790834E-11  0.182E-05    4.86     943.6  T

   *** convergence criteria satisfied after 3 iterations ***

         #    Occupation            Energy/Eh            Energy/eV
      -------------------------------------------------------------
         1        2.0000           -0.8781740             -23.8963
       ...           ...                  ...                  ...
        31        2.0000           -0.5896032             -16.0439
        32        2.0000           -0.5874717             -15.9859
        33        2.0000           -0.5808641             -15.8061
        34        2.0000           -0.5776944             -15.7199
        35        2.0000           -0.5754704             -15.6593
        36        2.0000           -0.5728309             -15.5875
        37        2.0000           -0.5710599             -15.5393 (HOMO)
        38                         -0.3923358             -10.6760 (LUMO)
        39                         -0.3574136              -9.7257
        40                         -0.1963488              -5.3429
        41                         -0.1463650              -3.9828
        42                         -0.0757732              -2.0619
       ...                                ...                  ...
        73                          0.4733912              12.8816
      -------------------------------------------------------------
                  HL-Gap            0.1787241 Eh            4.8633 eV
             Fermi-level           -0.4816978 Eh          -13.1077 eV

 SCC (total)                   0 d,  0 h,  0 min,  0.029 sec
 SCC setup                      ...        0 min,  0.000 sec (  1.050%)
 Dispersion                     ...        0 min,  0.000 sec (  1.110%)
 classical contributions        ...        0 min,  0.000 sec (  0.466%)
 integral evaluation            ...        0 min,  0.006 sec ( 21.711%)
 iterations                     ...        0 min,  0.005 sec ( 17.607%)
 molecular gradient             ...        0 min,  0.017 sec ( 57.401%)
 printout                       ...        0 min,  0.000 sec (  0.584%)

         :::::::::::::::::::::::::::::::::::::::::::::::::::::
         ::                     SUMMARY                     ::
         :::::::::::::::::::::::::::::::::::::::::::::::::::::
         :: total energy             -39.774790201221 Eh    ::
         :: gradient norm              0.007125702843 Eh/a0 ::
         :: HOMO-LUMO gap              4.863329758474 eV    ::
         ::.................................................::
         :: SCC energy               -40.384297072060 Eh    ::
         :: -> isotropic ES            0.076406820479 Eh    ::
         :: -> anisotropic ES         -0.006187817599 Eh    ::
         :: -> anisotropic XC          0.025723340675 Eh    ::
         :: -> dispersion             -0.027835468800 Eh    ::
         :: repulsion energy           0.609236415332 Eh    ::
         :: add. restraining           0.000000000000 Eh    ::
         :: total charge               1.000000000000 e     ::
         :::::::::::::::::::::::::::::::::::::::::::::::::::::

           -------------------------------------------------
          |                Property Printout                |
           -------------------------------------------------

    * Orbital Energies and Occupations

         #    Occupation            Energy/Eh            Energy/eV
      -------------------------------------------------------------
         1        2.0000           -0.8781740             -23.8963
       ...           ...                  ...                  ...
        25        2.0000           -0.6013182             -16.3627
        26        2.0000           -0.5997295             -16.3195
        27        2.0000           -0.5988226             -16.2948
        28        2.0000           -0.5982858             -16.2802
        29        2.0000           -0.5927073             -16.1284
        30        2.0000           -0.5902303             -16.0610
        31        2.0000           -0.5896032             -16.0439
        32        2.0000           -0.5874717             -15.9859
        33        2.0000           -0.5808641             -15.8061
        34        2.0000           -0.5776944             -15.7199
        35        2.0000           -0.5754704             -15.6593
        36        2.0000           -0.5728309             -15.5875
        37        2.0000           -0.5710599             -15.5393 (HOMO)
        38                         -0.3923358             -10.6760 (LUMO)
        39                         -0.3574136              -9.7257
        40                         -0.1963488              -5.3429
        41                         -0.1463650              -3.9828
        42                         -0.0757732              -2.0619
        43                         -0.0635156              -1.7283
        44                         -0.0578090              -1.5731
        45                         -0.0506666              -1.3787
        46                         -0.0476765              -1.2973
        47                         -0.0381478              -1.0381
        48                         -0.0341020              -0.9280
       ...                                ...                  ...
        73                          0.4733912              12.8816
      -------------------------------------------------------------
                  HL-Gap            0.1787241 Eh            4.8633 eV
             Fermi-level           -0.4816978 Eh          -13.1077 eV

     #   Z          covCN         q      C6AA      α(0)
     1   6 C        3.835     0.075    19.309     6.252
     2   6 C        3.836     0.075    19.299     6.250
     3   7 N        2.870     0.047    20.414     6.711
     4   7 N        2.868     0.046    20.428     6.713
     5   6 C        3.077    -0.006    28.095     8.690
     6   6 C        3.080    -0.005    28.064     8.685
     7   6 C        3.110     0.050    26.732     8.471
     8   1 H        0.927     0.100     1.784     2.089
     9   1 H        0.927     0.099     1.797     2.096
    10   1 H        0.927     0.112     1.677     2.025
    11   6 C        3.760    -0.133    23.101     6.852
    12   6 C        3.760    -0.127    22.982     6.834
    13   6 C        3.760    -0.133    23.102     6.852
    14   6 C        3.761    -0.127    22.987     6.835
    15   1 H        0.925     0.058     2.219     2.329
    16   1 H        0.925     0.061     2.185     2.312
    17   1 H        0.925     0.058     2.227     2.334
    18   1 H        0.925     0.055     2.253     2.347
    19   1 H        0.925     0.083     1.950     2.184
    20   1 H        0.925     0.054     2.269     2.355
    21   1 H        0.925     0.082     1.957     2.187
    22   1 H        0.925     0.080     1.984     2.203
    23   1 H        0.925     0.056     2.252     2.347
    24   1 H        0.925     0.080     1.983     2.202
    25   1 H        0.925     0.057     2.233     2.337
    26   1 H        0.925     0.061     2.187     2.313
    27   6 C        3.757    -0.134    23.124     6.856
    28   6 C        3.759    -0.129    23.029     6.841
    29   1 H        0.925     0.071     2.073     2.252
    30   1 H        0.925     0.061     2.188     2.313
    31   1 H        0.925     0.076     2.016     2.220
    32   1 H        0.925     0.060     2.201     2.320
    33   1 H        0.925     0.079     1.993     2.208
    34   1 H        0.925     0.057     2.234     2.337

 Mol. C6AA /au·bohr⁶  :       8557.751278
 Mol. C8AA /au·bohr⁸  :     188322.621388
 Mol. α(0) /au        :        140.150596


molecular dipole:
                 x           y           z       tot (Debye)
 q only:       -0.065      -0.024       0.014
   full:       -0.058      -0.020       0.011       0.158
molecular quadrupole (traceless):
                xx          xy          yy          xz          yz          zz
 q only:       13.730      -4.270      -5.217      -9.811       4.201      -8.513
  q+dip:       13.333      -3.686      -4.241      -9.500       4.581      -9.092
   full:       12.685      -3.793      -4.508      -8.978       4.020      -8.178

           -------------------------------------------------
          |                Geometry Summary                 |
           -------------------------------------------------

      molecular mass/u    :      181.2982571
   center of mass at/Å    :       -0.0218055       0.0145723       0.0107035
  moments of inertia/u·Å² :        0.3010100E+03   0.1131517E+04   0.1208627E+04
rotational constants/cm⁻¹ :        0.5600356E-01   0.1489825E-01   0.1394775E-01

 * 34 selected distances

     #   Z          #   Z                                           value/Å
     1   6 C        3   7 N                                       1.4742452
     2   6 C        4   7 N                                       1.4735754
     3   7 N        5   6 C                                       1.3616403
     4   7 N        6   6 C                                       1.3627859
     5   6 C        6   6 C                                       1.3600598
     3   7 N        7   6 C                                       1.3296997
     4   7 N        7   6 C                                       1.3313171
     5   6 C        8   1 H                                       1.0692820
     6   6 C        9   1 H                                       1.0679551 (min)
     7   6 C       10   1 H                                       1.0689979
     1   6 C       11   6 C                                       1.5271014
     2   6 C       12   6 C                                       1.5312286
     2   6 C       13   6 C                                       1.5265953
     1   6 C       14   6 C                                       1.5311927
    11   6 C       15   1 H                                       1.0858677
    12   6 C       16   1 H                                       1.0882732
    13   6 C       17   1 H                                       1.0867588
    14   6 C       18   1 H                                       1.0871352
    11   6 C       19   1 H                                       1.0837004
    12   6 C       20   1 H                                       1.0884134
    13   6 C       21   1 H                                       1.0852209
    14   6 C       22   1 H                                       1.0858137
    11   6 C       23   1 H                                       1.0870630
    12   6 C       24   1 H                                       1.0880717
    13   6 C       25   1 H                                       1.0879044
    14   6 C       26   1 H                                       1.0872377
     1   6 C       27   6 C                                       1.5379430 (max)
     2   6 C       28   6 C                                       1.5273044
    27   6 C       29   1 H                                       1.0864580
    28   6 C       30   1 H                                       1.0897397
    27   6 C       31   1 H                                       1.0859148
    28   6 C       32   1 H                                       1.0872704
    28   6 C       33   1 H                                       1.0888093
    27   6 C       34   1 H                                       1.0878912

 * 3 distinct bonds (by element types)

   Z      Z             #   av. dist./Å        max./Å        min./Å
   1 H    6 C          21     1.0844656     1.0897397     1.0679551
   6 C    6 C           7     1.5059179     1.5379430     1.3600598
   6 C    7 N           6     1.3888773     1.4742452     1.3296997


optimized geometry written to: xtbopt.xyz


           -------------------------------------------------
          | TOTAL ENERGY              -39.774790201221 Eh   |
          | GRADIENT NORM               0.007125702843 Eh/α |
          | HOMO-LUMO GAP               4.863329758474 eV   |
           -------------------------------------------------

------------------------------------------------------------------------
 * finished run on 2024/02/12 at 14:13:52.297     
------------------------------------------------------------------------
 total:
 * wall-time:     0 d,  0 h,  0 min,  0.734 sec
 *  cpu-time:     0 d,  0 h,  0 min,  0.439 sec
 * ratio c/w:     0.598 speedup
 SCF:
 * wall-time:     0 d,  0 h,  0 min,  0.337 sec
 *  cpu-time:     0 d,  0 h,  0 min,  0.047 sec
 * ratio c/w:     0.141 speedup
 ANC optimizer:
 * wall-time:     0 d,  0 h,  0 min,  0.371 sec
 *  cpu-time:     0 d,  0 h,  0 min,  0.368 sec
 * ratio c/w:     0.992 speedup

