
                                 *****************
                                 * O   R   C   A *
                                 *****************

                                            #,                                       
                                            ###                                      
                                            ####                                     
                                            #####                                    
                                            ######                                   
                                           ########,                                 
                                     ,,################,,,,,                         
                               ,,#################################,,                 
                          ,,##########################################,,             
                       ,#########################################, ''#####,          
                    ,#############################################,,   '####,        
                  ,##################################################,,,,####,       
                ,###########''''           ''''###############################       
              ,#####''   ,,,,##########,,,,          '''####'''          '####       
            ,##' ,,,,###########################,,,                        '##       
           ' ,,###''''                  '''############,,,                           
         ,,##''                                '''############,,,,        ,,,,,,###''
      ,#''                                            '''#######################'''  
     '                                                          ''''####''''         
             ,#######,   #######,   ,#######,      ##                                
            ,#'     '#,  ##    ##  ,#'     '#,    #''#        ######   ,####,        
            ##       ##  ##   ,#'  ##            #'  '#       #        #'  '#        
            ##       ##  #######   ##           ,######,      #####,   #    #        
            '#,     ,#'  ##    ##  '#,     ,#' ,#      #,         ##   #,  ,#        
             '#######'   ##     ##  '#######'  #'      '#     #####' # '####'        



                  #######################################################
                  #                        -***-                        #
                  #          Department of theory and spectroscopy      #
                  #    Directorship and core code : Frank Neese         #
                  #        Max Planck Institute fuer Kohlenforschung    #
                  #                Kaiser Wilhelm Platz 1               #
                  #                 D-45470 Muelheim/Ruhr               #
                  #                      Germany                        #
                  #                                                     #
                  #                  All rights reserved                #
                  #                        -***-                        #
                  #######################################################


                         Program Version 5.0.4 -  RELEASE  -


 With contributions from (in alphabetic order):
   Daniel Aravena         : Magnetic Suceptibility
   Michael Atanasov       : Ab Initio Ligand Field Theory (pilot matlab implementation)
   Alexander A. Auer      : GIAO ZORA, VPT2 properties, NMR spectrum
   Ute Becker             : Parallelization
   Giovanni Bistoni       : ED, misc. LED, open-shell LED, HFLD
   Martin Brehm           : Molecular dynamics
   Dmytro Bykov           : SCF Hessian
   Vijay G. Chilkuri      : MRCI spin determinant printing, contributions to CSF-ICE
   Dipayan Datta          : RHF DLPNO-CCSD density
   Achintya Kumar Dutta   : EOM-CC, STEOM-CC
   Dmitry Ganyushin       : Spin-Orbit,Spin-Spin,Magnetic field MRCI
   Miquel Garcia          : C-PCM and meta-GGA Hessian, CC/C-PCM, Gaussian charge scheme
   Yang Guo               : DLPNO-NEVPT2, F12-NEVPT2, CIM, IAO-localization
   Andreas Hansen         : Spin unrestricted coupled pair/coupled cluster methods
   Benjamin Helmich-Paris : MC-RPA, TRAH-SCF, COSX integrals
   Lee Huntington         : MR-EOM, pCC
   Robert Izsak           : Overlap fitted RIJCOSX, COSX-SCS-MP3, EOM
   Marcus Kettner         : VPT2
   Christian Kollmar      : KDIIS, OOCD, Brueckner-CCSD(T), CCSD density, CASPT2, CASPT2-K
   Simone Kossmann        : Meta GGA functionals, TD-DFT gradient, OOMP2, MP2 Hessian
   Martin Krupicka        : Initial AUTO-CI
   Lucas Lang             : DCDCAS
   Marvin Lechner         : AUTO-CI (C++ implementation), FIC-MRCC
   Dagmar Lenk            : GEPOL surface, SMD
   Dimitrios Liakos       : Extrapolation schemes; Compound Job, initial MDCI parallelization
   Dimitrios Manganas     : Further ROCIS development; embedding schemes
   Dimitrios Pantazis     : SARC Basis sets
   Anastasios Papadopoulos: AUTO-CI, single reference methods and gradients
   Taras Petrenko         : DFT Hessian,TD-DFT gradient, ASA, ECA, R-Raman, ABS, FL, XAS/XES, NRVS
   Peter Pinski           : DLPNO-MP2, DLPNO-MP2 Gradient
   Christoph Reimann      : Effective Core Potentials
   Marius Retegan         : Local ZFS, SOC
   Christoph Riplinger    : Optimizer, TS searches, QM/MM, DLPNO-CCSD(T), (RO)-DLPNO pert. Triples
   Tobias Risthaus        : Range-separated hybrids, TD-DFT gradient, RPA, STAB
   Michael Roemelt        : Original ROCIS implementation
   Masaaki Saitow         : Open-shell DLPNO-CCSD energy and density
   Barbara Sandhoefer     : DKH picture change effects
   Avijit Sen             : IP-ROCIS
   Kantharuban Sivalingam : CASSCF convergence, NEVPT2, FIC-MRCI
   Bernardo de Souza      : ESD, SOC TD-DFT
   Georgi Stoychev        : AutoAux, RI-MP2 NMR, DLPNO-MP2 response
   Willem Van den Heuvel  : Paramagnetic NMR
   Boris Wezisla          : Elementary symmetry handling
   Frank Wennmohs         : Technical directorship


 We gratefully acknowledge several colleagues who have allowed us to
 interface, adapt or use parts of their codes:
   Stefan Grimme, W. Hujo, H. Kruse, P. Pracht,  : VdW corrections, initial TS optimization,
                  C. Bannwarth, S. Ehlert          DFT functionals, gCP, sTDA/sTD-DF
   Ed Valeev, F. Pavosevic, A. Kumar             : LibInt (2-el integral package), F12 methods
   Garnet Chan, S. Sharma, J. Yang, R. Olivares  : DMRG
   Ulf Ekstrom                                   : XCFun DFT Library
   Mihaly Kallay                                 : mrcc  (arbitrary order and MRCC methods)
   Jiri Pittner, Ondrej Demel                    : Mk-CCSD
   Frank Weinhold                                : gennbo (NPA and NBO analysis)
   Christopher J. Cramer and Donald G. Truhlar   : smd solvation model
   Lars Goerigk                                  : TD-DFT with DH, B97 family of functionals
   V. Asgeirsson, H. Jonsson                     : NEB implementation
   FAccTs GmbH                                   : IRC, NEB, NEB-TS, DLPNO-Multilevel, CI-OPT
                                                   MM, QMMM, 2- and 3-layer-ONIOM, Crystal-QMMM,
                                                   LR-CPCM, SF, NACMEs, symmetry and pop. for TD-DFT,
                                                   nearIR, NL-DFT gradient (VV10), updates on ESD,
                                                   ML-optimized integration grids
   S Lehtola, MJT Oliveira, MAL Marques          : LibXC Library
   Liviu Ungur et al                             : ANISO software


 Your calculation uses the libint2 library for the computation of 2-el integrals
 For citations please refer to: http://libint.valeyev.net

 Your ORCA version has been built with support for libXC version: 5.1.0
 For citations please refer to: https://tddft.org/programs/libxc/

 This ORCA versions uses:
   CBLAS   interface :  Fast vector & matrix operations
   LAPACKE interface :  Fast linear algebra routines
   SCALAPACK package :  Parallel linear algebra routines
   Shared memory     :  Shared parallel matrices
   BLAS/LAPACK       :  OpenBLAS 0.3.15  USE64BITINT DYNAMIC_ARCH NO_AFFINITY SkylakeX SINGLE_THREADED
        Core in use  :  SkylakeX
   Copyright (c) 2011-2014, The OpenBLAS Project




***************************************
The coordinates will be read from file: 10+.xyz
***************************************


Your calculation utilizes the atom-pairwise dispersion correction
based on tight binding partial charges (D4)
Cite in your paper:
E.Caldeweyher, C.Bannwarth, S.Grimme, J.Chem.Phys., (2017), 147, 034112.
E.Caldeweyher, S.Ehlert, A.Hansen, H.Neugebauer, S.Grimme, J.Chem.Phys., (2018), in progress.
   

XCFun DFT library Copyright 2009-2010 Ulf Ekstrom and contributors.
See http://admol.org/xcfun for more information.
This is free software; see the source code for copying conditions.
There is ABSOLUTELY NO WARRANTY; not even for MERCHANTABILITY or FITNESS FOR A PARTICULAR PURPOSE.
For details see the documentation.
Scientific users of this library should cite U. Ekstrom, L. Visscher, R. Bast, A. J. Thorvaldsen and K. Ruud;
J.Chem.Theor.Comp. 2010, DOI: 10.1021/ct100117s
XCFun Version 0.99 

================================================================================

----- Orbital basis set information -----
Your calculation utilizes the basis: def2-SVP
   F. Weigend and R. Ahlrichs, Phys. Chem. Chem. Phys. 7, 3297 (2005).

----- AuxJ basis set information -----
Your calculation utilizes the auxiliary basis: def2/J
   F. Weigend, Phys. Chem. Chem. Phys. 8, 1057 (2006).

================================================================================
                                        WARNINGS
                       Please study these warnings very carefully!
================================================================================


WARNING: Geometry Optimization
  ===> : Switching off AutoStart
         For restart on a previous wavefunction, please use MOREAD

INFO   : the flag for use of the SHARK integral package has been found!

================================================================================
                                       INPUT FILE
================================================================================
NAME = 10+_Water.inp
|  1> # ORCAForces - ../2023_04/pKa_prediction/extra_carbenes/Water/10+_Water.inp
|  2> # Basic Mode
|  3> #
|  4> ! Opt FREQ wB97X D4 Def2-SVP SlowConv TightSCF DEFGRID2 Def2/J RIJCOSX CPCM(Water)
|  5> 
|  6> %maxcore 4500
|  7> 
|  8> %PAL NPROCS 4 END
|  9> 
| 10> %geom 
| 11> Maxiter 150
| 12> END
| 13> 
| 14> * xyzfile 1 1 10+.xyz
| 15> 
| 16>                          ****END OF INPUT****
================================================================================

                       *****************************
                       * Geometry Optimization Run *
                       *****************************

Geometry optimization settings:
Update method            Update   .... BFGS
Choice of coordinates    CoordSys .... Z-matrix Internals
Initial Hessian          InHess   .... Almoef's Model

Convergence Tolerances:
Energy Change            TolE     ....  5.0000e-06 Eh
Max. Gradient            TolMAXG  ....  3.0000e-04 Eh/bohr
RMS Gradient             TolRMSG  ....  1.0000e-04 Eh/bohr
Max. Displacement        TolMAXD  ....  4.0000e-03 bohr
RMS Displacement         TolRMSD  ....  2.0000e-03 bohr
Strict Convergence                ....  False
------------------------------------------------------------------------------
                        ORCA OPTIMIZATION COORDINATE SETUP
------------------------------------------------------------------------------

The optimization will be done in new redundant internal coordinates
Making redundant internal coordinates   ...  (new redundants) done
Evaluating the initial hessian          ...  (Almloef) done
Evaluating the coordinates              ...  done
Calculating the B-matrix                .... done
Calculating the G-matrix                .... done
Diagonalizing the G-matrix              .... done
The first mode is                       ....   53
The number of degrees of freedom        ....   57

    -----------------------------------------------------------------
                    Redundant Internal Coordinates


    -----------------------------------------------------------------
         Definition                    Initial Value    Approx d2E/dq
    -----------------------------------------------------------------
      1. B(C   3,C   0)                  1.5265         0.378340   
      2. B(C   3,C   2)                  1.5265         0.378340   
      3. B(H   4,C   0)                  1.1000         0.347151   
      4. B(H   5,C   1)                  1.0895         0.360722   
      5. B(H   6,C   2)                  1.0963         0.351909   
      6. B(H   7,C   3)                  1.1009         0.345923   
      7. B(N   8,C   0)                  1.4757         0.408444   
      8. B(N   8,C   1)                  1.3211         0.720663   
      9. B(N   9,C   2)                  1.4757         0.408444   
     10. B(N   9,C   1)                  1.3211         0.720663   
     11. B(H  10,C   2)                  1.1000         0.347151   
     12. B(H  11,C   3)                  1.0987         0.348742   
     13. B(H  12,C   0)                  1.0963         0.351909   
     14. B(C  13,N   8)                  1.4649         0.425043   
     15. B(H  14,C  13)                  1.0930         0.356124   
     16. B(H  15,C  13)                  1.0956         0.352736   
     17. B(H  16,C  13)                  1.0961         0.352110   
     18. B(C  17,N   9)                  1.4649         0.425043   
     19. B(H  18,C  17)                  1.0956         0.352736   
     20. B(H  19,C  17)                  1.0930         0.356124   
     21. B(H  20,C  17)                  1.0961         0.352110   
     22. A(C   3,C   0,H  12)          110.9309         0.323769   
     23. A(C   3,C   0,N   8)          109.9823         0.367443   
     24. A(H   4,C   0,N   8)          108.3759         0.325178   
     25. A(H   4,C   0,H  12)          108.1961         0.288134   
     26. A(C   3,C   0,H   4)          111.7588         0.323047   
     27. A(N   8,C   0,H  12)          107.4583         0.325907   
     28. A(H   5,C   1,N   8)          117.6014         0.359910   
     29. A(N   8,C   1,N   9)          124.7970         0.452332   
     30. A(H   5,C   1,N   9)          117.6014         0.359910   
     31. A(C   3,C   2,H  10)          111.7588         0.323047   
     32. A(C   3,C   2,H   6)          110.9309         0.323769   
     33. A(H   6,C   2,N   9)          107.4583         0.325907   
     34. A(C   3,C   2,N   9)          109.9823         0.367443   
     35. A(H   6,C   2,H  10)          108.1961         0.288134   
     36. A(N   9,C   2,H  10)          108.3759         0.325178   
     37. A(H   7,C   3,H  11)          107.9609         0.287567   
     38. A(C   2,C   3,H   7)          109.5937         0.322859   
     39. A(C   2,C   3,H  11)          109.4478         0.323289   
     40. A(C   0,C   3,C   2)          110.7473         0.364930   
     41. A(C   0,C   3,H   7)          109.5937         0.322859   
     42. A(C   0,C   3,H  11)          109.4478         0.323289   
     43. A(C   1,N   8,C  13)          121.1029         0.411407   
     44. A(C   0,N   8,C  13)          117.9486         0.372524   
     45. A(C   0,N   8,C   1)          120.9180         0.408513   
     46. A(C   1,N   9,C   2)          120.9180         0.408513   
     47. A(C   2,N   9,C  17)          117.9486         0.372524   
     48. A(C   1,N   9,C  17)          121.1029         0.411407   
     49. A(H  15,C  13,H  16)          109.1754         0.288880   
     50. A(H  14,C  13,H  16)          109.2363         0.289313   
     51. A(N   8,C  13,H  16)          109.4664         0.328084   
     52. A(H  14,C  13,H  15)          109.5041         0.289393   
     53. A(N   8,C  13,H  15)          109.6406         0.328180   
     54. A(N   8,C  13,H  14)          109.8019         0.328698   
     55. A(H  18,C  17,H  20)          109.1754         0.288880   
     56. A(N   9,C  17,H  20)          109.4664         0.328084   
     57. A(H  18,C  17,H  19)          109.5041         0.289393   
     58. A(N   9,C  17,H  19)          109.8019         0.328698   
     59. A(H  19,C  17,H  20)          109.2363         0.289313   
     60. A(N   9,C  17,H  18)          109.6406         0.328180   
     61. D(H   7,C   3,C   0,H  12)     48.2979         0.011414   
     62. D(C   2,C   3,C   0,H   4)    -69.8321         0.011414   
     63. D(H  11,C   3,C   0,N   8)    171.3391         0.011414   
     64. D(H   7,C   3,C   0,N   8)    -70.4438         0.011414   
     65. D(C   0,C   3,C   2,N   9)    -50.5863         0.011414   
     66. D(C   0,C   3,C   2,H   6)   -169.3279         0.011414   
     67. D(H  11,C   3,C   2,N   9)   -171.3391         0.011414   
     68. D(C   2,C   3,C   0,H  12)    169.3279         0.011414   
     69. D(H   7,C   3,C   2,N   9)     70.4438         0.011414   
     70. D(H   7,C   3,C   2,H   6)    -48.2979         0.011414   
     71. D(H   7,C   3,C   2,H  10)   -169.1378         0.011414   
     72. D(H  11,C   3,C   0,H   4)     50.9207         0.011414   
     73. D(C   2,C   3,C   0,N   8)     50.5863         0.011414   
     74. D(H  11,C   3,C   2,H   6)     69.9193         0.011414   
     75. D(C   0,C   3,C   2,H  10)     69.8321         0.011414   
     76. D(H  11,C   3,C   0,H  12)    -69.9193         0.011414   
     77. D(H   7,C   3,C   0,H   4)    169.1378         0.011414   
     78. D(H  11,C   3,C   2,H  10)    -50.9207         0.011414   
     79. D(C  13,N   8,C   1,N   9)    177.8568         0.043236   
     80. D(C   0,N   8,C   1,N   9)     -0.0957         0.043236   
     81. D(C   0,N   8,C   1,H   5)   -179.9559         0.043236   
     82. D(C  13,N   8,C   0,H  12)     35.0889         0.014233   
     83. D(C  13,N   8,C   0,H   4)    -81.6170         0.014233   
     84. D(C  13,N   8,C   0,C   3)    155.9420         0.014233   
     85. D(C   1,N   8,C   0,H  12)   -146.8956         0.014233   
     86. D(C  13,N   8,C   1,H   5)     -2.0033         0.043236   
     87. D(C   1,N   8,C   0,H   4)     96.3985         0.014233   
     88. D(C   1,N   8,C   0,C   3)    -26.0425         0.014233   
     89. D(C  17,N   9,C   1,H   5)      2.0033         0.043236   
     90. D(C   2,N   9,C   1,N   8)      0.0957         0.043236   
     91. D(C   2,N   9,C   1,H   5)    179.9559         0.043236   
     92. D(C  17,N   9,C   2,H  10)     81.6170         0.014233   
     93. D(C  17,N   9,C   2,H   6)    -35.0889         0.014233   
     94. D(C  17,N   9,C   2,C   3)   -155.9420         0.014233   
     95. D(C   1,N   9,C   2,H  10)    -96.3985         0.014233   
     96. D(C   1,N   9,C   2,H   6)    146.8956         0.014233   
     97. D(C   1,N   9,C   2,C   3)     26.0425         0.014233   
     98. D(C  17,N   9,C   1,N   8)   -177.8568         0.043236   
     99. D(H  16,C  13,N   8,C   1)   -120.4093         0.015403   
    100. D(H  16,C  13,N   8,C   0)     57.6023         0.015403   
    101. D(H  15,C  13,N   8,C   1)    119.8524         0.015403   
    102. D(H  15,C  13,N   8,C   0)    -62.1360         0.015403   
    103. D(H  14,C  13,N   8,C   1)     -0.4975         0.015403   
    104. D(H  14,C  13,N   8,C   0)    177.5142         0.015403   
    105. D(H  20,C  17,N   9,C   2)    -57.6023         0.015403   
    106. D(H  20,C  17,N   9,C   1)    120.4093         0.015403   
    107. D(H  19,C  17,N   9,C   2)   -177.5142         0.015403   
    108. D(H  19,C  17,N   9,C   1)      0.4975         0.015403   
    109. D(H  18,C  17,N   9,C   2)     62.1360         0.015403   
    110. D(H  18,C  17,N   9,C   1)   -119.8524         0.015403   
    -----------------------------------------------------------------

Number of atoms                         .... 21
Number of degrees of freedom            .... 110

         *************************************************************
         *                GEOMETRY OPTIMIZATION CYCLE   1            *
         *************************************************************
---------------------------------
CARTESIAN COORDINATES (ANGSTROEM)
---------------------------------
  C     -0.065938    1.123168    1.256160
  C     -0.065059   -0.962179    0.000000
  C     -0.065938    1.123168   -1.256160
  C      0.564926    1.718505    0.000000
  H     -1.103406    1.462668    1.391556
  H     -0.065851   -2.051709    0.000000
  H      0.504543    1.400804   -2.150175
  H      1.647458    1.518058    0.000000
  N     -0.065938   -0.350069    1.170786
  N     -0.065938   -0.350069   -1.170786
  H     -1.103406    1.462668   -1.391556
  H      0.422074    2.807903    0.000000
  H      0.504543    1.400804    2.150175
  C     -0.111752   -1.110287    2.422105
  H     -0.150860   -2.180593    2.203900
  H      0.780400   -0.891027    3.019083
  H     -1.004411   -0.824758    2.990511
  C     -0.111752   -1.110287   -2.422105
  H      0.780400   -0.891027   -3.019083
  H     -0.150860   -2.180593   -2.203900
  H     -1.004411   -0.824758   -2.990511

----------------------------
CARTESIAN COORDINATES (A.U.)
----------------------------
  NO LB      ZA    FRAG     MASS         X           Y           Z
   0 C     6.0000    0    12.011   -0.124605    2.122480    2.373798
   1 C     6.0000    0    12.011   -0.122944   -1.818255    0.000000
   2 C     6.0000    0    12.011   -0.124605    2.122480   -2.373798
   3 C     6.0000    0    12.011    1.067555    3.247504    0.000000
   4 H     1.0000    0     1.008   -2.085135    2.764042    2.629660
   5 H     1.0000    0     1.008   -0.124440   -3.877168    0.000000
   6 H     1.0000    0     1.008    0.953448    2.647136   -4.063242
   7 H     1.0000    0     1.008    3.113244    2.868714    0.000000
   8 N     7.0000    0    14.007   -0.124605   -0.661535    2.212465
   9 N     7.0000    0    14.007   -0.124605   -0.661535   -2.212465
  10 H     1.0000    0     1.008   -2.085135    2.764042   -2.629660
  11 H     1.0000    0     1.008    0.797604    5.306168    0.000000
  12 H     1.0000    0     1.008    0.953448    2.647136    4.063242
  13 C     6.0000    0    12.011   -0.211181   -2.098138    4.577115
  14 H     1.0000    0     1.008   -0.285084   -4.120724    4.164767
  15 H     1.0000    0     1.008    1.474742   -1.683797    5.705240
  16 H     1.0000    0     1.008   -1.898062   -1.558567    5.651247
  17 C     6.0000    0    12.011   -0.211181   -2.098138   -4.577115
  18 H     1.0000    0     1.008    1.474742   -1.683797   -5.705240
  19 H     1.0000    0     1.008   -0.285084   -4.120724   -4.164767
  20 H     1.0000    0     1.008   -1.898062   -1.558567   -5.651247

--------------------------------
INTERNAL COORDINATES (ANGSTROEM)
--------------------------------
 C      0   0   0     0.000000000000     0.00000000     0.00000000
 C      1   0   0     2.434463149988     0.00000000     0.00000000
 C      2   1   0     2.434463149988    62.12737659     0.00000000
 C      1   2   3     1.526549532660    84.79709266   335.47210637
 H      1   2   3     1.099969171313   109.16184753    86.72129342
 H      2   1   3     1.089530287860   148.93624898   180.12752208
 H      3   2   1     1.096263262215   129.60910360   137.49891103
 H      4   1   2     1.100933481566   109.59374493   277.71215216
 N      2   1   3     1.321143172611    31.33485446   180.05178693
 N      2   1   3     1.321143172611    93.46222027   359.97301954
 H      3   2   1     1.099969171313   109.16184753   273.27870658
 H      4   1   2     1.098724122020   109.44778545   159.49502264
 H      1   2   3     1.096263262215   129.60910360   222.50108897
 C      9   2   1     1.464865034698   121.10293497   177.95258034
 H     14   9   2     1.093022319683   109.80190211   359.50254326
 H     14   9   2     1.095624420679   109.64059795   119.85235025
 H     14   9   2     1.096107787108   109.46639747   239.59066562
 C     10   2   1     1.464865034698   121.10293497   182.09328245
 H     18  10   2     1.095624420679   109.64059795   240.14764975
 H     18  10   2     1.093022319683   109.80190211     0.49745674
 H     18  10   2     1.096107787108   109.46639747   120.40933438

---------------------------
INTERNAL COORDINATES (A.U.)
---------------------------
 C      0   0   0     0.000000000000     0.00000000     0.00000000
 C      1   0   0     4.600468636601     0.00000000     0.00000000
 C      2   1   0     4.600468636601    62.12737659     0.00000000
 C      1   2   3     2.884760546593    84.79709266   335.47210637
 H      1   2   3     2.078640489539   109.16184753    86.72129342
 H      2   1   3     2.058913858668   148.93624898   180.12752208
 H      3   2   1     2.071637336265   129.60910360   137.49891103
 H      4   1   2     2.080462771824   109.59374493   277.71215216
 N      2   1   3     2.496598779935    31.33485446   180.05178693
 N      2   1   3     2.496598779935    93.46222027   359.97301954
 H      3   2   1     2.078640489539   109.16184753   273.27870658
 H      4   1   2     2.076287687350   109.44778545   159.49502264
 H      1   2   3     2.071637336265   129.60910360   222.50108897
 C      9   2   1     2.768193738736   121.10293497   177.95258034
 H     14   9   2     2.065512842464   109.80190211   359.50254326
 H     14   9   2     2.070430100719   109.64059795   119.85235025
 H     14   9   2     2.071343530892   109.46639747   239.59066562
 C     10   2   1     2.768193738736   121.10293497   182.09328245
 H     18  10   2     2.070430100719   109.64059795   240.14764975
 H     18  10   2     2.065512842464   109.80190211     0.49745674
 H     18  10   2     2.071343530892   109.46639747   120.40933438

---------------------
BASIS SET INFORMATION
---------------------
There are 3 groups of distinct atoms

 Group   1 Type C   : 7s4p1d contracted to 3s2p1d pattern {511/31/1}
 Group   2 Type H   : 4s1p contracted to 2s1p pattern {31/1}
 Group   3 Type N   : 7s4p1d contracted to 3s2p1d pattern {511/31/1}

Atom   0C    basis set group =>   1
Atom   1C    basis set group =>   1
Atom   2C    basis set group =>   1
Atom   3C    basis set group =>   1
Atom   4H    basis set group =>   2
Atom   5H    basis set group =>   2
Atom   6H    basis set group =>   2
Atom   7H    basis set group =>   2
Atom   8N    basis set group =>   3
Atom   9N    basis set group =>   3
Atom  10H    basis set group =>   2
Atom  11H    basis set group =>   2
Atom  12H    basis set group =>   2
Atom  13C    basis set group =>   1
Atom  14H    basis set group =>   2
Atom  15H    basis set group =>   2
Atom  16H    basis set group =>   2
Atom  17C    basis set group =>   1
Atom  18H    basis set group =>   2
Atom  19H    basis set group =>   2
Atom  20H    basis set group =>   2
---------------------------------
AUXILIARY/J BASIS SET INFORMATION
---------------------------------
There are 3 groups of distinct atoms

 Group   1 Type C   : 12s5p4d2f1g contracted to 6s4p3d1f1g pattern {711111/2111/211/2/1}
 Group   2 Type H   : 5s2p1d contracted to 3s1p1d pattern {311/2/1}
 Group   3 Type N   : 12s5p4d2f1g contracted to 6s4p3d1f1g pattern {711111/2111/211/2/1}

Atom   0C    basis set group =>   1
Atom   1C    basis set group =>   1
Atom   2C    basis set group =>   1
Atom   3C    basis set group =>   1
Atom   4H    basis set group =>   2
Atom   5H    basis set group =>   2
Atom   6H    basis set group =>   2
Atom   7H    basis set group =>   2
Atom   8N    basis set group =>   3
Atom   9N    basis set group =>   3
Atom  10H    basis set group =>   2
Atom  11H    basis set group =>   2
Atom  12H    basis set group =>   2
Atom  13C    basis set group =>   1
Atom  14H    basis set group =>   2
Atom  15H    basis set group =>   2
Atom  16H    basis set group =>   2
Atom  17C    basis set group =>   1
Atom  18H    basis set group =>   2
Atom  19H    basis set group =>   2
Atom  20H    basis set group =>   2


           ************************************************************
           *        Program running with 4 parallel MPI-processes     *
           *              working on a common directory               *
           ************************************************************
------------------------------------------------------------------------------
                           ORCA GTO INTEGRAL CALCULATION
                           -- RI-GTO INTEGRALS CHOSEN --
------------------------------------------------------------------------------
------------------------------------------------------------------------------
                   ___                                                        
                  /   \      - P O W E R E D   B Y -                         
                 /     \                                                     
                 |  |  |   _    _      __       _____    __    __             
                 |  |  |  | |  | |    /  \     |  _  \  |  |  /  |          
                  \  \/   | |  | |   /    \    | | | |  |  | /  /          
                 / \  \   | |__| |  /  /\  \   | |_| |  |  |/  /          
                |  |  |   |  __  | /  /__\  \  |    /   |      \           
                |  |  |   | |  | | |   __   |  |    \   |  |\   \          
                \     /   | |  | | |  |  |  |  | |\  \  |  | \   \       
                 \___/    |_|  |_| |__|  |__|  |_| \__\ |__|  \__/        
                                                                              
                      - O R C A' S   B I G   F R I E N D -                    
                                      &                                       
                       - I N T E G R A L  F E E D E R -                       
                                                                              
 v1 FN, 2020, v2 2021                                                         
------------------------------------------------------------------------------


Reading SHARK input file 10+_Water.SHARKINP.tmp ... ok
----------------------
SHARK INTEGRAL PACKAGE
----------------------

Number of atoms                             ...     21
Number of basis functions                   ...    177
Number of shells                            ...     87
Maximum angular momentum                    ...      2
Integral batch strategy                     ... SHARK/LIBINT Hybrid
RI-J (if used) integral strategy            ... SPLIT-RIJ (Revised 2003 algorithm where possible)
Printlevel                                  ...      1
Contraction scheme used                     ... SEGMENTED contraction
Coulomb Range Separation                    ... NOT USED
Exchange Range Separation                   ... Long Range
   Mu parameter                             ...  0.300000
   Scaling (regular/separated)              ...  0.157706  0.842294
Finite Nucleus Model                        ... NOT USED
Auxiliary Coulomb fitting basis             ... AVAILABLE
   # of basis functions in Aux-J            ...    535
   # of shells in Aux-J                     ...    185
   Maximum angular momentum in Aux-J        ...      4
Auxiliary J/K fitting basis                 ... NOT available
Auxiliary Correlation fitting basis         ... NOT available
Auxiliary 'external' fitting basis          ... NOT available
Integral threshold                          ...     2.500000e-11
Primitive cut-off                           ...     2.500000e-12
Primitive pair pre-selection threshold      ...     2.500000e-12

Calculating pre-screening integrals         ... done (  0.0 sec) Dimension = 87
Organizing shell pair data                  ... done (  0.0 sec)
Shell pair information
Total number of shell pairs                 ...      3828
Shell pairs after pre-screening             ...      3621
Total number of primitive shell pairs       ...     13184
Primitive shell pairs kept                  ...      9259
          la=0 lb=0:   1223 shell pairs
          la=1 lb=0:   1362 shell pairs
          la=1 lb=1:    398 shell pairs
          la=2 lb=0:    382 shell pairs
          la=2 lb=1:    220 shell pairs
          la=2 lb=2:     36 shell pairs

Calculating one electron integrals          ... done (  0.0 sec)
Calculating RI/J V-Matrix + Cholesky decomp.... done (  0.0 sec)
Calculating Nuclear repulsion               ... done (  0.0 sec) ENN=    407.344788901654 Eh

SHARK setup successfully completed in   0.5 seconds

Maximum memory used throughout the entire GTOINT-calculation: 12.2 MB


           ************************************************************
           *        Program running with 4 parallel MPI-processes     *
           *              working on a common directory               *
           ************************************************************
-------------------------------------------------------------------------------
                                 ORCA SCF
-------------------------------------------------------------------------------

------------
SCF SETTINGS
------------
Hamiltonian:
 Density Functional     Method          .... DFT(GTOs)
 Exchange Functional    Exchange        .... WB97X
 Correlation Functional Correlation     .... WB97X
 Gradients option       PostSCFGGA      .... off
 Hybrid DFT is turned on
   Fraction HF Exchange ScalHFX         ....  0.157706
   Scaling of DF-GGA-X  ScalDFX         ....  0.000000
   Scaling of DF-GGA-C  ScalDFC         ....  1.000000
   Scaling of DF-LDA-C  ScalLDAC        ....  1.000000
   Perturbative correction              ....  0.000000
   Density functional embedding theory  .... OFF
 Long-range corrected/Screened/Range-Separated Hybrid DFT is turned on
   Amount of maximum screened exact exchange              ....  0.842294
   Range separation parameter mu (erf(mu*r12)/r12)        ....  0.300000
 RI-approximation to the Coulomb term is turned on
   Number of AuxJ basis functions       .... 535
   RIJ-COSX (HFX calculated with COS-X)).... on


General Settings:
 Integral files         IntName         .... 10+_Water
 Hartree-Fock type      HFTyp           .... RHF
 Total Charge           Charge          ....    1
 Multiplicity           Mult            ....    1
 Number of Electrons    NEL             ....   62
 Basis Dimension        Dim             ....  177
 Nuclear Repulsion      ENuc            ....    407.3447889017 Eh

Convergence Acceleration:
 DIIS                   CNVDIIS         .... on
   Start iteration      DIISMaxIt       ....     0
   Startup error        DIISStart       ....  0.200000
   # of expansion vecs  DIISMaxEq       ....     5
   Bias factor          DIISBfac        ....   1.050
   Max. coefficient     DIISMaxC        ....  10.000
 Trust-Rad. Augm. Hess. CNVTRAH         .... auto
   Auto Start mean grad. ratio tolernc. ....  1.125000
   Auto Start start iteration           ....    20
   Auto Start num. interpolation iter.  ....    10
   Max. Number of Micro iterations      ....    16
   Max. Number of Macro iterations      .... Maxiter - #DIIS iter
   Number of Davidson start vectors     ....     2
   Converg. threshold I  (grad. norm)   ....   1.000e-05
   Converg. threshold II (energy diff.) ....   1.000e-08
   Grad. Scal. Fac. for Micro threshold ....   0.100
   Minimum threshold for Micro iter.    ....   0.010
   NR start threshold (gradient norm)   ....   0.001
   Initial trust radius                 ....   0.400
   Minimum AH scaling param. (alpha)    ....   1.000
   Maximum AH scaling param. (alpha)    .... 1000.000
   Orbital update algorithm             .... Taylor
   White noise on init. David. guess    .... on
   Maximum white noise                  ....   0.010
   Quad. conv. algorithm                .... NR
 SOSCF                  CNVSOSCF        .... on
   Start iteration      SOSCFMaxIt      ....   150
   Startup grad/error   SOSCFStart      ....  0.001000
 Level Shifting         CNVShift        .... on
   Level shift para.    LevelShift      ....    0.2500
   Turn off err/grad.   ShiftErr        ....    0.0000
 Zerner damping         CNVZerner       .... off
 Static damping         CNVDamp         .... on
   Fraction old density DampFac         ....    0.8500
   Max. Damping (<1)    DampMax         ....    0.9800
   Min. Damping (>=0)   DampMin         ....    0.0000
   Turn off err/grad.   DampErr         ....    0.0300
 Fernandez-Rico         CNVRico         .... off

SCF Procedure:
 Maximum # iterations   MaxIter         ....   125
 SCF integral mode      SCFMode         .... Direct
   Integral package                     .... SHARK and LIBINT hybrid scheme
 Reset frequency        DirectResetFreq ....    20
 Integral Threshold     Thresh          ....  2.500e-11 Eh
 Primitive CutOff       TCut            ....  2.500e-12 Eh

Convergence Tolerance:
 Convergence Check Mode ConvCheckMode   .... Total+1el-Energy
 Convergence forced     ConvForced      .... 0
 Energy Change          TolE            ....  1.000e-08 Eh
 1-El. energy change                    ....  1.000e-05 Eh
 Orbital Gradient       TolG            ....  1.000e-05
 Orbital Rotation angle TolX            ....  1.000e-05
 DIIS Error             TolErr          ....  5.000e-07


Diagonalization of the overlap matrix:
Smallest eigenvalue                        ... 2.124e-03
Time for diagonalization                   ...    0.006 sec
Threshold for overlap eigenvalues          ... 1.000e-08
Number of eigenvalues below threshold      ... 0
Time for construction of square roots      ...    0.003 sec
Total time needed                          ...    0.010 sec

Time for model grid setup =    0.311 sec

------------------------------
INITIAL GUESS: MODEL POTENTIAL
------------------------------
Loading Hartree-Fock densities                     ... done
Calculating cut-offs                               ... done
Initializing the effective Hamiltonian             ... done
Setting up the integral package (SHARK)            ... done
Starting the Coulomb interaction                   ... done (   0.1 sec)
Reading the grid                                   ... done
Mapping shells                                     ... done
Starting the XC term evaluation                    ... done (   0.1 sec)
  promolecular density results
     # of electrons  =     62.996971428
     EX              =    -47.661745296
     EC              =     -2.087330005
     EX+EC           =    -49.749075301
Transforming the Hamiltonian                       ... done (   0.0 sec)
Diagonalizing the Hamiltonian                      ... done (   0.0 sec)
Back transforming the eigenvectors                 ... done (   0.0 sec)
Now organizing SCF variables                       ... done
                      ------------------
                      INITIAL GUESS DONE (   0.5 sec)
                      ------------------
-------------------
DFT GRID GENERATION
-------------------

General Integration Accuracy     IntAcc      ... 4.388
Radial Grid Type                 RadialGrid  ... OptM3 with GC (2021)
Angular Grid (max. ang.)         AngularGrid ... 4 (Lebedev-302)
Angular grid pruning method      GridPruning ... 4 (adaptive)
Weight generation scheme         WeightScheme... Becke
Basis function cutoff            BFCut       ... 1.0000e-11
Integration weight cutoff        WCut        ... 1.0000e-14
Angular grids for H and He will be reduced by one unit
Partially contracted basis set               ... off
Rotationally invariant grid construction     ... off

Total number of grid points                  ...    89527
Total number of batches                      ...     1410
Average number of points per batch           ...       63
Average number of grid points per atom       ...     4263
Time for grid setup =    0.553 sec

--------------------
COSX GRID GENERATION
--------------------

GRIDX 1
-------
General Integration Accuracy     IntAcc      ... 3.816
Radial Grid Type                 RadialGrid  ... OptM3 with GC (2021)
Angular Grid (max. ang.)         AngularGrid ... 1 (Lebedev-50)
Angular grid pruning method      GridPruning ... 4 (adaptive)
Weight generation scheme         WeightScheme... Becke
Basis function cutoff            BFCut       ... 1.0000e-11
Integration weight cutoff        WCut        ... 1.0000e-14
Angular grids for H and He will be reduced by one unit
Partially contracted basis set               ... on
Rotationally invariant grid construction     ... off

Total number of grid points                  ...    11509
Total number of batches                      ...      192
Average number of points per batch           ...       59
Average number of grid points per atom       ...      548
UseSFitting                                  ... on

GRIDX 2
-------
General Integration Accuracy     IntAcc      ... 4.020
Radial Grid Type                 RadialGrid  ... OptM3 with GC (2021)
Angular Grid (max. ang.)         AngularGrid ... 2 (Lebedev-110)
Angular grid pruning method      GridPruning ... 4 (adaptive)
Weight generation scheme         WeightScheme... Becke
Basis function cutoff            BFCut       ... 1.0000e-11
Integration weight cutoff        WCut        ... 1.0000e-14
Angular grids for H and He will be reduced by one unit
Partially contracted basis set               ... on
Rotationally invariant grid construction     ... off

Total number of grid points                  ...    24055
Total number of batches                      ...      386
Average number of points per batch           ...       62
Average number of grid points per atom       ...     1145
UseSFitting                                  ... on

GRIDX 3
-------
General Integration Accuracy     IntAcc      ... 4.338
Radial Grid Type                 RadialGrid  ... OptM3 with GC (2021)
Angular Grid (max. ang.)         AngularGrid ... 3 (Lebedev-194)
Angular grid pruning method      GridPruning ... 4 (adaptive)
Weight generation scheme         WeightScheme... Becke
Basis function cutoff            BFCut       ... 1.0000e-11
Integration weight cutoff        WCut        ... 1.0000e-14
Angular grids for H and He will be reduced by one unit
Partially contracted basis set               ... on
Rotationally invariant grid construction     ... off

Total number of grid points                  ...    52522
Total number of batches                      ...      831
Average number of points per batch           ...       63
Average number of grid points per atom       ...     2501
UseSFitting                                  ... on

Time for X-Grid setup             =    0.898 sec


--------------------
CPCM SOLVATION MODEL
--------------------
CPCM parameters:
  Epsilon                                         ...      80.4000
  Refrac                                          ...       1.3300
  Rsolv                                           ...       1.3000
  Surface type                                    ... GAUSSIAN VDW
  Epsilon function type                           ...         CPCM
Radii:
 Radius for C  used is    3.8550 Bohr (=   2.0400 Ang.)
 Radius for H  used is    2.4944 Bohr (=   1.3200 Ang.)
 Radius for N  used is    3.5149 Bohr (=   1.8600 Ang.)
Calculating surface                               ...        done! (  0.0s)
GEPOL surface points                              ...         1159
GEPOL Volume                                      ...    1052.5887
GEPOL Surface-area                                ...     602.3776
Calculating surface distance matrix               ...        done! (  0.0s)
Performing Cholesky decomposition & store         ...        done! (  0.1s)
Overall time for CPCM initialization              ...                 0.1s
--------------
SCF ITERATIONS
--------------
ITER       Energy         Delta-E        Max-DP      RMS-DP      [F,P]     Damp
               ***  Starting incremental Fock matrix formation  ***
  0   -345.3998984238   0.000000000000 0.02689024  0.00062453  0.1074427 0.8500
  1   -345.4211681212  -0.021269697456 0.02442018  0.00057801  0.0873296 0.8500
                               ***Turning on DIIS***
  2   -345.4374453496  -0.016277228402 0.01930119  0.00046877  0.0678501 0.8500
  3   -345.4496658797  -0.012220530076 0.01252902  0.00033446  0.0521327 0.8500
  4   -345.4591768659  -0.009510986194 0.00865772  0.00025723  0.0417943 0.8500
  5   -345.4667143760  -0.007537510069 0.00672026  0.00021215  0.0346973 0.8500
  6   -345.4728687068  -0.006154330836 0.03692115  0.00119707  0.0292771 0.0000
  7   -345.5054265082  -0.032557801435 0.00146550  0.00004580  0.0011849 0.0000
                      *** Initiating the SOSCF procedure ***
                           *** Shutting down DIIS ***
                      *** Re-Reading the Fockian *** 
                      *** Removing any level shift *** 
ITER      Energy       Delta-E        Grad      Rot      Max-DP    RMS-DP
  8   -345.50544399  -0.0000174851  0.000483  0.000483  0.000858  0.000021
               *** Restarting incremental Fock matrix formation ***
  9   -345.50546219  -0.0000181956  0.000162  0.000315  0.000469  0.000015
 10   -345.50546303  -0.0000008411  0.000133  0.000341  0.000364  0.000009
 11   -345.50546325  -0.0000002181  0.000019  0.000033  0.000044  0.000002
 12   -345.50546327  -0.0000000226  0.000004  0.000005  0.000019  0.000000
 13   -345.50546327  -0.0000000031  0.000004  0.000007  0.000008  0.000000
                 **** Energy Check signals convergence ****
              ***Rediagonalizing the Fockian in SOSCF/NRSCF***

               *****************************************************
               *                     SUCCESS                       *
               *           SCF CONVERGED AFTER  14 CYCLES          *
               *****************************************************

Old exchange energy                            =    -15.841603329 Eh
New exchange energy                            =    -15.841550294 Eh
Exchange energy change after final integration =      0.000053035 Eh
Total energy after final integration           =   -345.505410238 Eh
Final COS-X integration done in                =     7.652 sec

----------------
TOTAL SCF ENERGY
----------------

Total Energy       :         -345.50541024 Eh           -9401.68018 eV

Components:
Nuclear Repulsion  :          407.34478890 Eh           11084.41523 eV
Electronic Energy  :         -752.85019914 Eh          -20486.09541 eV
One Electron Energy:        -1260.33945066 Eh          -34295.58001 eV
Two Electron Energy:          507.48925152 Eh           13809.48459 eV
Max COSX asymmetry :            0.00000193 Eh               0.00005 eV
CPCM Dielectric    :           -0.08084856 Eh              -2.20000 eV

Virial components:
Potential Energy   :         -686.68594072 Eh          -18685.67441 eV
Kinetic Energy     :          341.18053048 Eh            9283.99422 eV
Virial Ratio       :            2.01267622


DFT components:
N(Alpha)           :       31.000013562966 electrons
N(Beta)            :       31.000013562966 electrons
N(Total)           :       62.000027125932 electrons
E(XC)              :      -35.013556498354 Eh       
DFET-embed. en.    :        0.000000000000 Eh       
CPCM Solvation Model Properties:
Surface-charge          :           -1.01616464
Charge-correction       :            0.00256492 Eh               0.06980 eV
Free-energy (cav+disp)  :  This term is not implemented in the current solvation scheme

---------------
SCF CONVERGENCE
---------------

  Last Energy change         ...    7.2004e-10  Tolerance :   1.0000e-08
  Last MAX-Density change    ...    3.1086e-15  Tolerance :   1.0000e-07
  Last RMS-Density change    ...    3.1651e-17  Tolerance :   5.0000e-09
  Last Orbital Gradient      ...    4.4730e-07  Tolerance :   1.0000e-05
  Last Orbital Rotation      ...    1.2476e-06  Tolerance :   1.0000e-05

             **** THE GBW FILE WAS UPDATED (10+_Water.gbw) ****
             **** DENSITY 10+_Water.scfp WAS UPDATED ****
             **** ENERGY FILE WAS UPDATED (10+_Water.en.tmp) ****
             **** THE GBW FILE WAS UPDATED (10+_Water.gbw) ****
             **** DENSITY 10+_Water.scfp WAS UPDATED ****
----------------
ORBITAL ENERGIES
----------------

  NO   OCC          E(Eh)            E(eV) 
   0   2.0000     -14.482425      -394.0868 
   1   2.0000     -14.482423      -394.0868 
   2   2.0000     -10.398298      -282.9521 
   3   2.0000     -10.325020      -280.9581 
   4   2.0000     -10.325008      -280.9577 
   5   2.0000     -10.317754      -280.7603 
   6   2.0000     -10.317741      -280.7600 
   7   2.0000     -10.290267      -280.0124 
   8   2.0000      -1.158227       -31.5170 
   9   2.0000      -1.081570       -29.4310 
  10   2.0000      -0.943605       -25.6768 
  11   2.0000      -0.885526       -24.0964 
  12   2.0000      -0.854192       -23.2438 
  13   2.0000      -0.803745       -21.8710 
  14   2.0000      -0.789204       -21.4753 
  15   2.0000      -0.680435       -18.5156 
  16   2.0000      -0.656793       -17.8722 
  17   2.0000      -0.648255       -17.6399 
  18   2.0000      -0.622545       -16.9403 
  19   2.0000      -0.590875       -16.0785 
  20   2.0000      -0.574866       -15.6429 
  21   2.0000      -0.566569       -15.4171 
  22   2.0000      -0.561761       -15.2863 
  23   2.0000      -0.530577       -14.4377 
  24   2.0000      -0.525895       -14.3103 
  25   2.0000      -0.515632       -14.0310 
  26   2.0000      -0.493330       -13.4242 
  27   2.0000      -0.475266       -12.9327 
  28   2.0000      -0.468080       -12.7371 
  29   2.0000      -0.451532       -12.2868 
  30   2.0000      -0.357091        -9.7170 
  31   0.0000       0.062570         1.7026 
  32   0.0000       0.133781         3.6404 
  33   0.0000       0.161765         4.4018 
  34   0.0000       0.164918         4.4877 
  35   0.0000       0.183027         4.9804 
  36   0.0000       0.189363         5.1528 
  37   0.0000       0.204723         5.5708 
  38   0.0000       0.213521         5.8102 
  39   0.0000       0.217239         5.9114 
  40   0.0000       0.221860         6.0371 
  41   0.0000       0.235784         6.4160 
  42   0.0000       0.237490         6.4624 
  43   0.0000       0.240507         6.5445 
  44   0.0000       0.251942         6.8557 
  45   0.0000       0.255031         6.9397 
  46   0.0000       0.255889         6.9631 
  47   0.0000       0.307294         8.3619 
  48   0.0000       0.310611         8.4522 
  49   0.0000       0.321833         8.7575 
  50   0.0000       0.329037         8.9535 
  51   0.0000       0.369773        10.0620 
  52   0.0000       0.412451        11.2234 
  53   0.0000       0.466415        12.6918 
  54   0.0000       0.484703        13.1894 
  55   0.0000       0.505641        13.7592 
  56   0.0000       0.507475        13.8091 
  57   0.0000       0.528619        14.3844 
  58   0.0000       0.542892        14.7729 
  59   0.0000       0.560428        15.2500 
  60   0.0000       0.575228        15.6527 
  61   0.0000       0.613808        16.7026 
  62   0.0000       0.629526        17.1303 
  63   0.0000       0.645779        17.5725 
  64   0.0000       0.687337        18.7034 
  65   0.0000       0.692885        18.8544 
  66   0.0000       0.699730        19.0406 
  67   0.0000       0.709301        19.3011 
  68   0.0000       0.728054        19.8114 
  69   0.0000       0.729425        19.8487 
  70   0.0000       0.738131        20.0856 
  71   0.0000       0.739273        20.1167 
  72   0.0000       0.763341        20.7716 
  73   0.0000       0.766585        20.8598 
  74   0.0000       0.773636        21.0517 
  75   0.0000       0.777936        21.1687 
  76   0.0000       0.781974        21.2786 
  77   0.0000       0.784549        21.3487 
  78   0.0000       0.784683        21.3523 
  79   0.0000       0.787450        21.4276 
  80   0.0000       0.793899        21.6031 
  81   0.0000       0.798795        21.7363 
  82   0.0000       0.800950        21.7950 
  83   0.0000       0.813961        22.1490 
  84   0.0000       0.849929        23.1277 
  85   0.0000       0.903365        24.5818 
  86   0.0000       0.950034        25.8517 
  87   0.0000       0.968744        26.3609 
  88   0.0000       1.022823        27.8324 
  89   0.0000       1.041152        28.3312 
  90   0.0000       1.067012        29.0349 
  91   0.0000       1.098650        29.8958 
  92   0.0000       1.173698        31.9379 
  93   0.0000       1.210074        32.9278 
  94   0.0000       1.254678        34.1415 
  95   0.0000       1.280595        34.8468 
  96   0.0000       1.291639        35.1473 
  97   0.0000       1.302508        35.4430 
  98   0.0000       1.345286        36.6071 
  99   0.0000       1.383204        37.6389 
 100   0.0000       1.389580        37.8124 
 101   0.0000       1.398086        38.0439 
 102   0.0000       1.472779        40.0763 
 103   0.0000       1.508836        41.0575 
 104   0.0000       1.566682        42.6316 
 105   0.0000       1.592598        43.3368 
 106   0.0000       1.624273        44.1987 
 107   0.0000       1.631282        44.3895 
 108   0.0000       1.656891        45.0863 
 109   0.0000       1.661043        45.1993 
 110   0.0000       1.736903        47.2635 
 111   0.0000       1.739712        47.3400 
 112   0.0000       1.799835        48.9760 
 113   0.0000       1.821636        49.5692 
 114   0.0000       1.840722        50.0886 
 115   0.0000       1.851322        50.3770 
 116   0.0000       1.854765        50.4707 
 117   0.0000       1.879168        51.1348 
 118   0.0000       1.882420        51.2233 
 119   0.0000       1.887777        51.3690 
 120   0.0000       1.898204        51.6528 
 121   0.0000       1.910070        51.9756 
 122   0.0000       1.910428        51.9854 
 123   0.0000       1.924887        52.3788 
 124   0.0000       1.932795        52.5940 
 125   0.0000       1.947249        52.9873 
 126   0.0000       1.971544        53.6484 
 127   0.0000       1.974676        53.7337 
 128   0.0000       1.983281        53.9678 
 129   0.0000       1.987359        54.0788 
 130   0.0000       2.005838        54.5816 
 131   0.0000       2.040954        55.5372 
 132   0.0000       2.072544        56.3968 
 133   0.0000       2.077559        56.5332 
 134   0.0000       2.114067        57.5267 
 135   0.0000       2.147824        58.4453 
 136   0.0000       2.155114        58.6436 
 137   0.0000       2.158727        58.7419 
 138   0.0000       2.204851        59.9971 
 139   0.0000       2.240554        60.9686 
 140   0.0000       2.270320        61.7786 
 141   0.0000       2.283550        62.1386 
 142   0.0000       2.334965        63.5376 
 143   0.0000       2.361807        64.2680 
 144   0.0000       2.400646        65.3249 
 145   0.0000       2.413832        65.6837 
 146   0.0000       2.424099        65.9631 
 147   0.0000       2.495385        67.9029 
 148   0.0000       2.503627        68.1272 
 149   0.0000       2.513958        68.4083 
 150   0.0000       2.540783        69.1382 
 151   0.0000       2.585365        70.3514 
 152   0.0000       2.616954        71.2109 
 153   0.0000       2.677071        72.8468 
 154   0.0000       2.694933        73.3329 
 155   0.0000       2.716264        73.9133 
 156   0.0000       2.748036        74.7778 
 157   0.0000       2.760470        75.1162 
 158   0.0000       2.807211        76.3881 
 159   0.0000       2.827591        76.9427 
 160   0.0000       2.846435        77.4554 
 161   0.0000       2.876086        78.2623 
 162   0.0000       2.894119        78.7530 
 163   0.0000       2.970666        80.8359 
 164   0.0000       2.983780        81.1928 
 165   0.0000       3.002633        81.7058 
 166   0.0000       3.023082        82.2623 
 167   0.0000       3.032784        82.5263 
 168   0.0000       3.045427        82.8703 
 169   0.0000       3.052886        83.0733 
 170   0.0000       3.081037        83.8393 
 171   0.0000       3.112889        84.7060 
 172   0.0000       3.132468        85.2388 
 173   0.0000       3.178319        86.4864 
 174   0.0000       3.222687        87.6938 
 175   0.0000       3.405874        92.6785 
 176   0.0000       3.557391        96.8015 

                    ********************************
                    * MULLIKEN POPULATION ANALYSIS *
                    ********************************

-----------------------
MULLIKEN ATOMIC CHARGES
-----------------------
   0 C :    0.124520
   1 C :    0.262045
   2 C :    0.124520
   3 C :   -0.092238
   4 H :    0.081240
   5 H :    0.120797
   6 H :    0.077218
   7 H :    0.071518
   8 N :   -0.329247
   9 N :   -0.329247
  10 H :    0.081239
  11 H :    0.080302
  12 H :    0.077218
  13 C :    0.085373
  14 H :    0.081404
  15 H :    0.080577
  16 H :    0.077703
  17 C :    0.085374
  18 H :    0.080577
  19 H :    0.081404
  20 H :    0.077703
Sum of atomic charges:    1.0000000

--------------------------------
MULLIKEN REDUCED ORBITAL CHARGES
--------------------------------
  0 C s       :     3.006624  s :     3.006624
      pz      :     1.034786  p :     2.822813
      px      :     1.048834
      py      :     0.739193
      dz2     :     0.009987  d :     0.046044
      dxz     :     0.006572
      dyz     :     0.006067
      dx2y2   :     0.014840
      dxy     :     0.008577
  1 C s       :     3.071286  s :     3.071286
      pz      :     0.835457  p :     2.591483
      px      :     0.800020
      py      :     0.956005
      dz2     :     0.019364  d :     0.075186
      dxz     :     0.027351
      dyz     :     0.019213
      dx2y2   :     0.005059
      dxy     :     0.004198
  2 C s       :     3.006623  s :     3.006623
      pz      :     1.034786  p :     2.822812
      px      :     1.048833
      py      :     0.739193
      dz2     :     0.009987  d :     0.046044
      dxz     :     0.006572
      dyz     :     0.006067
      dx2y2   :     0.014840
      dxy     :     0.008577
  3 C s       :     3.063527  s :     3.063527
      pz      :     0.931971  p :     2.995243
      px      :     1.019350
      py      :     1.043923
      dz2     :     0.009251  d :     0.033467
      dxz     :     0.007429
      dyz     :     0.005370
      dx2y2   :     0.008402
      dxy     :     0.003016
  4 H s       :     0.896681  s :     0.896681
      pz      :     0.003940  p :     0.022079
      px      :     0.014690
      py      :     0.003450
  5 H s       :     0.856550  s :     0.856550
      pz      :     0.001325  p :     0.022653
      px      :     0.002841
      py      :     0.018487
  6 H s       :     0.900258  s :     0.900258
      pz      :     0.011631  p :     0.022524
      px      :     0.007724
      py      :     0.003169
  7 H s       :     0.905971  s :     0.905971
      pz      :     0.003210  p :     0.022511
      px      :     0.014978
      py      :     0.004323
  8 N s       :     3.420511  s :     3.420511
      pz      :     1.124097  p :     3.880287
      px      :     1.565488
      py      :     1.190702
      dz2     :     0.006789  d :     0.028449
      dxz     :     0.005282
      dyz     :     0.008869
      dx2y2   :     0.003775
      dxy     :     0.003735
  9 N s       :     3.420511  s :     3.420511
      pz      :     1.124097  p :     3.880288
      px      :     1.565488
      py      :     1.190702
      dz2     :     0.006789  d :     0.028449
      dxz     :     0.005282
      dyz     :     0.008869
      dx2y2   :     0.003775
      dxy     :     0.003735
 10 H s       :     0.896681  s :     0.896681
      pz      :     0.003940  p :     0.022079
      px      :     0.014690
      py      :     0.003450
 11 H s       :     0.896496  s :     0.896496
      pz      :     0.003522  p :     0.023202
      px      :     0.004338
      py      :     0.015343
 12 H s       :     0.900258  s :     0.900258
      pz      :     0.011631  p :     0.022524
      px      :     0.007724
      py      :     0.003169
 13 C s       :     3.018956  s :     3.018956
      pz      :     0.821726  p :     2.858063
      px      :     1.062427
      py      :     0.973910
      dz2     :     0.007415  d :     0.037608
      dxz     :     0.011145
      dyz     :     0.009439
      dx2y2   :     0.007143
      dxy     :     0.002467
 14 H s       :     0.894758  s :     0.894758
      pz      :     0.003203  p :     0.023838
      px      :     0.004935
      py      :     0.015700
 15 H s       :     0.896077  s :     0.896077
      pz      :     0.006606  p :     0.023346
      px      :     0.012375
      py      :     0.004366
 16 H s       :     0.898933  s :     0.898933
      pz      :     0.006271  p :     0.023364
      px      :     0.012426
      py      :     0.004667
 17 C s       :     3.018955  s :     3.018955
      pz      :     0.821726  p :     2.858063
      px      :     1.062427
      py      :     0.973910
      dz2     :     0.007415  d :     0.037608
      dxz     :     0.011145
      dyz     :     0.009439
      dx2y2   :     0.007143
      dxy     :     0.002467
 18 H s       :     0.896077  s :     0.896077
      pz      :     0.006606  p :     0.023346
      px      :     0.012375
      py      :     0.004366
 19 H s       :     0.894757  s :     0.894757
      pz      :     0.003203  p :     0.023838
      px      :     0.004935
      py      :     0.015700
 20 H s       :     0.898933  s :     0.898933
      pz      :     0.006271  p :     0.023364
      px      :     0.012426
      py      :     0.004667


                     *******************************
                     * LOEWDIN POPULATION ANALYSIS *
                     *******************************

----------------------
LOEWDIN ATOMIC CHARGES
----------------------
   0 C :    0.060079
   1 C :    0.175706
   2 C :    0.060079
   3 C :   -0.040248
   4 H :    0.043843
   5 H :    0.066958
   6 H :    0.048516
   7 H :    0.044057
   8 N :    0.008478
   9 N :    0.008478
  10 H :    0.043843
  11 H :    0.056226
  12 H :    0.048516
  13 C :    0.053737
  14 H :    0.047681
  15 H :    0.042947
  16 H :    0.043370
  17 C :    0.053737
  18 H :    0.042947
  19 H :    0.047681
  20 H :    0.043370

-------------------------------
LOEWDIN REDUCED ORBITAL CHARGES
-------------------------------
  0 C s       :     2.833512  s :     2.833512
      pz      :     1.061519  p :     2.996423
      px      :     1.086917
      py      :     0.847987
      dz2     :     0.024204  d :     0.109986
      dxz     :     0.016278
      dyz     :     0.014214
      dx2y2   :     0.034770
      dxy     :     0.020520
  1 C s       :     2.834158  s :     2.834158
      pz      :     0.953226  p :     2.813637
      px      :     0.823322
      py      :     1.037090
      dz2     :     0.052041  d :     0.176498
      dxz     :     0.055409
      dyz     :     0.049727
      dx2y2   :     0.012324
      dxy     :     0.006998
  2 C s       :     2.833512  s :     2.833512
      pz      :     1.061519  p :     2.996423
      px      :     1.086917
      py      :     0.847987
      dz2     :     0.024204  d :     0.109986
      dxz     :     0.016278
      dyz     :     0.014214
      dx2y2   :     0.034770
      dxy     :     0.020520
  3 C s       :     2.834462  s :     2.834462
      pz      :     1.002466  p :     3.120930
      px      :     1.057869
      py      :     1.060594
      dz2     :     0.023654  d :     0.084857
      dxz     :     0.018029
      dyz     :     0.014149
      dx2y2   :     0.022405
      dxy     :     0.006619
  4 H s       :     0.889651  s :     0.889651
      pz      :     0.013346  p :     0.066506
      px      :     0.040830
      py      :     0.012329
  5 H s       :     0.863977  s :     0.863977
      pz      :     0.007049  p :     0.069065
      px      :     0.009330
      py      :     0.052686
  6 H s       :     0.885036  s :     0.885036
      pz      :     0.033972  p :     0.066448
      px      :     0.021753
      py      :     0.010723
  7 H s       :     0.889082  s :     0.889082
      pz      :     0.011965  p :     0.066860
      px      :     0.041532
      py      :     0.013364
  8 N s       :     3.060168  s :     3.060168
      pz      :     1.177423  p :     3.867335
      px      :     1.496464
      py      :     1.193449
      dz2     :     0.017995  d :     0.064019
      dxz     :     0.008792
      dyz     :     0.023204
      dx2y2   :     0.007747
      dxy     :     0.006280
  9 N s       :     3.060168  s :     3.060168
      pz      :     1.177423  p :     3.867336
      px      :     1.496464
      py      :     1.193449
      dz2     :     0.017995  d :     0.064019
      dxz     :     0.008792
      dyz     :     0.023204
      dx2y2   :     0.007747
      dxy     :     0.006280
 10 H s       :     0.889651  s :     0.889651
      pz      :     0.013346  p :     0.066506
      px      :     0.040830
      py      :     0.012329
 11 H s       :     0.876927  s :     0.876927
      pz      :     0.012169  p :     0.066847
      px      :     0.012748
      py      :     0.041930
 12 H s       :     0.885036  s :     0.885036
      pz      :     0.033972  p :     0.066448
      px      :     0.021753
      py      :     0.010723
 13 C s       :     2.832262  s :     2.832262
      pz      :     0.904931  p :     3.020067
      px      :     1.093232
      py      :     1.021903
      dz2     :     0.017258  d :     0.093935
      dxz     :     0.029583
      dyz     :     0.022784
      dx2y2   :     0.019344
      dxy     :     0.004966
 14 H s       :     0.885846  s :     0.885846
      pz      :     0.009812  p :     0.066473
      px      :     0.013052
      py      :     0.043609
 15 H s       :     0.891216  s :     0.891216
      pz      :     0.019752  p :     0.065837
      px      :     0.033817
      py      :     0.012268
 16 H s       :     0.890811  s :     0.890811
      pz      :     0.018743  p :     0.065819
      px      :     0.033956
      py      :     0.013121
 17 C s       :     2.832262  s :     2.832262
      pz      :     0.904931  p :     3.020067
      px      :     1.093232
      py      :     1.021903
      dz2     :     0.017258  d :     0.093935
      dxz     :     0.029583
      dyz     :     0.022784
      dx2y2   :     0.019344
      dxy     :     0.004966
 18 H s       :     0.891216  s :     0.891216
      pz      :     0.019752  p :     0.065837
      px      :     0.033817
      py      :     0.012268
 19 H s       :     0.885846  s :     0.885846
      pz      :     0.009812  p :     0.066473
      px      :     0.013052
      py      :     0.043609
 20 H s       :     0.890811  s :     0.890811
      pz      :     0.018743  p :     0.065819
      px      :     0.033956
      py      :     0.013121


                      *****************************
                      * MAYER POPULATION ANALYSIS *
                      *****************************

  NA   - Mulliken gross atomic population
  ZA   - Total nuclear charge
  QA   - Mulliken gross atomic charge
  VA   - Mayer's total valence
  BVA  - Mayer's bonded valence
  FA   - Mayer's free valence

  ATOM       NA         ZA         QA         VA         BVA        FA
  0 C      5.8755     6.0000     0.1245     3.9155     3.9155     0.0000
  1 C      5.7380     6.0000     0.2620     3.9285     3.9285    -0.0000
  2 C      5.8755     6.0000     0.1245     3.9155     3.9155     0.0000
  3 C      6.0922     6.0000    -0.0922     4.0827     4.0827     0.0000
  4 H      0.9188     1.0000     0.0812     0.9840     0.9840     0.0000
  5 H      0.8792     1.0000     0.1208     0.9973     0.9973     0.0000
  6 H      0.9228     1.0000     0.0772     0.9888     0.9888     0.0000
  7 H      0.9285     1.0000     0.0715     0.9778     0.9778    -0.0000
  8 N      7.3292     7.0000    -0.3292     3.3707     3.3707    -0.0000
  9 N      7.3292     7.0000    -0.3292     3.3707     3.3707     0.0000
 10 H      0.9188     1.0000     0.0812     0.9840     0.9840     0.0000
 11 H      0.9197     1.0000     0.0803     0.9835     0.9835    -0.0000
 12 H      0.9228     1.0000     0.0772     0.9888     0.9888     0.0000
 13 C      5.9146     6.0000     0.0854     3.8810     3.8810     0.0000
 14 H      0.9186     1.0000     0.0814     0.9969     0.9969    -0.0000
 15 H      0.9194     1.0000     0.0806     0.9905     0.9905     0.0000
 16 H      0.9223     1.0000     0.0777     0.9900     0.9900     0.0000
 17 C      5.9146     6.0000     0.0854     3.8810     3.8810     0.0000
 18 H      0.9194     1.0000     0.0806     0.9905     0.9905     0.0000
 19 H      0.9186     1.0000     0.0814     0.9969     0.9969     0.0000
 20 H      0.9223     1.0000     0.0777     0.9900     0.9900     0.0000

  Mayer bond orders larger than 0.100000
B(  0-C ,  3-C ) :   1.0697 B(  0-C ,  4-H ) :   0.9574 B(  0-C ,  8-N ) :   0.8942 
B(  0-C , 12-H ) :   0.9521 B(  1-C ,  5-H ) :   0.9602 B(  1-C ,  8-N ) :   1.4245 
B(  1-C ,  9-N ) :   1.4245 B(  2-C ,  3-C ) :   1.0697 B(  2-C ,  6-H ) :   0.9521 
B(  2-C ,  9-N ) :   0.8942 B(  2-C , 10-H ) :   0.9574 B(  3-C ,  7-H ) :   0.9493 
B(  3-C , 11-H ) :   0.9450 B(  8-N , 13-C ) :   0.9198 B(  9-N , 17-C ) :   0.9198 
B( 13-C , 14-H ) :   0.9715 B( 13-C , 15-H ) :   0.9742 B( 13-C , 16-H ) :   0.9731 
B( 17-C , 18-H ) :   0.9742 B( 17-C , 19-H ) :   0.9715 B( 17-C , 20-H ) :   0.9731 


-------
TIMINGS
-------

Total SCF time: 0 days 0 hours 0 min 56 sec 

Total time                  ....      56.709 sec
Sum of individual times     ....      55.867 sec  ( 98.5%)

Fock matrix formation       ....      53.691 sec  ( 94.7%)
  Split-RI-J                ....       2.186 sec  (  4.1% of F)
  Chain of spheres X        ....      40.784 sec  ( 76.0% of F)
  XC integration            ....       6.005 sec  ( 11.2% of F)
    Basis function eval.    ....       1.911 sec  ( 31.8% of XC)
    Density eval.           ....       1.158 sec  ( 19.3% of XC)
    XC-Functional eval.     ....       0.784 sec  ( 13.1% of XC)
    XC-Potential eval.      ....       1.179 sec  ( 19.6% of XC)
Diagonalization             ....       0.070 sec  (  0.1%)
Density matrix formation    ....       0.007 sec  (  0.0%)
Population analysis         ....       0.047 sec  (  0.1%)
Initial guess               ....       0.183 sec  (  0.3%)
Orbital Transformation      ....       0.000 sec  (  0.0%)
Orbital Orthonormalization  ....       0.000 sec  (  0.0%)
DIIS solution               ....       0.047 sec  (  0.1%)
SOSCF solution              ....       0.059 sec  (  0.1%)
Grid generation             ....       1.763 sec  (  3.1%)

Maximum memory used throughout the entire SCF-calculation: 55.6 MB


-------------------------------------------------------------------------------
                          DFT DISPERSION CORRECTION                            
                                                                               
                                 DFTD4 V2.5                                    
-------------------------------------------------------------------------------
The WB97X functional is recognized
Active option DFTDOPT                   ...         5   

Starting D4
-------------------------   ----------------
Dispersion correction           -0.002456100
-------------------------   ----------------


-------------------------   --------------------
FINAL SINGLE POINT ENERGY      -345.507866338019
-------------------------   --------------------



           ************************************************************
           *        Program running with 4 parallel MPI-processes     *
           *              working on a common directory               *
           ************************************************************
------------------------------------------------------------------------------
                         ORCA SCF GRADIENT CALCULATION
------------------------------------------------------------------------------

 ... reading COSX grid (gridx3)
Gradient of the Kohn-Sham DFT energy:
Kohn-Sham wavefunction type      ... RKS
Hartree-Fock exchange scaling    ...    0.158
Number of operators              ...    1
Number of atoms                  ...   21
Basis set dimensions             ...  177
Integral neglect threshold       ... 2.5e-11
Integral primitive cutoff        ... 2.5e-12
SHARK Integral package           ... ON

Nuc. rep. gradient       (SHARK) ... done (  0.0 sec)
HCore & Overlap gradient (SHARK) ... done (  0.1 sec)
RI-J gradient            (SHARK) ... done (  0.5 sec)
COSX-gradient                    ... done (  8.3 sec)
Exchange-correlation gradient    ... done
Dispersion correction            ... Starting D4
Starting D4
Starting D4
Starting D4


------------------- 
Dispersion Gradient 
------------------- 
   1  :   -0.000001313    0.000020512    0.000019274
   2  :   -0.000000813   -0.000012418   -0.000000000
   3  :   -0.000001313    0.000020512   -0.000019274
   4  :    0.000009213    0.000028780   -0.000000000
   5  :    0.000000123    0.000002725    0.000003466
   6  :   -0.000000384   -0.000005118    0.000000000
   7  :    0.000000972    0.000002642   -0.000004836
   8  :    0.000001114    0.000005595   -0.000000000
   9  :   -0.000001046   -0.000003707    0.000018987
  10  :   -0.000001046   -0.000003707   -0.000018987
  11  :    0.000000123    0.000002725   -0.000003466
  12  :    0.000001274    0.000009456   -0.000000000
  13  :    0.000000972    0.000002642    0.000004836
  14  :   -0.000002131   -0.000020123    0.000041738
  15  :   -0.000000585   -0.000004955    0.000011296
  16  :   -0.000000932   -0.000005226    0.000008920
  17  :   -0.000000290   -0.000005017    0.000008943
  18  :   -0.000002131   -0.000020123   -0.000041738
  19  :   -0.000000932   -0.000005226   -0.000008920
  20  :   -0.000000585   -0.000004955   -0.000011296
  21  :   -0.000000290   -0.000005017   -0.000008943

  |G| =    0.000055667

done

------------------
CARTESIAN GRADIENT
------------------

   1   C   :   -0.002033213    0.007191632    0.005524351
   2   C   :    0.000162383   -0.010907769   -0.000000066
   3   C   :   -0.002033197    0.007191628   -0.005524234
   4   C   :    0.004499411    0.003071447   -0.000000062
   5   H   :    0.001510659   -0.000929604   -0.000068480
   6   H   :    0.000102156    0.003855360   -0.000000005
   7   H   :   -0.000881257   -0.000435536    0.001565192
   8   H   :   -0.000224792   -0.000072400    0.000000017
   9   N   :   -0.000141486   -0.000118795    0.003259636
  10   N   :   -0.000141475   -0.000118803   -0.003259526
  11   H   :    0.001510672   -0.000929634    0.000068479
  12   H   :   -0.000410459    0.000059519   -0.000000017
  13   H   :   -0.000881231   -0.000435582   -0.001565205
  14   C   :   -0.000244293   -0.005190761    0.006880238
  15   H   :   -0.000012132    0.002710608    0.000856498
  16   H   :   -0.002179650   -0.000545878   -0.001451723
  17   H   :    0.002009768   -0.000632944   -0.001277193
  18   C   :   -0.000244310   -0.005190674   -0.006880348
  19   H   :   -0.002179645   -0.000545872    0.001451692
  20   H   :   -0.000012110    0.002710606   -0.000856484
  21   H   :    0.002009769   -0.000632948    0.001277145

Difference to translation invariance:
           :    0.0001855674    0.0001035979   -0.0000000942

Difference to rotation invariance:
           :    0.0000008046   -0.0000000490   -0.0018546311

Norm of the cartesian gradient     ...    0.0237124689
RMS gradient                       ...    0.0029874903
MAX gradient                       ...    0.0109077689

-------
TIMINGS
-------

Total SCF gradient time            ...       11.919 sec

One electron gradient       ....       0.093 sec  (  0.8%)
RI-J Coulomb gradient       ....       0.476 sec  (  4.0%)
COSX gradient               ....       8.345 sec  ( 70.0%)
XC gradient                 ....       2.048 sec  ( 17.2%)
CPCM gradient               ....       0.292 sec  (  2.4%)
   A-Matrix (El+Nuc)        ....       0.067 sec  (  0.6%)
   Potential                ....       0.225 sec  (  1.9%)

Maximum memory used throughout the entire SCFGRAD-calculation: 43.1 MB
------------------------------------------------------------------------------
                         ORCA GEOMETRY RELAXATION STEP
------------------------------------------------------------------------------

Reading the OPT-File                    .... done
Getting information on internals        .... done
Copying old internal coords+grads       .... done
Making the new internal coordinates     .... (new redundants).... done
Validating the new internal coordinates .... (new redundants).... done
Calculating the B-matrix                .... done
Calculating the G,G- and P matrices     .... done
Transforming gradient to internals      .... done
Projecting the internal gradient        .... done
Number of atoms                         ....  21
Number of internal coordinates          .... 110
Current Energy                          ....  -345.507866338 Eh
Current gradient norm                   ....     0.023712469 Eh/bohr
Maximum allowed component of the step   ....  0.300
Current trust radius                    ....  0.300
Evaluating the initial hessian          ....  (Almloef) done
Projecting the Hessian                  .... done
Forming the augmented Hessian           .... done
Diagonalizing the augmented Hessian     .... done
Last element of RFO vector              ....  0.998749776
Lowest eigenvalues of augmented Hessian:
 -0.000993653  0.015403203  0.015403593  0.015500192  0.017063782
Length of the computed step             ....  0.050051427
The final length of the internal step   ....  0.050051427
Converting the step to cartesian space:
 Initial RMS(Int)=    0.0047722163
Transforming coordinates:
 Iter   0:  RMS(Cart)=    0.0121429695 RMS(Int)=    0.0047729473
 Iter   1:  RMS(Cart)=    0.0000129280 RMS(Int)=    0.0000072568
 Iter   2:  RMS(Cart)=    0.0000000644 RMS(Int)=    0.0000000307
done
Storing new coordinates                 .... done

                                .--------------------.
          ----------------------|Geometry convergence|-------------------------
          Item                value                   Tolerance       Converged
          ---------------------------------------------------------------------
          RMS gradient        0.0020370090            0.0001000000      NO
          MAX gradient        0.0084392930            0.0003000000      NO
          RMS step            0.0047722163            0.0020000000      NO
          MAX step            0.0178965919            0.0040000000      NO
          ........................................................
          Max(Bonds)      0.0095      Max(Angles)    0.13
          Max(Dihed)        0.22      Max(Improp)    0.00
          ---------------------------------------------------------------------

The optimization has not yet converged - more geometry cycles are needed


    ---------------------------------------------------------------------------
                         Redundant Internal Coordinates
                            (Angstroem and degrees)

        Definition                    Value    dE/dq     Step     New-Value
    ----------------------------------------------------------------------------
     1. B(C   3,C   0)                1.5265  0.005061 -0.0065    1.5201   
     2. B(C   3,C   2)                1.5265  0.005061 -0.0065    1.5201   
     3. B(H   4,C   0)                1.1000 -0.001695  0.0026    1.1025   
     4. B(H   5,C   1)                1.0895 -0.003849  0.0056    1.0952   
     5. B(H   6,C   2)                1.0963 -0.001862  0.0028    1.0991   
[...]
     12      -0.045286   0.294698   0.282644   0.025674  -0.038348  -0.109646
     13       0.013445  -0.098729  -0.094113  -0.009061   0.011441   0.034882
     14       0.004791  -0.040378  -0.038955  -0.004287   0.005554   0.016776
     15       0.000128   0.000000  -0.001437   0.000442   0.000000   0.000793
     16       0.003102  -0.000003   0.013744  -0.001369  -0.000000   0.001176
     17       0.000000   0.000378   0.000000   0.000000  -0.000216  -0.000000
     18       0.055057  -0.324472   0.314704   0.007139   0.034437  -0.072729
     19       0.029237  -0.157235   0.152126   0.003762   0.015542  -0.033327
     20      -0.081243   0.511348  -0.495822  -0.010606  -0.054164   0.113100
     21      -0.839086   0.000005  -0.025108   0.251329   0.000074  -0.404826
     22       0.163322  -0.000001   0.006424  -0.045131  -0.000013   0.072402
     23      -0.000000  -0.002917  -0.000001  -0.000000   0.000269   0.000000
     24      -0.000170   0.000349   0.000338   0.000323   0.000441   0.000138
     25      -0.000274   0.000190   0.000282  -0.000331  -0.000116   0.000362
     26       0.000014   0.000001   0.000079   0.000144  -0.000068  -0.000272
     27      -0.000170  -0.000350   0.000338   0.000323  -0.000441   0.000138
     28      -0.000274  -0.000190   0.000282  -0.000331   0.000116   0.000362
     29      -0.000014   0.000001  -0.000079  -0.000143  -0.000068   0.000272
     30      -0.045296  -0.294827   0.282506   0.025657   0.038369  -0.109639
     31       0.013448   0.098772  -0.094067  -0.009057  -0.011449   0.034880
     32      -0.004792  -0.040396   0.038936   0.004284   0.005557  -0.016776
     33       0.068812   0.000006  -0.029070   0.055978   0.000016  -0.085590
     34      -0.483430  -0.000053   0.248253  -0.456258  -0.000132   0.694819
     35      -0.000000  -0.000344  -0.000000  -0.000000  -0.000218   0.000000
     36       0.055055   0.324325   0.314853   0.007154  -0.034427  -0.072735
     37       0.029237   0.157165   0.152199   0.003769  -0.015538  -0.033330
     38       0.081241   0.511117   0.496058   0.010629  -0.054148  -0.113110
     39       0.000089  -0.007242  -0.006878  -0.057244  -0.067107  -0.035055
     40       0.000114   0.000951   0.001111   0.003528   0.004115   0.002136
     41       0.000153   0.000288   0.000097  -0.000293  -0.000383  -0.000247
     42       0.000105  -0.000251  -0.000332  -0.005816  -0.006876  -0.003669
     43       0.000261  -0.005907  -0.008556  -0.018362  -0.021265  -0.010753
     44      -0.000017  -0.000591  -0.001032  -0.003742  -0.004431  -0.002368
     45      -0.001407   0.041482   0.041057   0.340728   0.399778   0.208964
     46      -0.000622   0.009658   0.009573   0.090599   0.106371   0.055800
     47      -0.000785   0.028935   0.028775   0.227546   0.266973   0.139353
     48       0.000646   0.046345   0.042803   0.343478   0.402525   0.209694
     49      -0.000387  -0.015120  -0.013998  -0.113618  -0.133191  -0.069587
     50      -0.000307  -0.030464  -0.027993  -0.220783  -0.258612  -0.134344
     51       0.000089   0.007245  -0.006874  -0.057272   0.067087  -0.035048
     52       0.000114  -0.000951   0.001111   0.003529  -0.004113   0.002136
     53      -0.000153   0.000288  -0.000096   0.000293  -0.000383   0.000247
     54      -0.001407  -0.041500   0.041037   0.340895  -0.399658   0.208922
     55      -0.000622  -0.009662   0.009568   0.090642  -0.106338   0.055788
     56       0.000785   0.028948  -0.028761  -0.227656   0.266892  -0.139324
     57       0.000105   0.000251  -0.000332  -0.005819   0.006874  -0.003668
     58       0.000261   0.005911  -0.008553  -0.018369   0.021257  -0.010751
     59       0.000017  -0.000591   0.001032   0.003743  -0.004429   0.002368
     60       0.000645  -0.046364   0.042781   0.343645  -0.402405   0.209653
     61      -0.000387   0.015126  -0.013991  -0.113674   0.133152  -0.069574
     62       0.000307  -0.030476   0.027979   0.220891  -0.258536   0.134318
                 60         61         62    
      0      -0.000618  -0.000479  -0.000069
      1       0.000231   0.000294  -0.001304
      2      -0.000436  -0.000277  -0.001373
      3      -0.000023   0.000000   0.000349
      4       0.005343  -0.000050   0.090772
      5       0.000002   0.000253   0.000000
      6      -0.000609   0.000491  -0.000070
      7       0.000226  -0.000299  -0.001304
      8       0.000430  -0.000285   0.001373
      9       0.000167  -0.000002   0.000119
     10      -0.000057   0.000001  -0.000256
     11       0.000000   0.000009   0.000000
     12       0.004519   0.003822  -0.005022
     13      -0.000932  -0.000930   0.001912
     14      -0.000671  -0.000587   0.000519
     15      -0.000919   0.000009  -0.004303
     16      -0.058961   0.000551  -0.993863
     17       0.000033   0.003489  -0.000000
     18       0.002729  -0.001852   0.005973
     19       0.002328  -0.001789   0.002696
     20      -0.003718   0.002652  -0.009862
     21      -0.001231   0.000012  -0.001609
     22       0.000139  -0.000001   0.000239
     23       0.000001   0.000109   0.000000
     24       0.000043   0.000036  -0.000062
     25       0.000070  -0.000012  -0.002277
     26      -0.000835  -0.000575  -0.003052
     27       0.000043  -0.000037  -0.000062
     28       0.000070   0.000010  -0.002277
     29       0.000824  -0.000590   0.003052
     30       0.004447  -0.003906  -0.005022
     31      -0.000915   0.000947   0.001912
     32       0.000659  -0.000600  -0.000519
     33      -0.000174   0.000002  -0.000023
     34       0.001072  -0.000011   0.003339
     35       0.000001   0.000147   0.000000
     36       0.002763   0.001801   0.005973
     37       0.002361   0.001745   0.002696
     38       0.003768   0.002582   0.009862
     39      -0.003825  -0.003759   0.000209
     40      -0.060714  -0.059737   0.003645
     41      -0.030090  -0.029566   0.001320
     42       0.020485   0.020107  -0.000503
     43       0.615532   0.605457  -0.039161
     44       0.126534   0.124452  -0.008727
     45       0.204362   0.200558  -0.008372
     46       0.047524   0.046660  -0.002872
     47       0.129865   0.127362  -0.004160
     48      -0.179480  -0.176266   0.007306
     49       0.052583   0.051656  -0.002971
     50       0.108453   0.106424  -0.003464
     51      -0.003754   0.003830   0.000209
     52      -0.059585   0.060864   0.003645
     53       0.029531  -0.030125  -0.001320
     54       0.200569  -0.204351  -0.008371
     55       0.046641  -0.047542  -0.002872
     56      -0.127456   0.129772   0.004160
     57       0.020106  -0.020488  -0.000503
     58       0.604083  -0.616882  -0.039160
     59      -0.124181   0.126800   0.008726
     60      -0.176147   0.179597   0.007305
     61       0.051606  -0.052633  -0.002971
     62      -0.106441   0.108438   0.003464


-----------
IR SPECTRUM
-----------

 Mode   freq       eps      Int      T**2         TX        TY        TZ
       cm**-1   L/(mol*cm) km/mol    a.u.
----------------------------------------------------------------------------
  6:    116.28   0.000008    0.04  0.000021  (-0.000000 -0.000000  0.004537)
  7:    155.89   0.001000    5.05  0.002001  ( 0.044617  0.003262  0.000000)
  8:    198.69   0.000035    0.18  0.000055  ( 0.000001 -0.000000  0.007402)
  9:    222.34   0.000445    2.25  0.000625  ( 0.024973  0.000978 -0.000000)
 10:    272.98   0.000072    0.37  0.000083  ( 0.009072 -0.000714 -0.000000)
 11:    306.48   0.000001    0.01  0.000001  ( 0.000000 -0.000000 -0.001201)
 12:    319.05   0.000009    0.04  0.000008  (-0.001303 -0.002575 -0.000000)
 13:    426.36   0.000014    0.07  0.000010  (-0.000001 -0.000000  0.003191)
 14:    460.47   0.006646   33.58  0.004504  ( 0.067105 -0.000821 -0.000000)
 15:    477.33   0.001232    6.22  0.000805  ( 0.000001 -0.000000  0.028376)
 16:    530.61   0.002147   10.85  0.001263  ( 0.034880  0.006787  0.000000)
 17:    625.28   0.000031    0.16  0.000015  ( 0.002501 -0.003040  0.000000)
 18:    807.05   0.000232    1.17  0.000090  ( 0.008714  0.003723  0.000000)
 19:    884.55   0.000459    2.32  0.000162  (-0.000000  0.000000 -0.012722)
 20:    917.81   0.000006    0.03  0.000002  (-0.000000  0.000000 -0.001418)
 21:    943.12   0.000362    1.83  0.000120  ( 0.010558 -0.002904 -0.000000)
 22:   1010.91   0.000458    2.31  0.000141  ( 0.010859 -0.004842 -0.000000)
 23:   1044.59   0.005877   29.70  0.001756  (-0.011699  0.040236  0.000000)
 24:   1071.18   0.000176    0.89  0.000051  (-0.000000 -0.000000  0.007166)
 25:   1125.65   0.001580    7.98  0.000438  ( 0.020441  0.004484 -0.000000)
 26:   1128.26   0.002336   11.80  0.000646  (-0.006532 -0.024563  0.000000)
 27:   1139.35   0.005911   29.87  0.001619  ( 0.000000  0.000000  0.040237)
 28:   1142.06   0.000005    0.02  0.000001  ( 0.000000 -0.000000 -0.001139)
 29:   1162.49   0.000203    1.03  0.000054  ( 0.006778  0.002917  0.000000)
 30:   1206.30   0.017251   87.18  0.004463  ( 0.000000 -0.000000  0.066803)
 31:   1237.24   0.011380   57.51  0.002870  (-0.000000  0.000000  0.053574)
 32:   1275.80   0.000700    3.54  0.000171  ( 0.000000  0.000000 -0.013088)
 33:   1282.89   0.007389   37.34  0.001797  (-0.020902 -0.036886 -0.000000)
 34:   1339.58   0.002490   12.58  0.000580  (-0.005460  0.023459 -0.000001)
 35:   1353.90   0.010764   54.40  0.002481  (-0.000000 -0.000000 -0.049810)
 36:   1405.61   0.004696   23.73  0.001043  (-0.000000 -0.000000 -0.032288)
 37:   1417.63   0.004488   22.68  0.000988  (-0.000000  0.000000 -0.031432)
 38:   1428.76   0.006358   32.13  0.001389  (-0.006587  0.036678  0.000000)
 39:   1445.74   0.010956   55.37  0.002365  (-0.000005 -0.000002  0.048630)
 40:   1446.25   0.006567   33.19  0.001417  (-0.033619 -0.016932 -0.000006)
 41:   1449.31   0.006518   32.94  0.001404  (-0.036202  0.009641 -0.000008)
 42:   1450.10   0.003565   18.02  0.000767  (-0.000009  0.000001  0.027699)
 43:   1458.15   0.000096    0.48  0.000021  (-0.004498  0.000531 -0.000000)
 44:   1464.92   0.000036    0.18  0.000008  (-0.000000 -0.000003 -0.002785)
 45:   1466.06   0.006102   30.84  0.001299  (-0.004781 -0.035722 -0.000000)
 46:   1475.93   0.000941    4.76  0.000199  (-0.003923 -0.013553  0.000000)
 47:   1489.37   0.004974   25.14  0.001042  ( 0.000000 -0.000000 -0.032284)
 48:   1588.56   0.009228   46.64  0.001813  ( 0.005164 -0.042263 -0.000000)
 49:   1798.76   0.193191  976.31  0.033516  (-0.000000  0.000000 -0.183075)
 50:   3078.87   0.012076   61.03  0.001224  ( 0.000000 -0.000000 -0.034986)
 51:   3079.90   0.001108    5.60  0.000112  ( 0.000237  0.010593 -0.000002)
 52:   3088.78   0.004072   20.58  0.000411  ( 0.000002 -0.000002 -0.020283)
 53:   3091.54   0.004155   21.00  0.000419  ( 0.014215 -0.014743  0.000002)
 54:   3103.75   0.002744   13.87  0.000276  ( 0.016147  0.003890  0.000000)
 55:   3167.53   0.000932    4.71  0.000092  ( 0.000003  0.000001 -0.009583)
 56:   3168.61   0.002191   11.07  0.000216  (-0.013981 -0.004506 -0.000002)
 57:   3182.20   0.003615   18.27  0.000355  (-0.018347  0.004234 -0.000000)
 58:   3182.47   0.000000    0.00  0.000000  (-0.000004  0.000001 -0.000074)
 59:   3183.21   0.000344    1.74  0.000034  (-0.000187 -0.005804  0.000000)
 60:   3217.76   0.000616    3.11  0.000060  (-0.000925 -0.007675 -0.000065)
 61:   3217.78   0.000498    2.52  0.000048  ( 0.000009  0.000072 -0.006951)
 62:   3240.46   0.000489    2.47  0.000047  ( 0.000622 -0.006832  0.000000)

* The epsilon (eps) is given for a Dirac delta lineshape.
** The dipole moment derivative (T) already includes vibrational overlap.

The first frequency considered to be a vibration is 6
The total number of vibrations considered is 57


--------------------------
THERMOCHEMISTRY AT 298.15K
--------------------------

Temperature         ... 298.15 K
Pressure            ... 1.00 atm
Total Mass          ... 113.18 AMU

Throughout the following assumptions are being made:
  (1) The electronic state is orbitally nondegenerate
  (2) There are no thermally accessible electronically excited states
  (3) Hindered rotations indicated by low frequency modes are not
      treated as such but are treated as vibrations and this may
      cause some error
  (4) All equations used are the standard statistical mechanics
      equations for an ideal gas
  (5) All vibrations are strictly harmonic

freq.     116.28  E(vib)   ...       0.44 
freq.     155.89  E(vib)   ...       0.40 
freq.     198.69  E(vib)   ...       0.35 
freq.     222.34  E(vib)   ...       0.33 
freq.     272.98  E(vib)   ...       0.29 
freq.     306.48  E(vib)   ...       0.26 
freq.     319.05  E(vib)   ...       0.25 
freq.     426.36  E(vib)   ...       0.18 
freq.     460.47  E(vib)   ...       0.16 
freq.     477.33  E(vib)   ...       0.15 
freq.     530.61  E(vib)   ...       0.13 
freq.     625.28  E(vib)   ...       0.09 
freq.     807.05  E(vib)   ...       0.05 
freq.     884.55  E(vib)   ...       0.04 
freq.     917.81  E(vib)   ...       0.03 
freq.     943.12  E(vib)   ...       0.03 
freq.    1010.91  E(vib)   ...       0.02 
freq.    1044.59  E(vib)   ...       0.02 
freq.    1071.18  E(vib)   ...       0.02 
freq.    1125.65  E(vib)   ...       0.01 
freq.    1128.26  E(vib)   ...       0.01 
freq.    1139.35  E(vib)   ...       0.01 
freq.    1142.06  E(vib)   ...       0.01 
freq.    1162.49  E(vib)   ...       0.01 
freq.    1206.30  E(vib)   ...       0.01 
freq.    1237.24  E(vib)   ...       0.01 
freq.    1275.80  E(vib)   ...       0.01 
freq.    1282.89  E(vib)   ...       0.01 
freq.    1339.58  E(vib)   ...       0.01 
freq.    1353.90  E(vib)   ...       0.01 
freq.    1405.61  E(vib)   ...       0.00 
freq.    1417.63  E(vib)   ...       0.00 
freq.    1428.76  E(vib)   ...       0.00 
freq.    1445.74  E(vib)   ...       0.00 
freq.    1446.25  E(vib)   ...       0.00 
freq.    1449.31  E(vib)   ...       0.00 
freq.    1450.10  E(vib)   ...       0.00 
freq.    1458.15  E(vib)   ...       0.00 
freq.    1464.92  E(vib)   ...       0.00 
freq.    1466.06  E(vib)   ...       0.00 
freq.    1475.93  E(vib)   ...       0.00 
freq.    1489.37  E(vib)   ...       0.00 
freq.    1588.56  E(vib)   ...       0.00 
freq.    1798.76  E(vib)   ...       0.00 
freq.    3078.87  E(vib)   ...       0.00 
freq.    3079.90  E(vib)   ...       0.00 
freq.    3088.78  E(vib)   ...       0.00 
freq.    3091.54  E(vib)   ...       0.00 
freq.    3103.75  E(vib)   ...       0.00 
freq.    3167.53  E(vib)   ...       0.00 
freq.    3168.61  E(vib)   ...       0.00 
freq.    3182.20  E(vib)   ...       0.00 
freq.    3182.47  E(vib)   ...       0.00 
freq.    3183.21  E(vib)   ...       0.00 
freq.    3217.76  E(vib)   ...       0.00 
freq.    3217.78  E(vib)   ...       0.00 
freq.    3240.46  E(vib)   ...       0.00 

------------
INNER ENERGY
------------

The inner energy is: U= E(el) + E(ZPE) + E(vib) + E(rot) + E(trans)
    E(el)   - is the total energy from the electronic structure calculation
              = E(kin-el) + E(nuc-el) + E(el-el) + E(nuc-nuc)
    E(ZPE)  - the the zero temperature vibrational energy from the frequency calculation
    E(vib)  - the the finite temperature correction to E(ZPE) due to population
              of excited vibrational states
    E(rot)  - is the rotational thermal energy
    E(trans)- is the translational thermal energy

Summary of contributions to the inner energy U:
Electronic energy                ...   -345.50844026 Eh
Zero point energy                ...      0.19585972 Eh     122.90 kcal/mol
Thermal vibrational correction   ...      0.00540311 Eh       3.39 kcal/mol
Thermal rotational correction    ...      0.00141627 Eh       0.89 kcal/mol
Thermal translational correction ...      0.00141627 Eh       0.89 kcal/mol
-----------------------------------------------------------------------
Total thermal energy                   -345.30434489 Eh


Summary of corrections to the electronic energy:
(perhaps to be used in another calculation)
Total thermal correction                  0.00823565 Eh       5.17 kcal/mol
Non-thermal (ZPE) correction              0.19585972 Eh     122.90 kcal/mol
-----------------------------------------------------------------------
Total correction                          0.20409537 Eh     128.07 kcal/mol


--------
ENTHALPY
--------

The enthalpy is H = U + kB*T
                kB is Boltzmann's constant
Total free energy                 ...   -345.30434489 Eh 
Thermal Enthalpy correction       ...      0.00094421 Eh       0.59 kcal/mol
-----------------------------------------------------------------------
Total Enthalpy                    ...   -345.30340068 Eh


Note: Rotational entropy computed according to Herzberg 
Infrared and Raman Spectra, Chapter V,1, Van Nostrand Reinhold, 1945 
Point Group:  Cs, Symmetry Number:   1  
Rotational constants in cm-1:     0.107501     0.059056     0.040189 

Vibrational entropy computed according to the QRRHO of S. Grimme
Chem.Eur.J. 2012 18 9955


-------
ENTROPY
-------

The entropy contributions are T*S = T*(S(el)+S(vib)+S(rot)+S(trans))
     S(el)   - electronic entropy
     S(vib)  - vibrational entropy
     S(rot)  - rotational entropy
     S(trans)- translational entropy
The entropies will be listed as multiplied by the temperature to get
units of energy

Electronic entropy                ...      0.00000000 Eh      0.00 kcal/mol
Vibrational entropy               ...      0.00891892 Eh      5.60 kcal/mol
Rotational entropy                ...      0.01341674 Eh      8.42 kcal/mol
Translational entropy             ...      0.01904664 Eh     11.95 kcal/mol
-----------------------------------------------------------------------
Final entropy term                ...      0.04138230 Eh     25.97 kcal/mol

In case the symmetry of your molecule has not been determined correctly
or in case you have a reason to use a different symmetry number we print 
out the resulting rotational entropy values for sn=1,12 :
 --------------------------------------------------------
|  sn= 1 | S(rot)=       0.01341674 Eh      8.42 kcal/mol|
|  sn= 2 | S(rot)=       0.01276228 Eh      8.01 kcal/mol|
|  sn= 3 | S(rot)=       0.01237945 Eh      7.77 kcal/mol|
|  sn= 4 | S(rot)=       0.01210783 Eh      7.60 kcal/mol|
|  sn= 5 | S(rot)=       0.01189714 Eh      7.47 kcal/mol|
|  sn= 6 | S(rot)=       0.01172500 Eh      7.36 kcal/mol|
|  sn= 7 | S(rot)=       0.01157945 Eh      7.27 kcal/mol|
|  sn= 8 | S(rot)=       0.01145337 Eh      7.19 kcal/mol|
|  sn= 9 | S(rot)=       0.01134216 Eh      7.12 kcal/mol|
|  sn=10 | S(rot)=       0.01124268 Eh      7.05 kcal/mol|
|  sn=11 | S(rot)=       0.01115269 Eh      7.00 kcal/mol|
|  sn=12 | S(rot)=       0.01107054 Eh      6.95 kcal/mol|
 --------------------------------------------------------


-------------------
GIBBS FREE ENERGY
-------------------

The Gibbs free energy is G = H - T*S

Total enthalpy                    ...   -345.30340068 Eh 
Total entropy correction          ...     -0.04138230 Eh    -25.97 kcal/mol
-----------------------------------------------------------------------
Final Gibbs free energy         ...   -345.34478298 Eh

For completeness - the Gibbs free energy minus the electronic energy
G-E(el)                           ...      0.16365728 Eh    102.70 kcal/mol


Timings for individual modules:

Sum of individual times         ...      454.955 sec (=   7.583 min)
GTO integral calculation        ...        5.426 sec (=   0.090 min)   1.2 %
SCF iterations                  ...      180.647 sec (=   3.011 min)  39.7 %
SCF Gradient evaluation         ...       49.071 sec (=   0.818 min)  10.8 %
Geometry relaxation             ...        0.244 sec (=   0.004 min)   0.1 %
Analytical frequency calculation...      219.568 sec (=   3.659 min)  48.3 %
                             ****ORCA TERMINATED NORMALLY****
TOTAL RUN TIME: 0 days 0 hours 7 minutes 37 seconds 75 msec
