
                                 *****************
                                 * O   R   C   A *
                                 *****************

                                            #,                                       
                                            ###                                      
                                            ####                                     
                                            #####                                    
                                            ######                                   
                                           ########,                                 
                                     ,,################,,,,,                         
                               ,,#################################,,                 
                          ,,##########################################,,             
                       ,#########################################, ''#####,          
                    ,#############################################,,   '####,        
                  ,##################################################,,,,####,       
                ,###########''''           ''''###############################       
              ,#####''   ,,,,##########,,,,          '''####'''          '####       
            ,##' ,,,,###########################,,,                        '##       
           ' ,,###''''                  '''############,,,                           
         ,,##''                                '''############,,,,        ,,,,,,###''
      ,#''                                            '''#######################'''  
     '                                                          ''''####''''         
             ,#######,   #######,   ,#######,      ##                                
            ,#'     '#,  ##    ##  ,#'     '#,    #''#        ######   ,####,        
            ##       ##  ##   ,#'  ##            #'  '#       #        #'  '#        
            ##       ##  #######   ##           ,######,      #####,   #    #        
            '#,     ,#'  ##    ##  '#,     ,#' ,#      #,         ##   #,  ,#        
             '#######'   ##     ##  '#######'  #'      '#     #####' # '####'        



                  #######################################################
                  #                        -***-                        #
                  #          Department of theory and spectroscopy      #
                  #    Directorship and core code : Frank Neese         #
                  #        Max Planck Institute fuer Kohlenforschung    #
                  #                Kaiser Wilhelm Platz 1               #
                  #                 D-45470 Muelheim/Ruhr               #
                  #                      Germany                        #
                  #                                                     #
                  #                  All rights reserved                #
                  #                        -***-                        #
                  #######################################################


                         Program Version 5.0.4 -  RELEASE  -


 With contributions from (in alphabetic order):
   Daniel Aravena         : Magnetic Suceptibility
   Michael Atanasov       : Ab Initio Ligand Field Theory (pilot matlab implementation)
   Alexander A. Auer      : GIAO ZORA, VPT2 properties, NMR spectrum
   Ute Becker             : Parallelization
   Giovanni Bistoni       : ED, misc. LED, open-shell LED, HFLD
   Martin Brehm           : Molecular dynamics
   Dmytro Bykov           : SCF Hessian
   Vijay G. Chilkuri      : MRCI spin determinant printing, contributions to CSF-ICE
   Dipayan Datta          : RHF DLPNO-CCSD density
   Achintya Kumar Dutta   : EOM-CC, STEOM-CC
   Dmitry Ganyushin       : Spin-Orbit,Spin-Spin,Magnetic field MRCI
   Miquel Garcia          : C-PCM and meta-GGA Hessian, CC/C-PCM, Gaussian charge scheme
   Yang Guo               : DLPNO-NEVPT2, F12-NEVPT2, CIM, IAO-localization
   Andreas Hansen         : Spin unrestricted coupled pair/coupled cluster methods
   Benjamin Helmich-Paris : MC-RPA, TRAH-SCF, COSX integrals
   Lee Huntington         : MR-EOM, pCC
   Robert Izsak           : Overlap fitted RIJCOSX, COSX-SCS-MP3, EOM
   Marcus Kettner         : VPT2
   Christian Kollmar      : KDIIS, OOCD, Brueckner-CCSD(T), CCSD density, CASPT2, CASPT2-K
   Simone Kossmann        : Meta GGA functionals, TD-DFT gradient, OOMP2, MP2 Hessian
   Martin Krupicka        : Initial AUTO-CI
   Lucas Lang             : DCDCAS
   Marvin Lechner         : AUTO-CI (C++ implementation), FIC-MRCC
   Dagmar Lenk            : GEPOL surface, SMD
   Dimitrios Liakos       : Extrapolation schemes; Compound Job, initial MDCI parallelization
   Dimitrios Manganas     : Further ROCIS development; embedding schemes
   Dimitrios Pantazis     : SARC Basis sets
   Anastasios Papadopoulos: AUTO-CI, single reference methods and gradients
   Taras Petrenko         : DFT Hessian,TD-DFT gradient, ASA, ECA, R-Raman, ABS, FL, XAS/XES, NRVS
   Peter Pinski           : DLPNO-MP2, DLPNO-MP2 Gradient
   Christoph Reimann      : Effective Core Potentials
   Marius Retegan         : Local ZFS, SOC
   Christoph Riplinger    : Optimizer, TS searches, QM/MM, DLPNO-CCSD(T), (RO)-DLPNO pert. Triples
   Tobias Risthaus        : Range-separated hybrids, TD-DFT gradient, RPA, STAB
   Michael Roemelt        : Original ROCIS implementation
   Masaaki Saitow         : Open-shell DLPNO-CCSD energy and density
   Barbara Sandhoefer     : DKH picture change effects
   Avijit Sen             : IP-ROCIS
   Kantharuban Sivalingam : CASSCF convergence, NEVPT2, FIC-MRCI
   Bernardo de Souza      : ESD, SOC TD-DFT
   Georgi Stoychev        : AutoAux, RI-MP2 NMR, DLPNO-MP2 response
   Willem Van den Heuvel  : Paramagnetic NMR
   Boris Wezisla          : Elementary symmetry handling
   Frank Wennmohs         : Technical directorship


 We gratefully acknowledge several colleagues who have allowed us to
 interface, adapt or use parts of their codes:
   Stefan Grimme, W. Hujo, H. Kruse, P. Pracht,  : VdW corrections, initial TS optimization,
                  C. Bannwarth, S. Ehlert          DFT functionals, gCP, sTDA/sTD-DF
   Ed Valeev, F. Pavosevic, A. Kumar             : LibInt (2-el integral package), F12 methods
   Garnet Chan, S. Sharma, J. Yang, R. Olivares  : DMRG
   Ulf Ekstrom                                   : XCFun DFT Library
   Mihaly Kallay                                 : mrcc  (arbitrary order and MRCC methods)
   Jiri Pittner, Ondrej Demel                    : Mk-CCSD
   Frank Weinhold                                : gennbo (NPA and NBO analysis)
   Christopher J. Cramer and Donald G. Truhlar   : smd solvation model
   Lars Goerigk                                  : TD-DFT with DH, B97 family of functionals
   V. Asgeirsson, H. Jonsson                     : NEB implementation
   FAccTs GmbH                                   : IRC, NEB, NEB-TS, DLPNO-Multilevel, CI-OPT
                                                   MM, QMMM, 2- and 3-layer-ONIOM, Crystal-QMMM,
                                                   LR-CPCM, SF, NACMEs, symmetry and pop. for TD-DFT,
                                                   nearIR, NL-DFT gradient (VV10), updates on ESD,
                                                   ML-optimized integration grids
   S Lehtola, MJT Oliveira, MAL Marques          : LibXC Library
   Liviu Ungur et al                             : ANISO software


 Your calculation uses the libint2 library for the computation of 2-el integrals
 For citations please refer to: http://libint.valeyev.net

 Your ORCA version has been built with support for libXC version: 5.1.0
 For citations please refer to: https://tddft.org/programs/libxc/

 This ORCA versions uses:
   CBLAS   interface :  Fast vector & matrix operations
   LAPACKE interface :  Fast linear algebra routines
   SCALAPACK package :  Parallel linear algebra routines
   Shared memory     :  Shared parallel matrices
   BLAS/LAPACK       :  OpenBLAS 0.3.15  USE64BITINT DYNAMIC_ARCH NO_AFFINITY SkylakeX SINGLE_THREADED
        Core in use  :  SkylakeX
   Copyright (c) 2011-2014, The OpenBLAS Project




***************************************
The coordinates will be read from file: butylamine.xyz
***************************************


Your calculation utilizes the atom-pairwise dispersion correction
based on tight binding partial charges (D4)
Cite in your paper:
E.Caldeweyher, C.Bannwarth, S.Grimme, J.Chem.Phys., (2017), 147, 034112.
E.Caldeweyher, S.Ehlert, A.Hansen, H.Neugebauer, S.Grimme, J.Chem.Phys., (2018), in progress.
   

XCFun DFT library Copyright 2009-2010 Ulf Ekstrom and contributors.
See http://admol.org/xcfun for more information.
This is free software; see the source code for copying conditions.
There is ABSOLUTELY NO WARRANTY; not even for MERCHANTABILITY or FITNESS FOR A PARTICULAR PURPOSE.
For details see the documentation.
Scientific users of this library should cite U. Ekstrom, L. Visscher, R. Bast, A. J. Thorvaldsen and K. Ruud;
J.Chem.Theor.Comp. 2010, DOI: 10.1021/ct100117s
XCFun Version 0.99 

================================================================================

----- Orbital basis set information -----
Your calculation utilizes the basis: def2-TZVP
   F. Weigend and R. Ahlrichs, Phys. Chem. Chem. Phys. 7, 3297 (2005).

----- AuxJ basis set information -----
Your calculation utilizes the auxiliary basis: def2/J
   F. Weigend, Phys. Chem. Chem. Phys. 8, 1057 (2006).

================================================================================
                                        WARNINGS
                       Please study these warnings very carefully!
================================================================================


WARNING: Geometry Optimization
  ===> : Switching off AutoStart
         For restart on a previous wavefunction, please use MOREAD

INFO   : the flag for use of the SHARK integral package has been found!

================================================================================
                                       INPUT FILE
================================================================================
NAME = butylamine.inp
|  1> # ORCA 5.0.4 - /users/bwb16179/postgrad/2024_06/pKa_Reviewer_Comments/Gas_Z=1/4_prot.inp # write input file
|  2> # Basic Mode
|  3> #
|  4> ! Opt Freq wB97X Def2-TZVP D4 SlowConv TightSCF Defgrid2 Def2/J RIJCOSX CPCM(Water)
|  5> 
|  6> %PAL NPROCS 16 END
|  7> 
|  8> %maxcore 4500
|  9> 
| 10> %geom
| 11> Maxiter 150
| 12> END
| 13> 
| 14> * xyzfile 1 1 butylamine.xyz
| 15> 
| 16>                          ****END OF INPUT****
================================================================================

                       *****************************
                       * Geometry Optimization Run *
                       *****************************

Geometry optimization settings:
Update method            Update   .... BFGS
Choice of coordinates    CoordSys .... Z-matrix Internals
Initial Hessian          InHess   .... Almoef's Model

Convergence Tolerances:
Energy Change            TolE     ....  5.0000e-06 Eh
Max. Gradient            TolMAXG  ....  3.0000e-04 Eh/bohr
RMS Gradient             TolRMSG  ....  1.0000e-04 Eh/bohr
Max. Displacement        TolMAXD  ....  4.0000e-03 bohr
RMS Displacement         TolRMSD  ....  2.0000e-03 bohr
Strict Convergence                ....  False
------------------------------------------------------------------------------
                        ORCA OPTIMIZATION COORDINATE SETUP
------------------------------------------------------------------------------

The optimization will be done in new redundant internal coordinates
Making redundant internal coordinates   ...  (new redundants) done
Evaluating the initial hessian          ...  (Almloef) done
Evaluating the coordinates              ...  done
Calculating the B-matrix                .... done
Calculating the G-matrix                .... done
Diagonalizing the G-matrix              .... done
Small eigenvalue found = 2.404e-02
The first mode is                       ....   37
The number of degrees of freedom        ....   45

    -----------------------------------------------------------------
                    Redundant Internal Coordinates


    -----------------------------------------------------------------
         Definition                    Initial Value    Approx d2E/dq
    -----------------------------------------------------------------
      1. B(C   1,C   0)                  1.5259         0.379190   
      2. B(H   2,C   0)                  1.1104         0.334107   
      3. B(H   3,C   0)                  1.1109         0.333479   
      4. B(H   4,C   0)                  1.1109         0.333491   
      5. B(C   5,C   1)                  1.5329         0.369599   
      6. B(H   6,C   1)                  1.1119         0.332240   
      7. B(H   7,C   1)                  1.1119         0.332225   
      8. B(C   8,C   5)                  1.5344         0.367594   
      9. B(H   9,C   5)                  1.1123         0.331810   
     10. B(H  10,C   5)                  1.1123         0.331811   
     11. B(N  11,C   8)                  1.4625         0.428683   
     12. B(H  12,C   8)                  1.1129         0.331009   
     13. B(H  13,C   8)                  1.1129         0.331021   
     14. B(H  14,N  11)                  1.0460         0.379138   
     15. B(H  15,N  11)                  1.0456         0.379679   
     16. B(H  16,N  11)                  1.0460         0.379124   
     17. A(H   3,C   0,H   4)          109.1896         0.283944   
     18. A(C   1,C   0,H   4)          110.3418         0.321048   
     19. A(C   1,C   0,H   2)          109.5892         0.321145   
     20. A(H   2,C   0,H   4)          108.6702         0.284027   
     21. A(H   2,C   0,H   3)          108.6694         0.284026   
     22. A(C   1,C   0,H   3)          110.3409         0.321046   
     23. A(C   0,C   1,C   5)          111.1646         0.363614   
     24. A(H   6,C   1,H   7)          108.7188         0.283612   
     25. A(C   5,C   1,H   7)          109.6407         0.319508   
     26. A(C   0,C   1,H   7)          108.8150         0.320848   
     27. A(C   5,C   1,H   6)          109.6411         0.319510   
     28. A(C   0,C   1,H   6)          108.8157         0.320850   
     29. A(C   1,C   5,H   9)          109.3275         0.319442   
     30. A(C   1,C   5,C   8)          111.0316         0.361690   
     31. A(C   8,C   5,H   9)          109.1818         0.319159   
     32. A(H   9,C   5,H  10)          108.7547         0.283501   
     33. A(C   8,C   5,H  10)          109.1823         0.319159   
     34. A(C   1,C   5,H  10)          109.3270         0.319443   
     35. A(H  12,C   8,H  13)          108.3970         0.283289   
     36. A(N  11,C   8,H  13)          109.2045         0.325220   
     37. A(C   5,C   8,H  13)          109.5228         0.319035   
     38. A(N  11,C   8,H  12)          109.2040         0.325218   
     39. A(C   5,C   8,H  12)          109.5219         0.319033   
     40. A(C   5,C   8,N  11)          110.9465         0.368678   
     41. A(H  15,N  11,H  16)          108.8685         0.290878   
     42. A(H  14,N  11,H  16)          109.7194         0.290813   
     43. A(C   8,N  11,H  16)          110.1172         0.329749   
     44. A(H  14,N  11,H  15)          108.8692         0.290880   
     45. A(C   8,N  11,H  15)          109.1190         0.329828   
     46. A(C   8,N  11,H  14)          110.1177         0.329751   
     47. D(H   6,C   1,C   0,H   4)    178.7805         0.011462   
     48. D(H   7,C   1,C   0,H   4)     60.4683         0.011462   
     49. D(H   7,C   1,C   0,H   3)   -178.7804         0.011462   
     50. D(H   6,C   1,C   0,H   2)     59.1554         0.011462   
     51. D(C   5,C   1,C   0,H   4)    -60.3751         0.011462   
     52. D(H   6,C   1,C   0,H   3)    -60.4682         0.011462   
     53. D(C   5,C   1,C   0,H   3)     60.3762         0.011462   
     54. D(C   5,C   1,C   0,H   2)    179.9998         0.011462   
     55. D(H   7,C   1,C   0,H   2)    -59.1568         0.011462   
     56. D(H   9,C   5,C   1,H   6)    179.8332         0.010922   
     57. D(C   8,C   5,C   1,H   7)     59.6429         0.010922   
     58. D(C   8,C   5,C   1,H   6)    -59.6431         0.010922   
     59. D(C   8,C   5,C   1,C   0)    179.9993         0.010922   
     60. D(H   9,C   5,C   1,H   7)    -60.8808         0.010922   
     61. D(H  10,C   5,C   1,H   7)   -179.8329         0.010922   
     62. D(H  10,C   5,C   1,H   6)     60.8811         0.010922   
     63. D(H  10,C   5,C   1,C   0)    -59.4765         0.010922   
     64. D(H   9,C   5,C   1,C   0)     59.4756         0.010922   
     65. D(H  13,C   8,C   5,H   9)     61.2350         0.010811   
     66. D(H  13,C   8,C   5,C   1)    -59.3749         0.010811   
     67. D(H  12,C   8,C   5,H  10)    -61.2348         0.010811   
     68. D(H  12,C   8,C   5,H   9)    179.9849         0.010811   
     69. D(H  12,C   8,C   5,C   1)     59.3749         0.010811   
     70. D(N  11,C   8,C   5,H  10)     59.3897         0.010811   
     71. D(N  11,C   8,C   5,H   9)    -59.3906         0.010811   
     72. D(H  13,C   8,C   5,H  10)   -179.9846         0.010811   
     73. D(N  11,C   8,C   5,C   1)    179.9994         0.010811   
     74. D(H  15,N  11,C   8,C   5)   -179.9999         0.016788   
     75. D(H  14,N  11,C   8,H  13)    178.6258         0.016788   
     76. D(H  14,N  11,C   8,H  12)     60.2524         0.016788   
     77. D(H  14,N  11,C   8,C   5)    -60.5602         0.016788   
     78. D(H  16,N  11,C   8,H  13)    -60.2526         0.016788   
     79. D(H  16,N  11,C   8,H  12)   -178.6260         0.016788   
     80. D(H  16,N  11,C   8,C   5)     60.5614         0.016788   
     81. D(H  15,N  11,C   8,H  13)     59.1861         0.016788   
     82. D(H  15,N  11,C   8,H  12)    -59.1874         0.016788   
    -----------------------------------------------------------------

Number of atoms                         .... 17
Number of degrees of freedom            .... 82

         *************************************************************
         *                GEOMETRY OPTIMIZATION CYCLE   1            *
         *************************************************************
---------------------------------
CARTESIAN COORDINATES (ANGSTROEM)
---------------------------------
  C     -3.910850    0.949360   -0.046960
  C     -2.716600    0.002930    0.033820
  H     -4.852750    0.369320    0.049750
  H     -3.918230    1.479320   -1.023280
  H     -3.867550    1.696680    0.773850
  C     -1.394500    0.767800   -0.095970
  H     -2.796790   -0.746260   -0.783890
  H     -2.746210   -0.529340    1.009630
  C     -0.195850   -0.186630   -0.014330
  H     -1.321080    1.517530    0.722360
  H     -1.371690    1.300490   -1.072120
  N      1.064460    0.544990   -0.138370
  H     -0.263840   -0.939760   -0.830900
  H     -0.213310   -0.723080    0.960610
  H      1.105980    1.036250   -1.060870
  H      1.860050   -0.130860   -0.079060
  H      1.153860    1.241580    0.636780

----------------------------
CARTESIAN COORDINATES (A.U.)
----------------------------
  NO LB      ZA    FRAG     MASS         X           Y           Z
   0 C     6.0000    0    12.011   -7.390435    1.794030   -0.088742
   1 C     6.0000    0    12.011   -5.133630    0.005537    0.063911
   2 H     1.0000    0     1.008   -9.170368    0.697914    0.094014
   3 H     1.0000    0     1.008   -7.404382    2.795510   -1.933719
   4 H     1.0000    0     1.008   -7.308610    3.206261    1.462365
   5 C     6.0000    0    12.011   -2.635223    1.450932   -0.181357
   6 H     1.0000    0     1.008   -5.285167   -1.410227   -1.481337
   7 H     1.0000    0     1.008   -5.189585   -1.000308    1.907924
   8 C     6.0000    0    12.011   -0.370103   -0.352680   -0.027080
   9 H     1.0000    0     1.008   -2.496479    2.867716    1.365063
  10 H     1.0000    0     1.008   -2.592118    2.457570   -2.026013
  11 N     7.0000    0    14.007    2.011538    1.029882   -0.261481
  12 H     1.0000    0     1.008   -0.498585   -1.775889   -1.570173
  13 H     1.0000    0     1.008   -0.403097   -1.366423    1.815290
  14 H     1.0000    0     1.008    2.089999    1.958229   -2.004754
  15 H     1.0000    0     1.008    3.514985   -0.247290   -0.149402
  16 H     1.0000    0     1.008    2.180479    2.346246    1.203340

--------------------------------
INTERNAL COORDINATES (ANGSTROEM)
--------------------------------
 C      0   0   0     0.000000000000     0.00000000     0.00000000
 C      1   0   0     1.525938470516     0.00000000     0.00000000
 H      1   2   0     1.110394000209   109.58915363     0.00000000
 H      1   2   3     1.110906300459   110.34087976   240.37642245
 H      1   2   3     1.110896542663   110.34176109   119.62509271
 C      2   1   3     1.532912251566   111.16455672   179.99978072
 H      2   1   3     1.111919842570   108.81567173    59.15536206
 H      2   1   3     1.111932219652   108.81495908   300.84316373
 C      6   2   1     1.534393540458   111.03158395   179.99934202
 H      6   2   1     1.112272250036   109.32746349    59.47557840
 H      6   2   1     1.112271439308   109.32700427   300.52351124
 N      9   6   2     1.462544030824   110.94651345   179.99942273
 H      9   6   2     1.112930367049   109.52192218    59.37494098
 H      9   6   2     1.112920238696   109.52284639   300.62510849
 H     12   9   6     1.045976361110   110.11773504   299.43982712
 H     12   9   6     1.045588038713   109.11903968   180.00006653
 H     12   9   6     1.045986381651   110.11716189    60.56143764

---------------------------
INTERNAL COORDINATES (A.U.)
---------------------------
 C      0   0   0     0.000000000000     0.00000000     0.00000000
 C      1   0   0     2.883605806489     0.00000000     0.00000000
 H      1   2   0     2.098340561144   109.58915363     0.00000000
 H      1   2   3     2.099308668316   110.34087976   240.37642245
 H      1   2   3     2.099290228753   110.34176109   119.62509271
 C      2   1   3     2.896784342792   111.16455672   179.99978072
 H      2   1   3     2.101223985329   108.81567173    59.15536206
 H      2   1   3     2.101247374625   108.81495908   300.84316373
 C      6   2   1     2.899583573124   111.03158395   179.99934202
 H      6   2   1     2.101889938928   109.32746349    59.47557840
 H      6   2   1     2.101888406874   109.32700427   300.52351124
 N      9   6   2     2.763807677059   110.94651345   179.99942273
 H      9   6   2     2.103133599847   109.52192218    59.37494098
 H      9   6   2     2.103114460034   109.52284639   300.62510849
 H     12   9   6     1.976608865053   110.11773504   299.43982712
 H     12   9   6     1.975875042072   109.11903968   180.00006653
 H     12   9   6     1.976627801132   110.11716189    60.56143764

---------------------
BASIS SET INFORMATION
---------------------
There are 3 groups of distinct atoms

 Group   1 Type C   : 11s6p2d1f contracted to 5s3p2d1f pattern {62111/411/11/1}
 Group   2 Type H   : 5s1p contracted to 3s1p pattern {311/1}
 Group   3 Type N   : 11s6p2d1f contracted to 5s3p2d1f pattern {62111/411/11/1}

Atom   0C    basis set group =>   1
Atom   1C    basis set group =>   1
Atom   2H    basis set group =>   2
Atom   3H    basis set group =>   2
Atom   4H    basis set group =>   2
Atom   5C    basis set group =>   1
Atom   6H    basis set group =>   2
Atom   7H    basis set group =>   2
Atom   8C    basis set group =>   1
Atom   9H    basis set group =>   2
Atom  10H    basis set group =>   2
Atom  11N    basis set group =>   3
Atom  12H    basis set group =>   2
Atom  13H    basis set group =>   2
Atom  14H    basis set group =>   2
Atom  15H    basis set group =>   2
Atom  16H    basis set group =>   2
---------------------------------
AUXILIARY/J BASIS SET INFORMATION
---------------------------------
There are 3 groups of distinct atoms

 Group   1 Type C   : 12s5p4d2f1g contracted to 6s4p3d1f1g pattern {711111/2111/211/2/1}
 Group   2 Type H   : 5s2p1d contracted to 3s1p1d pattern {311/2/1}
 Group   3 Type N   : 12s5p4d2f1g contracted to 6s4p3d1f1g pattern {711111/2111/211/2/1}

Atom   0C    basis set group =>   1
Atom   1C    basis set group =>   1
Atom   2H    basis set group =>   2
Atom   3H    basis set group =>   2
Atom   4H    basis set group =>   2
Atom   5C    basis set group =>   1
Atom   6H    basis set group =>   2
Atom   7H    basis set group =>   2
Atom   8C    basis set group =>   1
Atom   9H    basis set group =>   2
Atom  10H    basis set group =>   2
Atom  11N    basis set group =>   3
Atom  12H    basis set group =>   2
Atom  13H    basis set group =>   2
Atom  14H    basis set group =>   2
Atom  15H    basis set group =>   2
Atom  16H    basis set group =>   2


           ************************************************************
           *        Program running with 16 parallel MPI-processes    *
           *              working on a common directory               *
           ************************************************************
------------------------------------------------------------------------------
                           ORCA GTO INTEGRAL CALCULATION
                           -- RI-GTO INTEGRALS CHOSEN --
------------------------------------------------------------------------------
------------------------------------------------------------------------------
                   ___                                                        
                  /   \      - P O W E R E D   B Y -                         
                 /     \                                                     
                 |  |  |   _    _      __       _____    __    __             
                 |  |  |  | |  | |    /  \     |  _  \  |  |  /  |          
                  \  \/   | |  | |   /    \    | | | |  |  | /  /          
                 / \  \   | |__| |  /  /\  \   | |_| |  |  |/  /          
                |  |  |   |  __  | /  /__\  \  |    /   |      \           
                |  |  |   | |  | | |   __   |  |    \   |  |\   \          
                \     /   | |  | | |  |  |  |  | |\  \  |  | \   \       
                 \___/    |_|  |_| |__|  |__|  |_| \__\ |__|  \__/        
                                                                              
                      - O R C A' S   B I G   F R I E N D -                    
                                      &                                       
                       - I N T E G R A L  F E E D E R -                       
                                                                              
 v1 FN, 2020, v2 2021                                                         
------------------------------------------------------------------------------


Reading SHARK input file butylamine.SHARKINP.tmp ... ok
----------------------
SHARK INTEGRAL PACKAGE
----------------------

Number of atoms                             ...     17
Number of basis functions                   ...    227
Number of shells                            ...    103
Maximum angular momentum                    ...      3
Integral batch strategy                     ... SHARK/LIBINT Hybrid
RI-J (if used) integral strategy            ... SPLIT-RIJ (Revised 2003 algorithm where possible)
Printlevel                                  ...      1
Contraction scheme used                     ... SEGMENTED contraction
Coulomb Range Separation                    ... NOT USED
Exchange Range Separation                   ... Long Range
   Mu parameter                             ...  0.300000
   Scaling (regular/separated)              ...  0.157706  0.842294
Finite Nucleus Model                        ... NOT USED
Auxiliary Coulomb fitting basis             ... AVAILABLE
   # of basis functions in Aux-J            ...    377
   # of shells in Aux-J                     ...    135
   Maximum angular momentum in Aux-J        ...      4
Auxiliary J/K fitting basis                 ... NOT available
Auxiliary Correlation fitting basis         ... NOT available
Auxiliary 'external' fitting basis          ... NOT available
Integral threshold                          ...     2.500000e-11
Primitive cut-off                           ...     2.500000e-12
Primitive pair pre-selection threshold      ...     2.500000e-12

Calculating pre-screening integrals         ... done (  0.1 sec) Dimension = 103
Organizing shell pair data                  ... done (  0.0 sec)
Shell pair information
Total number of shell pairs                 ...      5356
Shell pairs after pre-screening             ...      4961
Total number of primitive shell pairs       ...     15024
Primitive shell pairs kept                  ...     11064
          la=0 lb=0:   1743 shell pairs
          la=1 lb=0:   1516 shell pairs
          la=1 lb=1:    352 shell pairs
          la=2 lb=0:    571 shell pairs
          la=2 lb=1:    257 shell pairs
          la=2 lb=2:     53 shell pairs
          la=3 lb=0:    280 shell pairs
          la=3 lb=1:    127 shell pairs
          la=3 lb=2:     48 shell pairs
          la=3 lb=3:     14 shell pairs

Calculating one electron integrals          ... done (  0.0 sec)
Calculating RI/J V-Matrix + Cholesky decomp.... done (  0.0 sec)
Calculating Nuclear repulsion               ... done (  0.0 sec) ENN=    194.639803567766 Eh

SHARK setup successfully completed in   0.3 seconds

Maximum memory used throughout the entire GTOINT-calculation: 18.3 MB


           ************************************************************
           *        Program running with 16 parallel MPI-processes    *
           *              working on a common directory               *
           ************************************************************
-------------------------------------------------------------------------------
                                 ORCA SCF
-------------------------------------------------------------------------------

------------
SCF SETTINGS
------------
Hamiltonian:
 Density Functional     Method          .... DFT(GTOs)
 Exchange Functional    Exchange        .... WB97X
 Correlation Functional Correlation     .... WB97X
 Gradients option       PostSCFGGA      .... off
 Hybrid DFT is turned on
   Fraction HF Exchange ScalHFX         ....  0.157706
   Scaling of DF-GGA-X  ScalDFX         ....  0.000000
   Scaling of DF-GGA-C  ScalDFC         ....  1.000000
   Scaling of DF-LDA-C  ScalLDAC        ....  1.000000
   Perturbative correction              ....  0.000000
   Density functional embedding theory  .... OFF
 Long-range corrected/Screened/Range-Separated Hybrid DFT is turned on
   Amount of maximum screened exact exchange              ....  0.842294
   Range separation parameter mu (erf(mu*r12)/r12)        ....  0.300000
 RI-approximation to the Coulomb term is turned on
   Number of AuxJ basis functions       .... 377
   RIJ-COSX (HFX calculated with COS-X)).... on


General Settings:
 Integral files         IntName         .... butylamine
 Hartree-Fock type      HFTyp           .... RHF
 Total Charge           Charge          ....    1
 Multiplicity           Mult            ....    1
 Number of Electrons    NEL             ....   42
 Basis Dimension        Dim             ....  227
 Nuclear Repulsion      ENuc            ....    194.6398035678 Eh

Convergence Acceleration:
 DIIS                   CNVDIIS         .... on
   Start iteration      DIISMaxIt       ....     0
   Startup error        DIISStart       ....  0.200000
   # of expansion vecs  DIISMaxEq       ....     5
   Bias factor          DIISBfac        ....   1.050
   Max. coefficient     DIISMaxC        ....  10.000
 Trust-Rad. Augm. Hess. CNVTRAH         .... auto
   Auto Start mean grad. ratio tolernc. ....  1.125000
   Auto Start start iteration           ....    20
   Auto Start num. interpolation iter.  ....    10
   Max. Number of Micro iterations      ....    16
   Max. Number of Macro iterations      .... Maxiter - #DIIS iter
   Number of Davidson start vectors     ....     2
   Converg. threshold I  (grad. norm)   ....   1.000e-05
   Converg. threshold II (energy diff.) ....   1.000e-08
   Grad. Scal. Fac. for Micro threshold ....   0.100
   Minimum threshold for Micro iter.    ....   0.010
   NR start threshold (gradient norm)   ....   0.001
   Initial trust radius                 ....   0.400
   Minimum AH scaling param. (alpha)    ....   1.000
   Maximum AH scaling param. (alpha)    .... 1000.000
   Orbital update algorithm             .... Taylor
   White noise on init. David. guess    .... on
   Maximum white noise                  ....   0.010
   Quad. conv. algorithm                .... NR
 SOSCF                  CNVSOSCF        .... on
   Start iteration      SOSCFMaxIt      ....   150
   Startup grad/error   SOSCFStart      ....  0.001000
 Level Shifting         CNVShift        .... on
   Level shift para.    LevelShift      ....    0.2500
   Turn off err/grad.   ShiftErr        ....    0.0000
 Zerner damping         CNVZerner       .... off
 Static damping         CNVDamp         .... on
   Fraction old density DampFac         ....    0.8500
   Max. Damping (<1)    DampMax         ....    0.9800
   Min. Damping (>=0)   DampMin         ....    0.0000
   Turn off err/grad.   DampErr         ....    0.0300
 Fernandez-Rico         CNVRico         .... off

SCF Procedure:
 Maximum # iterations   MaxIter         ....   125
 SCF integral mode      SCFMode         .... Direct
   Integral package                     .... SHARK and LIBINT hybrid scheme
 Reset frequency        DirectResetFreq ....    20
 Integral Threshold     Thresh          ....  2.500e-11 Eh
 Primitive CutOff       TCut            ....  2.500e-12 Eh

Convergence Tolerance:
 Convergence Check Mode ConvCheckMode   .... Total+1el-Energy
 Convergence forced     ConvForced      .... 0
 Energy Change          TolE            ....  1.000e-08 Eh
 1-El. energy change                    ....  1.000e-05 Eh
 Orbital Gradient       TolG            ....  1.000e-05
 Orbital Rotation angle TolX            ....  1.000e-05
 DIIS Error             TolErr          ....  5.000e-07


Diagonalization of the overlap matrix:
Smallest eigenvalue                        ... 1.661e-04
Time for diagonalization                   ...    0.009 sec
Threshold for overlap eigenvalues          ... 1.000e-08
Number of eigenvalues below threshold      ... 0
Time for construction of square roots      ...    0.006 sec
Total time needed                          ...    0.016 sec

Time for model grid setup =    0.051 sec

------------------------------
INITIAL GUESS: MODEL POTENTIAL
------------------------------
Loading Hartree-Fock densities                     ... done
Calculating cut-offs                               ... done
Initializing the effective Hamiltonian             ... done
Setting up the integral package (SHARK)            ... done
Starting the Coulomb interaction                   ... done (   0.0 sec)
Reading the grid                                   ... done
Mapping shells                                     ... done
Starting the XC term evaluation                    ... done (   0.0 sec)
  promolecular density results
     # of electrons  =     43.001584650
     EX              =    -30.550108095
     EC              =     -1.388146593
     EX+EC           =    -31.938254689
Transforming the Hamiltonian                       ... done (   0.1 sec)
Diagonalizing the Hamiltonian                      ... done (   0.0 sec)
Back transforming the eigenvectors                 ... done (   0.0 sec)
Now organizing SCF variables                       ... done
                      ------------------
                      INITIAL GUESS DONE (   0.2 sec)
                      ------------------
-------------------
DFT GRID GENERATION
-------------------

General Integration Accuracy     IntAcc      ... 4.388
Radial Grid Type                 RadialGrid  ... OptM3 with GC (2021)
Angular Grid (max. ang.)         AngularGrid ... 4 (Lebedev-302)
Angular grid pruning method      GridPruning ... 4 (adaptive)
Weight generation scheme         WeightScheme... Becke
Basis function cutoff            BFCut       ... 1.0000e-11
Integration weight cutoff        WCut        ... 1.0000e-14
Angular grids for H and He will be reduced by one unit
Partially contracted basis set               ... off
Rotationally invariant grid construction     ... off

Total number of grid points                  ...    68712
Total number of batches                      ...     1082
Average number of points per batch           ...       63
Average number of grid points per atom       ...     4042
Time for grid setup =    0.282 sec

--------------------
COSX GRID GENERATION
--------------------

GRIDX 1
-------
General Integration Accuracy     IntAcc      ... 3.816
Radial Grid Type                 RadialGrid  ... OptM3 with GC (2021)
Angular Grid (max. ang.)         AngularGrid ... 1 (Lebedev-50)
Angular grid pruning method      GridPruning ... 4 (adaptive)
Weight generation scheme         WeightScheme... Becke
Basis function cutoff            BFCut       ... 1.0000e-11
Integration weight cutoff        WCut        ... 1.0000e-14
Angular grids for H and He will be reduced by one unit
Partially contracted basis set               ... on
Rotationally invariant grid construction     ... off

Total number of grid points                  ...     8808
Total number of batches                      ...      149
Average number of points per batch           ...       59
Average number of grid points per atom       ...      518
UseSFitting                                  ... on

GRIDX 2
-------
General Integration Accuracy     IntAcc      ... 4.020
Radial Grid Type                 RadialGrid  ... OptM3 with GC (2021)
Angular Grid (max. ang.)         AngularGrid ... 2 (Lebedev-110)
Angular grid pruning method      GridPruning ... 4 (adaptive)
Weight generation scheme         WeightScheme... Becke
Basis function cutoff            BFCut       ... 1.0000e-11
Integration weight cutoff        WCut        ... 1.0000e-14
Angular grids for H and He will be reduced by one unit
Partially contracted basis set               ... on
Rotationally invariant grid construction     ... off

Total number of grid points                  ...    18109
Total number of batches                      ...      292
Average number of points per batch           ...       62
Average number of grid points per atom       ...     1065
UseSFitting                                  ... on

GRIDX 3
-------
General Integration Accuracy     IntAcc      ... 4.338
Radial Grid Type                 RadialGrid  ... OptM3 with GC (2021)
Angular Grid (max. ang.)         AngularGrid ... 3 (Lebedev-194)
Angular grid pruning method      GridPruning ... 4 (adaptive)
Weight generation scheme         WeightScheme... Becke
Basis function cutoff            BFCut       ... 1.0000e-11
Integration weight cutoff        WCut        ... 1.0000e-14
Angular grids for H and He will be reduced by one unit
Partially contracted basis set               ... on
Rotationally invariant grid construction     ... off

Total number of grid points                  ...    39605
Total number of batches                      ...      629
Average number of points per batch           ...       62
Average number of grid points per atom       ...     2330
UseSFitting                                  ... on

Time for X-Grid setup             =    0.370 sec


--------------------
CPCM SOLVATION MODEL
--------------------
CPCM parameters:
  Epsilon                                         ...      80.4000
  Refrac                                          ...       1.3300
  Rsolv                                           ...       1.3000
  Surface type                                    ... GAUSSIAN VDW
  Epsilon function type                           ...         CPCM
Radii:
 Radius for C  used is    3.8550 Bohr (=   2.0400 Ang.)
 Radius for H  used is    2.4944 Bohr (=   1.3200 Ang.)
 Radius for N  used is    3.5149 Bohr (=   1.8600 Ang.)
Calculating surface                               ...        done! (  0.0s)
GEPOL surface points                              ...          998
GEPOL Volume                                      ...     802.7758
GEPOL Surface-area                                ...     502.5204
Calculating surface distance matrix               ...        done! (  0.0s)
Performing Cholesky decomposition & store         ...        done! (  0.0s)
Overall time for CPCM initialization              ...                 0.0s
--------------
SCF ITERATIONS
--------------
ITER       Energy         Delta-E        Max-DP      RMS-DP      [F,P]     Damp
               ***  Starting incremental Fock matrix formation  ***
  0   -214.1480363013   0.000000000000 0.01463532  0.00037517  0.1792084 0.8500
  1   -214.1793440532  -0.031307751894 0.01250329  0.00036513  0.1435063 0.8500
                               ***Turning on DIIS***
  2   -214.2026538432  -0.023309790017 0.00987600  0.00029638  0.1091837 0.8500
  3   -214.2196066437  -0.016952800502 0.00634345  0.00021164  0.0818749 0.8500
  4   -214.2325045123  -0.012897868597 0.00556617  0.00016279  0.0648268 0.8500
  5   -214.2425709620  -0.010066449739 0.00479787  0.00013389  0.0534350 0.8500
  6   -214.2507102861  -0.008139324098 0.00415034  0.00011327  0.0448849 0.8500
  7   -214.2574247812  -0.006714495120 0.00359854  0.00009746  0.0380143 0.8500
  8   -214.2630306116  -0.005605830323 0.00309451  0.00008371  0.0321829 0.8500
  9   -214.2677257305  -0.004695118901 0.01760010  0.00047630  0.0271889 0.0000
 10   -214.2930964195  -0.025370689044 0.00056949  0.00001739  0.0012215 0.0000
                      *** Initiating the SOSCF procedure ***
                           *** Shutting down DIIS ***
                      *** Re-Reading the Fockian *** 
                      *** Removing any level shift *** 
ITER      Energy       Delta-E        Grad      Rot      Max-DP    RMS-DP
 11   -214.29310530  -0.0000088761  0.000117  0.000117  0.000211  0.000008
               *** Restarting incremental Fock matrix formation ***
 12   -214.29308326   0.0000220347  0.000061  0.000108  0.000303  0.000006
 13   -214.29308339  -0.0000001266  0.000021  0.000064  0.000165  0.000003
 14   -214.29308340  -0.0000000142  0.000013  0.000006  0.000023  0.000001
                  ***Gradient check signals convergence***
              ***Rediagonalizing the Fockian in SOSCF/NRSCF***

               *****************************************************
               *                     SUCCESS                       *
               *           SCF CONVERGED AFTER  15 CYCLES          *
               *****************************************************

Old exchange energy                            =    -10.454439799 Eh
New exchange energy                            =    -10.454417713 Eh
Exchange energy change after final integration =      0.000022086 Eh
Total energy after final integration           =   -214.293061322 Eh
Final COS-X integration done in                =     2.036 sec

----------------
TOTAL SCF ENERGY
----------------

Total Energy       :         -214.29306132 Eh           -5831.21065 eV

Components:
Nuclear Repulsion  :          194.63980357 Eh            5296.41832 eV
Electronic Energy  :         -408.93286489 Eh          -11127.62897 eV
One Electron Energy:         -664.08938553 Eh          -18070.79088 eV
Two Electron Energy:          255.15652064 Eh            6943.16191 eV
Max COSX asymmetry :            0.00000043 Eh               0.00001 eV
CPCM Dielectric    :           -0.11474528 Eh              -3.12238 eV

Virial components:
Potential Energy   :         -427.11293445 Eh          -11622.33381 eV
Kinetic Energy     :          212.81987313 Eh            5791.12316 eV
Virial Ratio       :            2.00692223


DFT components:
N(Alpha)           :       21.000006284956 electrons
N(Beta)            :       21.000006284956 electrons
N(Total)           :       42.000012569913 electrons
E(XC)              :      -22.323890824882 Eh       
DFET-embed. en.    :        0.000000000000 Eh       
CPCM Solvation Model Properties:
Surface-charge          :           -1.01995346
Charge-correction       :            0.00312060 Eh               0.08492 eV
Free-energy (cav+disp)  :  This term is not implemented in the current solvation scheme

---------------
SCF CONVERGENCE
---------------

  Last Energy change         ...   -6.1426e-09  Tolerance :   1.0000e-08
  Last MAX-Density change    ...    2.2204e-15  Tolerance :   1.0000e-07
  Last RMS-Density change    ...    1.9972e-17  Tolerance :   5.0000e-09
  Last Orbital Gradient      ...    1.3265e-06  Tolerance :   1.0000e-05
  Last Orbital Rotation      ...    1.2322e-06  Tolerance :   1.0000e-05

             **** THE GBW FILE WAS UPDATED (butylamine.gbw) ****
             **** DENSITY butylamine.scfp WAS UPDATED ****
             **** ENERGY FILE WAS UPDATED (butylamine.en.tmp) ****
             **** THE GBW FILE WAS UPDATED (butylamine.gbw) ****
             **** DENSITY butylamine.scfp WAS UPDATED ****
----------------
ORBITAL ENERGIES
----------------

  NO   OCC          E(Eh)            E(eV) 
   0   2.0000     -14.515698      -394.9922 
   1   2.0000     -10.315704      -280.7046 
   2   2.0000     -10.266644      -279.3696 
   3   2.0000     -10.257379      -279.1175 
   4   2.0000     -10.245767      -278.8015 
   5   2.0000      -1.128902       -30.7190 
   6   2.0000      -0.934321       -25.4242 
   7   2.0000      -0.859197       -23.3800 
   8   2.0000      -0.769457       -20.9380 
   9   2.0000      -0.715472       -19.4690 
  10   2.0000      -0.695271       -18.9193 
  11   2.0000      -0.669147       -18.2084 
  12   2.0000      -0.606488       -16.5034 
  13   2.0000      -0.588541       -16.0150 
  14   2.0000      -0.534632       -14.5481 
  15   2.0000      -0.525814       -14.3081 
  16   2.0000      -0.492864       -13.4115 
  17   2.0000      -0.465273       -12.6607 
  18   2.0000      -0.443752       -12.0751 
  19   2.0000      -0.439231       -11.9521 
  20   2.0000      -0.432699       -11.7743 
  21   0.0000       0.100999         2.7483 
  22   0.0000       0.123573         3.3626 
  23   0.0000       0.146195         3.9782 
  24   0.0000       0.147424         4.0116 
  25   0.0000       0.160830         4.3764 
  26   0.0000       0.188466         5.1284 
  27   0.0000       0.191276         5.2049 
  28   0.0000       0.198218         5.3938 
  29   0.0000       0.209884         5.7112 
  30   0.0000       0.214165         5.8277 
  31   0.0000       0.221788         6.0352 
  32   0.0000       0.237274         6.4566 
  33   0.0000       0.249526         6.7900 
  34   0.0000       0.251846         6.8531 
  35   0.0000       0.261764         7.1230 
  36   0.0000       0.293780         7.9942 
  37   0.0000       0.300922         8.1885 
  38   0.0000       0.326410         8.8821 
  39   0.0000       0.339146         9.2286 
  40   0.0000       0.358162         9.7461 
  41   0.0000       0.365242         9.9387 
  42   0.0000       0.374622        10.1940 
  43   0.0000       0.382258        10.4018 
  44   0.0000       0.407529        11.0894 
  45   0.0000       0.412991        11.2381 
  46   0.0000       0.444843        12.1048 
  47   0.0000       0.472715        12.8632 
  48   0.0000       0.489467        13.3191 
  49   0.0000       0.499467        13.5912 
  50   0.0000       0.503574        13.7030 
  51   0.0000       0.528467        14.3803 
  52   0.0000       0.529128        14.3983 
  53   0.0000       0.530919        14.4470 
  54   0.0000       0.545516        14.8442 
  55   0.0000       0.554503        15.0888 
  56   0.0000       0.561260        15.2727 
  57   0.0000       0.568998        15.4832 
  58   0.0000       0.572985        15.5917 
  59   0.0000       0.573375        15.6023 
  60   0.0000       0.588926        16.0255 
  61   0.0000       0.604762        16.4564 
  62   0.0000       0.619451        16.8561 
  63   0.0000       0.623023        16.9533 
  64   0.0000       0.667623        18.1669 
  65   0.0000       0.691509        18.8169 
  66   0.0000       0.707157        19.2427 
  67   0.0000       0.732766        19.9396 
  68   0.0000       0.805077        21.9073 
  69   0.0000       0.824380        22.4325 
  70   0.0000       0.838992        22.8301 
  71   0.0000       0.901563        24.5328 
  72   0.0000       0.915728        24.9182 
  73   0.0000       0.928776        25.2733 
  74   0.0000       0.944333        25.6966 
  75   0.0000       0.995060        27.0770 
  76   0.0000       1.014923        27.6175 
  77   0.0000       1.027432        27.9579 
  78   0.0000       1.114690        30.3323 
  79   0.0000       1.115506        30.3545 
  80   0.0000       1.132557        30.8184 
  81   0.0000       1.149681        31.2844 
  82   0.0000       1.176644        32.0181 
  83   0.0000       1.204598        32.7788 
  84   0.0000       1.227924        33.4135 
  85   0.0000       1.230830        33.4926 
  86   0.0000       1.304105        35.4865 
  87   0.0000       1.307365        35.5752 
  88   0.0000       1.313516        35.7426 
  89   0.0000       1.359430        36.9920 
  90   0.0000       1.372838        37.3568 
  91   0.0000       1.403508        38.1914 
  92   0.0000       1.440263        39.1916 
  93   0.0000       1.487435        40.4752 
  94   0.0000       1.579122        42.9701 
  95   0.0000       1.603026        43.6205 
  96   0.0000       1.614255        43.9261 
  97   0.0000       1.628944        44.3258 
  98   0.0000       1.630328        44.3635 
  99   0.0000       1.638282        44.5799 
 100   0.0000       1.681348        45.7518 
 101   0.0000       1.696165        46.1550 
 102   0.0000       1.696207        46.1561 
 103   0.0000       1.720512        46.8175 
 104   0.0000       1.750491        47.6333 
 105   0.0000       1.780580        48.4520 
 106   0.0000       1.817539        49.4578 
 107   0.0000       1.827379        49.7255 
 108   0.0000       1.852661        50.4135 
 109   0.0000       1.881013        51.1850 
 110   0.0000       1.910768        51.9946 
 111   0.0000       1.917540        52.1789 
 112   0.0000       1.942299        52.8526 
 113   0.0000       1.945701        52.9452 
 114   0.0000       1.954434        53.1828 
 115   0.0000       1.981415        53.9171 
 116   0.0000       1.996049        54.3152 
 117   0.0000       2.008747        54.6608 
 118   0.0000       2.041293        55.5464 
 119   0.0000       2.051820        55.8329 
 120   0.0000       2.072769        56.4029 
 121   0.0000       2.095177        57.0127 
 122   0.0000       2.168637        59.0116 
 123   0.0000       2.212464        60.2042 
 124   0.0000       2.240281        60.9612 
 125   0.0000       2.314083        62.9694 
 126   0.0000       2.330145        63.4065 
 127   0.0000       2.361506        64.2599 
 128   0.0000       2.374203        64.6053 
 129   0.0000       2.383548        64.8596 
 130   0.0000       2.425604        66.0040 
 131   0.0000       2.447536        66.6009 
 132   0.0000       2.456856        66.8544 
 133   0.0000       2.489177        67.7339 
 134   0.0000       2.504042        68.1384 
 135   0.0000       2.511885        68.3519 
 136   0.0000       2.534356        68.9633 
 137   0.0000       2.562683        69.7341 
 138   0.0000       2.575486        70.0825 
 139   0.0000       2.632363        71.6302 
 140   0.0000       2.635722        71.7217 
 141   0.0000       2.648656        72.0736 
 142   0.0000       2.662381        72.4471 
 143   0.0000       2.688525        73.1585 
 144   0.0000       2.693867        73.3038 
 145   0.0000       2.695532        73.3492 
 146   0.0000       2.722589        74.0854 
 147   0.0000       2.730621        74.3040 
 148   0.0000       2.766442        75.2787 
 149   0.0000       2.766948        75.2925 
 150   0.0000       2.794291        76.0365 
 151   0.0000       2.798915        76.1624 
 152   0.0000       2.808191        76.4148 
 153   0.0000       2.822001        76.7906 
 154   0.0000       2.882799        78.4450 
 155   0.0000       2.891249        78.6749 
 156   0.0000       2.922262        79.5188 
 157   0.0000       2.985626        81.2430 
 158   0.0000       3.047889        82.9373 
 159   0.0000       3.072125        83.5968 
 160   0.0000       3.073945        83.6463 
 161   0.0000       3.147939        85.6598 
 162   0.0000       3.187890        86.7469 
 163   0.0000       3.203101        87.1608 
 164   0.0000       3.210657        87.3664 
 165   0.0000       3.263740        88.8109 
 166   0.0000       3.293434        89.6189 
 167   0.0000       3.306363        89.9707 
 168   0.0000       3.329449        90.5989 
 169   0.0000       3.340424        90.8976 
 170   0.0000       3.351404        91.1963 
 171   0.0000       3.382748        92.0493 
 172   0.0000       3.401144        92.5498 
 173   0.0000       3.434695        93.4628 
 174   0.0000       3.446663        93.7885 
 175   0.0000       3.449447        93.8642 
 176   0.0000       3.469341        94.4056 
 177   0.0000       3.502995        95.3214 
 178   0.0000       3.549163        96.5776 
 179   0.0000       3.583673        97.5167 
 180   0.0000       3.617453        98.4359 
 181   0.0000       3.634255        98.8931 
 182   0.0000       3.654731        99.4503 
 183   0.0000       3.656674        99.5032 
 184   0.0000       3.737034       101.6899 
 185   0.0000       3.809187       103.6532 
 186   0.0000       3.859647       105.0263 
 187   0.0000       3.901499       106.1652 
 188   0.0000       3.915562       106.5478 
 189   0.0000       3.923356       106.7599 
 190   0.0000       3.955218       107.6270 
 191   0.0000       3.957746       107.6957 
 192   0.0000       3.966812       107.9424 
 193   0.0000       4.020856       109.4131 
 194   0.0000       4.114969       111.9740 
 195   0.0000       4.145012       112.7915 
 196   0.0000       4.195671       114.1700 
 197   0.0000       4.227267       115.0298 
 198   0.0000       4.299361       116.9916 
 199   0.0000       4.381859       119.2364 
 200   0.0000       4.392580       119.5282 
 201   0.0000       4.484163       122.0203 
 202   0.0000       4.487993       122.1245 
 203   0.0000       4.578326       124.5826 
 204   0.0000       4.610834       125.4672 
 205   0.0000       4.631892       126.0402 
 206   0.0000       4.669632       127.0671 
 207   0.0000       4.707107       128.0869 
 208   0.0000       4.793557       130.4393 
 209   0.0000       4.855769       132.1322 
 210   0.0000       4.868999       132.4922 
 211   0.0000       4.914746       133.7370 
 212   0.0000       4.954923       134.8303 
 213   0.0000       4.967320       135.1676 
 214   0.0000       5.020769       136.6221 
 215   0.0000       5.068867       137.9309 
 216   0.0000       5.123069       139.4058 
 217   0.0000       5.249438       142.8445 
 218   0.0000       5.341173       145.3407 
 219   0.0000       5.439512       148.0167 
 220   0.0000       5.535239       150.6215 
 221   0.0000       5.823445       158.4640 
 222   0.0000      22.302454       606.8806 
 223   0.0000      22.403137       609.6203 
 224   0.0000      22.466825       611.3534 
 225   0.0000      22.479831       611.7073 
 226   0.0000      31.884912       867.6326 

                    ********************************
                    * MULLIKEN POPULATION ANALYSIS *
                    ********************************

-----------------------
MULLIKEN ATOMIC CHARGES
-----------------------
   0 C :   -0.382748
   1 C :   -0.191968
   2 H :    0.131687
   3 H :    0.121660
   4 H :    0.121819
   5 C :   -0.237357
   6 H :    0.112668
   7 H :    0.112849
   8 C :   -0.175493
   9 H :    0.131145
  10 H :    0.131566
  11 N :   -0.286223
  12 H :    0.171906
  13 H :    0.172802
  14 H :    0.353578
  15 H :    0.358470
  16 H :    0.353641
Sum of atomic charges:    1.0000000

--------------------------------
MULLIKEN REDUCED ORBITAL CHARGES
--------------------------------
  0 C s       :     3.294912  s :     3.294912
      pz      :     1.048388  p :     3.032288
      px      :     0.981053
      py      :     1.002847
      dz2     :     0.005167  d :     0.052559
      dxz     :     0.005302
      dyz     :     0.017993
      dx2y2   :     0.014137
      dxy     :     0.009961
      f0      :     0.000393  f :     0.002989
      f+1     :    -0.000006
      f-1     :     0.000807
      f+2     :    -0.000151
      f-2     :     0.000548
      f+3     :     0.000699
      f-3     :     0.000699
  1 C s       :     3.201424  s :     3.201424
      pz      :     1.017143  p :     2.890736
      px      :     0.909927
      py      :     0.963666
      dz2     :     0.007823  d :     0.094447
      dxz     :     0.013532
      dyz     :     0.026526
      dx2y2   :     0.027168
      dxy     :     0.019399
      f0      :     0.000680  f :     0.005361
      f+1     :     0.000222
      f-1     :     0.000826
      f+2     :    -0.000015
      f-2     :     0.001058
      f+3     :     0.001616
      f-3     :     0.000974
  2 H s       :     0.846819  s :     0.846819
      pz      :     0.003863  p :     0.021494
      px      :     0.011349
      py      :     0.006283
  3 H s       :     0.857028  s :     0.857028
      pz      :     0.011311  p :     0.021312
      px      :     0.003858
      py      :     0.006143
  4 H s       :     0.856869  s :     0.856869
      pz      :     0.009047  p :     0.021312
      px      :     0.003851
      py      :     0.008414
  5 C s       :     3.213163  s :     3.213163
      pz      :     1.046649  p :     2.929271
      px      :     0.924668
      py      :     0.957954
      dz2     :     0.007720  d :     0.089642
      dxz     :     0.012867
      dyz     :     0.028611
      dx2y2   :     0.020946
      dxy     :     0.019498
      f0      :     0.000664  f :     0.005280
      f+1     :     0.000258
      f-1     :     0.000826
      f+2     :     0.000022
      f-2     :     0.001050
      f+3     :     0.001543
      f-3     :     0.000917
  6 H s       :     0.865712  s :     0.865712
      pz      :     0.008992  p :     0.021619
      px      :     0.003812
      py      :     0.008815
  7 H s       :     0.865534  s :     0.865534
      pz      :     0.011465  p :     0.021618
      px      :     0.003751
      py      :     0.006401
  8 C s       :     3.262308  s :     3.262308
      pz      :     1.098324  p :     2.802086
      px      :     0.763181
      py      :     0.940581
      dz2     :     0.009485  d :     0.103407
      dxz     :     0.014546
      dyz     :     0.028951
      dx2y2   :     0.027752
      dxy     :     0.022673
      f0      :     0.000908  f :     0.007691
      f+1     :     0.000542
      f-1     :     0.001010
      f+2     :     0.000103
      f-2     :     0.001291
      f+3     :     0.002242
      f-3     :     0.001595
  9 H s       :     0.847237  s :     0.847237
      pz      :     0.009070  p :     0.021618
      px      :     0.003715
      py      :     0.008833
 10 H s       :     0.846815  s :     0.846815
      pz      :     0.011533  p :     0.021619
      px      :     0.003692
      py      :     0.006394
 11 N s       :     3.434387  s :     3.434387
      pz      :     1.288803  p :     3.798914
      px      :     1.238956
      py      :     1.271156
      dz2     :     0.007030  d :     0.050699
      dxz     :     0.006476
      dyz     :     0.013806
      dx2y2   :     0.010762
      dxy     :     0.012625
      f0      :     0.000229  f :     0.002223
      f+1     :     0.000076
      f-1     :     0.000681
      f+2     :     0.000144
      f-2     :     0.000205
      f+3     :     0.000491
      f-3     :     0.000396
 12 H s       :     0.806739  s :     0.806739
      pz      :     0.009185  p :     0.021355
      px      :     0.003046
      py      :     0.009124
 13 H s       :     0.805855  s :     0.805855
      pz      :     0.011899  p :     0.021343
      px      :     0.002950
      py      :     0.006495
 14 H s       :     0.615389  s :     0.615389
      pz      :     0.016789  p :     0.031034
      px      :     0.005456
      py      :     0.008789
 15 H s       :     0.610840  s :     0.610840
      pz      :     0.005395  p :     0.030690
      px      :     0.014155
      py      :     0.011139
 16 H s       :     0.615333  s :     0.615333
      pz      :     0.013288  p :     0.031026
      px      :     0.005575
      py      :     0.012163


                     *******************************
                     * LOEWDIN POPULATION ANALYSIS *
                     *******************************

----------------------
LOEWDIN ATOMIC CHARGES
----------------------
   0 C :   -0.319573
   1 C :   -0.293688
   2 H :    0.123834
   3 H :    0.122940
   4 H :    0.122959
   5 C :   -0.268844
   6 H :    0.140382
   7 H :    0.140431
   8 C :   -0.271801
   9 H :    0.146381
  10 H :    0.146487
  11 N :    0.176319
  12 H :    0.154378
  13 H :    0.154552
  14 H :    0.241491
  15 H :    0.242331
  16 H :    0.241421

-------------------------------
LOEWDIN REDUCED ORBITAL CHARGES
-------------------------------
  0 C s       :     2.840142  s :     2.840142
      pz      :     1.070728  p :     3.190843
      px      :     1.053101
      py      :     1.067014
      dz2     :     0.038890  d :     0.264017
      dxz     :     0.022846
      dyz     :     0.077668
      dx2y2   :     0.064198
      dxy     :     0.060415
      f0      :     0.002571  f :     0.024572
      f+1     :     0.002527
      f-1     :     0.003245
      f+2     :     0.002897
      f-2     :     0.003458
      f+3     :     0.004898
      f-3     :     0.004975
  1 C s       :     2.783808  s :     2.783808
      pz      :     1.027351  p :     3.071438
      px      :     1.011451
      py      :     1.032637
      dz2     :     0.048529  d :     0.399682
      dxz     :     0.053568
      dyz     :     0.104380
      dx2y2   :     0.100893
      dxy     :     0.092312
      f0      :     0.004456  f :     0.038760
      f+1     :     0.003306
      f-1     :     0.003849
      f+2     :     0.004040
      f-2     :     0.006109
      f+3     :     0.010627
      f-3     :     0.006373
  2 H s       :     0.818152  s :     0.818152
      pz      :     0.012297  p :     0.058014
      px      :     0.027338
      py      :     0.018378
  3 H s       :     0.819043  s :     0.819043
      pz      :     0.029380  p :     0.058018
      px      :     0.011808
      py      :     0.016830
  4 H s       :     0.819017  s :     0.819017
      pz      :     0.024342  p :     0.058024
      px      :     0.011877
      py      :     0.021805
  5 C s       :     2.786532  s :     2.786532
      pz      :     1.030638  p :     3.058339
      px      :     1.001971
      py      :     1.025729
      dz2     :     0.048327  d :     0.386439
      dxz     :     0.052197
      dyz     :     0.103921
      dx2y2   :     0.087527
      dxy     :     0.094468
      f0      :     0.004398  f :     0.037534
      f+1     :     0.003334
      f-1     :     0.003741
      f+2     :     0.003934
      f-2     :     0.006209
      f+3     :     0.009958
      f-3     :     0.005959
  6 H s       :     0.803755  s :     0.803755
      pz      :     0.023530  p :     0.055863
      px      :     0.011529
      py      :     0.020803
  7 H s       :     0.803711  s :     0.803711
      pz      :     0.028303  p :     0.055858
      px      :     0.011411
      py      :     0.016144
  8 C s       :     2.797716  s :     2.797716
      pz      :     1.066833  p :     2.984385
      px      :     0.901254
      py      :     1.016298
      dz2     :     0.055608  d :     0.438012
      dxz     :     0.057332
      dyz     :     0.103285
      dx2y2   :     0.112410
      dxy     :     0.109379
      f0      :     0.005618  f :     0.051688
      f+1     :     0.005367
      f-1     :     0.003939
      f+2     :     0.004599
      f-2     :     0.007635
      f+3     :     0.013977
      f-3     :     0.010553
  9 H s       :     0.796941  s :     0.796941
      pz      :     0.023965  p :     0.056679
      px      :     0.011401
      py      :     0.021313
 10 H s       :     0.796833  s :     0.796833
      pz      :     0.028946  p :     0.056679
      px      :     0.011355
      py      :     0.016378
 11 N s       :     2.978812  s :     2.978812
      pz      :     1.218669  p :     3.675856
      px      :     1.230810
      py      :     1.226376
      dz2     :     0.022841  d :     0.159025
      dxz     :     0.020967
      dyz     :     0.039666
      dx2y2   :     0.033546
      dxy     :     0.042005
      f0      :     0.001097  f :     0.009989
      f+1     :     0.001022
      f-1     :     0.001194
      f+2     :     0.001606
      f-2     :     0.001108
      f+3     :     0.002627
      f-3     :     0.001335
 12 H s       :     0.788001  s :     0.788001
      pz      :     0.025572  p :     0.057621
      px      :     0.009151
      py      :     0.022898
 13 H s       :     0.787815  s :     0.787815
      pz      :     0.031605  p :     0.057633
      px      :     0.008927
      py      :     0.017101
 14 H s       :     0.663792  s :     0.663792
      pz      :     0.053212  p :     0.094717
      px      :     0.015664
      py      :     0.025841
 15 H s       :     0.662859  s :     0.662859
      pz      :     0.015851  p :     0.094810
      px      :     0.042105
      py      :     0.036854
 16 H s       :     0.663859  s :     0.663859
      pz      :     0.042416  p :     0.094720
      px      :     0.015842
      py      :     0.036461


                      *****************************
                      * MAYER POPULATION ANALYSIS *
                      *****************************

  NA   - Mulliken gross atomic population
  ZA   - Total nuclear charge
  QA   - Mulliken gross atomic charge
  VA   - Mayer's total valence
  BVA  - Mayer's bonded valence
  FA   - Mayer's free valence

  ATOM       NA         ZA         QA         VA         BVA        FA
  0 C      6.3827     6.0000    -0.3827     3.9076     3.9076    -0.0000
  1 C      6.1920     6.0000    -0.1920     3.8679     3.8679     0.0000
  2 H      0.8683     1.0000     0.1317     0.9668     0.9668    -0.0000
  3 H      0.8783     1.0000     0.1217     0.9670     0.9670    -0.0000
  4 H      0.8782     1.0000     0.1218     0.9671     0.9671    -0.0000
  5 C      6.2374     6.0000    -0.2374     3.8530     3.8530    -0.0000
  6 H      0.8873     1.0000     0.1127     0.9653     0.9653    -0.0000
  7 H      0.8872     1.0000     0.1128     0.9653     0.9653    -0.0000
  8 C      6.1755     6.0000    -0.1755     3.8546     3.8546    -0.0000
  9 H      0.8689     1.0000     0.1311     0.9656     0.9656     0.0000
 10 H      0.8684     1.0000     0.1316     0.9655     0.9655    -0.0000
 11 N      7.2862     7.0000    -0.2862     3.5120     3.5120    -0.0000
 12 H      0.8281     1.0000     0.1719     0.9584     0.9584    -0.0000
 13 H      0.8272     1.0000     0.1728     0.9579     0.9579     0.0000
 14 H      0.6464     1.0000     0.3536     0.8753     0.8753    -0.0000
 15 H      0.6415     1.0000     0.3585     0.8706     0.8706     0.0000
 16 H      0.6464     1.0000     0.3536     0.8752     0.8752    -0.0000

  Mayer bond orders larger than 0.100000
B(  0-C ,  1-C ) :   0.9675 B(  0-C ,  2-H ) :   0.9827 B(  0-C ,  3-H ) :   0.9784 
B(  0-C ,  4-H ) :   0.9784 B(  1-C ,  5-C ) :   0.9787 B(  1-C ,  6-H ) :   0.9702 
B(  1-C ,  7-H ) :   0.9705 B(  5-C ,  8-C ) :   0.9752 B(  5-C ,  9-H ) :   0.9625 
B(  5-C , 10-H ) :   0.9630 B(  8-C , 11-N ) :   0.9314 B(  8-C , 12-H ) :   0.9634 
B(  8-C , 13-H ) :   0.9636 B( 11-N , 14-H ) :   0.8593 B( 11-N , 15-H ) :   0.8600 
B( 11-N , 16-H ) :   0.8590 

-------
TIMINGS
-------

Total SCF time: 0 days 0 hours 0 min 22 sec 

Total time                  ....      22.748 sec
Sum of individual times     ....      22.017 sec  ( 96.8%)

Fock matrix formation       ....      20.690 sec  ( 91.0%)
  Split-RI-J                ....       1.065 sec  (  5.1% of F)
  Chain of spheres X        ....      12.193 sec  ( 58.9% of F)
  XC integration            ....       3.914 sec  ( 18.9% of F)
    Basis function eval.    ....       0.409 sec  ( 10.5% of XC)
    Density eval.           ....       0.358 sec  (  9.2% of XC)
    XC-Functional eval.     ....       0.151 sec  (  3.9% of XC)
    XC-Potential eval.      ....       0.529 sec  ( 13.5% of XC)
Diagonalization             ....       0.156 sec  (  0.7%)
Density matrix formation    ....       0.015 sec  (  0.1%)
Population analysis         ....       0.054 sec  (  0.2%)
Initial guess               ....       0.190 sec  (  0.8%)
Orbital Transformation      ....       0.000 sec  (  0.0%)
Orbital Orthonormalization  ....       0.000 sec  (  0.0%)
DIIS solution               ....       0.121 sec  (  0.5%)
SOSCF solution              ....       0.089 sec  (  0.4%)
Grid generation             ....       0.703 sec  (  3.1%)

Maximum memory used throughout the entire SCF-calculation: 70.8 MB


-------------------------------------------------------------------------------
                          DFT DISPERSION CORRECTION                            
                                                                               
                                 DFTD4 V2.5                                    
-------------------------------------------------------------------------------
The WB97X functional is recognized
Active option DFTDOPT                   ...         5   

Starting D4
-------------------------   ----------------
Dispersion correction           -0.001258279
-------------------------   ----------------


-------------------------   --------------------
FINAL SINGLE POINT ENERGY      -214.294319600401
-------------------------   --------------------



           ************************************************************
           *        Program running with 16 parallel MPI-processes    *
           *              working on a common directory               *
           ************************************************************
------------------------------------------------------------------------------
                         ORCA SCF GRADIENT CALCULATION
------------------------------------------------------------------------------

 ... reading COSX grid (gridx3)
Gradient of the Kohn-Sham DFT energy:
Kohn-Sham wavefunction type      ... RKS
Hartree-Fock exchange scaling    ...    0.158
Number of operators              ...    1
Number of atoms                  ...   17
Basis set dimensions             ...  227
Integral neglect threshold       ... 2.5e-11
Integral primitive cutoff        ... 2.5e-12
SHARK Integral package           ... ON

Nuc. rep. gradient       (SHARK) ... done (  0.0 sec)
HCore & Overlap gradient (SHARK) ... done (  0.0 sec)
RI-J gradient            (SHARK) ... done (  0.2 sec)
COSX-gradient                    ... done (  2.2 sec)
Exchange-correlation gradient    ... done
Dispersion correction            ... Starting D4
Starting D4
Starting D4
Starting D4
Starting D4
Starting D4
Starting D4
Starting D4
Starting D4
Starting D4
Starting D4
Starting D4
Starting D4
Starting D4
Starting D4
Starting D4


------------------- 
Dispersion Gradient 
------------------- 
   1  :   -0.000025705    0.000006792   -0.000000097
   2  :   -0.000013944   -0.000006172    0.000001140
   3  :   -0.000005019    0.000001396   -0.000000027
   4  :   -0.000007484    0.000000560    0.000000890
   5  :   -0.000007526    0.000000383   -0.000000581
   6  :    0.000000213    0.000004533   -0.000000554
   7  :   -0.000005731    0.000000835    0.000000442
   8  :   -0.000005752    0.000000744   -0.000000309
   9  :    0.000008347   -0.000009486    0.000000912
  10  :    0.000000450   -0.000001559   -0.000000488
  11  :    0.000000486   -0.000001401    0.000000820
  12  :    0.000024914   -0.000000550   -0.000000636
  13  :    0.000006307    0.000000795    0.000000567
  14  :    0.000006260    0.000000595   -0.000001089
  15  :    0.000006316    0.000002998   -0.000005494
  16  :    0.000011277   -0.000004640    0.000000243
  17  :    0.000006591    0.000004177    0.000004261

  |G| =    0.000047536

done

------------------
CARTESIAN GRADIENT
------------------

   1   C   :    0.006593279   -0.000478628    0.000049873
   2   C   :   -0.000567697    0.001630995   -0.000185741
   3   H   :   -0.008507911   -0.008841869    0.001407564
   4   H   :    0.001214473    0.004254996   -0.011087860
   5   H   :    0.001821910    0.006720634    0.009659913
   6   C   :   -0.003121196    0.001481435   -0.000078626
   7   H   :   -0.002320535   -0.005473615   -0.010147238
   8   H   :   -0.001797356   -0.002913545    0.011263147
   9   C   :    0.030595900    0.015006808   -0.002739002
  10   H   :    0.000224411    0.005859074    0.009344437
  11   H   :   -0.000242257    0.003534553   -0.010530533
  12   N   :   -0.021658111   -0.004733486    0.000608851
  13   H   :   -0.004847353   -0.009954221   -0.010425840
  14   H   :   -0.004254203   -0.007151831    0.012799086
  15   H   :   -0.003056561    0.007401353   -0.019612396
  16   H   :    0.011742145   -0.018045667    0.002048473
  17   H   :   -0.001856836    0.011748861    0.017773592

Difference to translation invariance:
           :   -0.0000379004    0.0000458487    0.0001477011

Difference to rotation invariance:
           :    0.0007941566    0.0013560878   -0.0013874093

Norm of the cartesian gradient     ...    0.0672044843
RMS gradient                       ...    0.0094105101
MAX gradient                       ...    0.0305959000

-------
TIMINGS
-------

Total SCF gradient time            ...        3.829 sec

One electron gradient       ....       0.035 sec  (  0.9%)
RI-J Coulomb gradient       ....       0.195 sec  (  5.1%)
COSX gradient               ....       2.224 sec  ( 58.1%)
XC gradient                 ....       0.612 sec  ( 16.0%)
CPCM gradient               ....       0.160 sec  (  4.2%)
   A-Matrix (El+Nuc)        ....       0.048 sec  (  1.3%)
   Potential                ....       0.112 sec  (  2.9%)

Maximum memory used throughout the entire SCFGRAD-calculation: 44.4 MB
------------------------------------------------------------------------------
                         ORCA GEOMETRY RELAXATION STEP
------------------------------------------------------------------------------

Reading the OPT-File                    .... done
Getting information on internals        .... done
Copying old internal coords+grads       .... done
Making the new internal coordinates     .... (new redundants).... done
Validating the new internal coordinates .... (new redundants).... done
Calculating the B-matrix                .... done
Calculating the G,G- and P matrices     .... done
Transforming gradient to internals      .... done
Projecting the internal gradient        .... done
Number of atoms                         ....  17
Number of internal coordinates          ....  82
Current Energy                          ....  -214.294319600 Eh
Current gradient norm                   ....     0.067204484 Eh/bohr
Maximum allowed component of the step   ....  0.300
Current trust radius                    ....  0.300
Evaluating the initial hessian          ....  (Almloef) done
Projecting the Hessian                  .... done
Forming the augmented Hessian           .... done
Diagonalizing the augmented Hessian     .... done
Last element of RFO vector              ....  0.986289070
Lowest eigenvalues of augmented Hessian:
 -0.009221164  0.010811054  0.010921713  0.011462512  0.016788284
Length of the computed step             ....  0.167321007
The final length of the internal step   ....  0.167321007
Converting the step to cartesian space:
 Initial RMS(Int)=    0.0184775141
Transforming coordinates:
 Iter   0:  RMS(Cart)=    0.0237071899 RMS(Int)=    1.5494019791
 Iter   1:  RMS(Cart)=    0.0003142041 RMS(Int)=    0.0002102702
 Iter   2:  RMS(Cart)=    0.0000109790 RMS(Int)=    0.0000079853
 Iter   3:  RMS(Cart)=    0.0000004084 RMS(Int)=    0.0000002905
 Iter   4:  RMS(Cart)=    0.0000000149 RMS(Int)=    0.0000000106
done
Storing new coordinates                 .... done

                                .--------------------.
          ----------------------|Geometry convergence|-------------------------
          Item                value                   Tolerance       Converged
          ---------------------------------------------------------------------
          RMS gradient        0.0062902828            0.0001000000      NO
          MAX gradient        0.0208514740            0.0003000000      NO
          RMS step            0.0184775141            0.0020000000      NO
          MAX step            0.0536931861            0.0040000000      NO
          ........................................................
          Max(Bonds)      0.0284      Max(Angles)    1.35
          Max(Dihed)        1.03      Max(Improp)    0.00
          ---------------------------------------------------------------------

The optimization has not yet converged - more geometry cycles are needed


    ---------------------------------------------------------------------------
                         Redundant Internal Coordinates
                            (Angstroem and degrees)

        Definition                    Value    dE/dq     Step     New-Value
    ----------------------------------------------------------------------------
     1. B(C   1,C   0)                1.5259  0.000101 -0.0001    1.5258   
     2. B(H   2,C   0)                1.1104  0.011970 -0.0184    1.0919   
     3. B(H   3,C   0)                1.1109  0.011782 -0.0182    1.0927   
     4. B(H   4,C   0)                1.1109  0.011691 -0.0181    1.0928   
     5. B(C   5,C   1)                1.5329  0.005747 -0.0080    1.5249   
     6. B(H   6,C   1)                1.1119  0.011332 -0.0176    1.0944   
     7. B(H   7,C   1)                1.1119  0.011325 -0.0176    1.0944   
     8. B(C   8,C   5)                1.5344  0.008760 -0.0123    1.5221   
     9. B(H   9,C   5)                1.1123  0.010827 -0.0168    1.0955   
    10. B(H  10,C   5)                1.1123  0.010940 -0.0170    1.0953   
    11. B(N  11,C   8)                1.4625 -0.014623  0.0177    1.4802   
    12. B(H  12,C   8)                1.1129  0.014669 -0.0228    1.0901   
    13. B(H  13,C   8)                1.1129  0.014729 -0.0229    1.0900   
    14. B(H  14,N  11)                1.0460  0.020657 -0.0281    1.0178   
    15. B(H  15,N  11)                1.0456  0.020706 -0.0282    1.0174   
    16. B(H  16,N  11)                1.0460  0.020851 -0.0284    1.0176   
    17. A(H   3,C   0,H   4)          109.19  0.002374   -0.61    108.58   
    18. A(C   1,C   0,H   4)          110.34 -0.001606    0.27    110.61   
    19. A(C   1,C   0,H   2)          109.59 -0.003988    0.80    110.39   
    20. A(H   2,C   0,H   4)          108.67  0.002478   -0.37    108.31   
    21. A(H   2,C   0,H   3)          108.67  0.002511   -0.38    108.29   
    22. A(C   1,C   0,H   3)          110.34 -0.001622    0.27    110.61   
    23. A(C   0,C   1,C   5)          111.16 -0.002372    0.66    111.82   
[...]
     29       0.043900   0.003350   0.000429  -0.407768  -0.115911  -0.296703
     30       0.021031  -0.012657  -0.008656  -0.013740  -0.005273  -0.009658
     31      -0.047168   0.003555  -0.001203  -0.264858  -0.075465  -0.195796
     32      -0.033290   0.000548   0.005203   0.491953   0.139100   0.361921
     33       0.097376   0.016873  -0.017685  -0.000229  -0.000140   0.000031
     34       0.058456  -0.021107   0.030985   0.000357   0.000142   0.000104
     35      -0.013992   0.035647   0.025340   0.000044   0.000005   0.000046
     36      -0.020310   0.003378   0.051798  -0.000544   0.000097   0.002013
     37      -0.036125   0.020093   0.019726   0.016652   0.002836   0.020416
     38       0.038128  -0.011195   0.010754   0.018913   0.003434   0.024091
     39      -0.035692  -0.050460   0.010055  -0.001865  -0.000132   0.000199
     40      -0.053650  -0.019186  -0.017313   0.010538   0.001580   0.013441
     41      -0.025663   0.017216  -0.008763  -0.020873  -0.003484  -0.027930
     42      -0.491708   0.295960   0.358634  -0.001807  -0.000446  -0.002098
     43      -0.188281   0.232247  -0.539197  -0.001286  -0.000564  -0.000955
     44      -0.164505   0.169337  -0.260766   0.003063   0.001233   0.002383
     45      -0.332630  -0.157250   0.167805  -0.002924  -0.001431  -0.001259
     46      -0.454089  -0.278036   0.194351  -0.000515  -0.000015  -0.000124
     47       0.079517  -0.500856  -0.496490   0.000155   0.000031   0.000056
     48      -0.510003  -0.427622  -0.223675  -0.002164  -0.000568  -0.002370
     49      -0.140574   0.422680  -0.239735  -0.002851  -0.001086  -0.002180
     50       0.247246  -0.329854   0.293735  -0.003123  -0.001194  -0.002386
                 42         43         44         45         46         47    
      0       0.000533  -0.000657  -0.000473   0.001918  -0.061951   0.000026
      1       0.001948  -0.002968  -0.001027   0.009602  -0.067970   0.000018
      2       0.018009  -0.026793  -0.000871   0.086498   0.008974   0.000160
      3      -0.001738   0.001226  -0.000028   0.000767  -0.000675  -0.000062
      4      -0.007792   0.005723   0.001228   0.003628  -0.006247  -0.000200
      5      -0.071162   0.050582   0.000701   0.031736   0.000624  -0.002258
      6      -0.002377   0.002060   0.004120  -0.004748   0.746147  -0.000267
      7      -0.000964   0.000499   0.002957  -0.001220   0.438217  -0.000126
      8       0.004616  -0.007335  -0.000630   0.015818  -0.060283   0.000123
      9       0.001339  -0.003022   0.000240   0.001607  -0.009741   0.000561
     10       0.072108  -0.102979  -0.001050   0.333687   0.161238  -0.000086
     11      -0.122312   0.177020   0.001168  -0.568297  -0.305476  -0.000282
     12      -0.005139   0.008717   0.000830  -0.019755  -0.000098  -0.000556
     13      -0.095203   0.138385   0.008696  -0.447553   0.217466   0.000103
     14      -0.102312   0.150481   0.009932  -0.483074   0.257990  -0.000193
     15       0.001479   0.001913   0.001062   0.000284   0.000400  -0.000302
     16       0.007111   0.008961   0.003398   0.001276   0.000156  -0.001615
     17       0.055133   0.073028   0.002560   0.010689  -0.000045  -0.012843
     18       0.032609  -0.026507  -0.002709  -0.013197   0.002981   0.002990
     19       0.371754  -0.260769  -0.011744  -0.159773   0.037277   0.012333
     20       0.389569  -0.274781  -0.012031  -0.169236   0.039339   0.012249
     21      -0.012233   0.012075  -0.001289   0.004265   0.000845  -0.002247
     22      -0.276972   0.192102  -0.002317   0.117357   0.026352  -0.009759
     23       0.472081  -0.329543   0.003676  -0.202518  -0.045310   0.015828
     24      -0.000159  -0.000381  -0.000109  -0.000092   0.000006  -0.003316
     25      -0.001239  -0.003402   0.068500   0.000004  -0.000542  -0.009246
     26      -0.005311  -0.010824  -0.005491  -0.002369   0.000020  -0.095029
     27      -0.028002  -0.039108  -0.003041  -0.007895   0.001176   0.003194
     28      -0.294506  -0.378032  -0.041798  -0.055298   0.000932   0.065456
     29      -0.311052  -0.401300  -0.043896  -0.058069   0.000829   0.069318
     30       0.010232   0.016325   0.000502   0.004599   0.001088   0.000796
     31       0.207762   0.270660  -0.008759   0.040101   0.000617  -0.047227
     32      -0.359772  -0.472064   0.014661  -0.069319  -0.000906   0.081630
     33       0.000015   0.000020  -0.000234   0.000002  -0.000007   0.000048
     34       0.000121   0.000194  -0.001671   0.000010   0.000041   0.000113
     35       0.000309   0.000420   0.000225   0.000075  -0.000007   0.002268
     36       0.002242   0.005868  -0.020628   0.001426  -0.000191   0.014136
     37       0.034348   0.071864  -0.485624   0.008941   0.003963   0.455540
     38       0.036127   0.078201  -0.540609   0.010010   0.004236   0.489150
     39       0.000161  -0.001102   0.018531  -0.000513  -0.000487   0.024739
     40      -0.018724  -0.030826  -0.312565  -0.008935   0.002435  -0.344438
     41       0.032973   0.056846   0.603205   0.017370  -0.004424   0.636623
     42       0.001416   0.002174  -0.001197   0.000333   0.000078  -0.005774
     43       0.000623   0.001469   0.004334   0.000404  -0.000102   0.005432
     44      -0.001512  -0.003077  -0.011447  -0.000846   0.000177  -0.015264
     45      -0.000135  -0.000247   0.003575  -0.000003  -0.000382   0.000295
     46      -0.000099  -0.000179   0.004587   0.000010   0.000123   0.000300
     47      -0.000935  -0.000991  -0.000717  -0.000122  -0.000008   0.001372
     48      -0.001702  -0.002556  -0.001059  -0.000420   0.000077   0.005013
     49      -0.002131  -0.003952   0.007400  -0.000747  -0.000126  -0.007514
     50      -0.002075  -0.003972   0.010511  -0.000733  -0.000153  -0.011711
                 48         49         50    
      0      -0.000017   0.000024  -0.000000
      1       0.000087   0.000030  -0.000036
      2      -0.000007  -0.000029  -0.000048
      3       0.000064   0.000014  -0.000036
      4      -0.000160  -0.000002   0.000013
      5      -0.000011  -0.000062  -0.000010
      6       0.000746   0.000059  -0.000182
      7       0.000071   0.000051  -0.000146
      8      -0.000059   0.000034  -0.000038
      9       0.000010   0.000033   0.000000
     10      -0.000132  -0.000094  -0.000084
     11       0.000316   0.000018  -0.000037
     12      -0.000013   0.000028  -0.000033
     13      -0.000283   0.000139  -0.000045
     14      -0.000206  -0.000024  -0.000080
     15       0.000165  -0.000032  -0.000386
     16       0.000811  -0.000102   0.000195
     17       0.000028  -0.000498   0.000033
     18       0.000060  -0.000129   0.000168
     19       0.000115   0.000328  -0.000078
     20       0.000023   0.000512  -0.000054
     21       0.000059   0.000174   0.000155
     22       0.000053  -0.000134  -0.000015
     23      -0.000233   0.000501   0.000076
     24      -0.000543   0.000028  -0.000129
     25      -0.001343   0.000066  -0.000424
     26       0.000303   0.001635   0.000252
     27      -0.001531   0.001666  -0.000896
     28      -0.003247   0.002064  -0.000866
     29      -0.003945   0.002988  -0.001111
     30      -0.000935  -0.000947  -0.000663
     31      -0.001277  -0.000728  -0.000264
     32       0.002999   0.002188   0.000595
     33      -0.033748   0.001186   0.043921
     34      -0.026926   0.011934  -0.066985
     35       0.003348   0.079931   0.009586
     36       0.004132  -0.003707   0.001578
     37       0.008008  -0.010938   0.004979
     38       0.006511  -0.010811   0.004345
     39       0.003461   0.003004   0.001292
     40       0.006166   0.008030   0.004394
     41      -0.009225  -0.013599  -0.006484
     42       0.020412   0.029657   0.023409
     43       0.275382   0.337346   0.164118
     44      -0.528949  -0.619991  -0.332879
     45       0.390699   0.021839  -0.669335
     46      -0.324483  -0.015554   0.536898
     47       0.032586   0.016725  -0.052790
     48       0.055795  -0.068572   0.040754
     49       0.420986  -0.486242   0.224914
     50       0.449938  -0.501727   0.252558


-----------
IR SPECTRUM
-----------

 Mode   freq       eps      Int      T**2         TX        TY        TZ
       cm**-1   L/(mol*cm) km/mol    a.u.
----------------------------------------------------------------------------
  6:     62.37   0.000617    3.12  0.003087  (-0.003104 -0.005732 -0.055174)
  7:    100.75   0.001092    5.52  0.003384  ( 0.002306 -0.016052 -0.055864)
  8:    169.06   0.001953    9.87  0.003605  ( 0.029458 -0.051091  0.011250)
  9:    223.35   0.000128    0.65  0.000179  ( 0.007249 -0.011222  0.000862)
 10:    225.37   0.000013    0.07  0.000018  (-0.000442  0.002273  0.003556)
 11:    398.28   0.000695    3.51  0.000544  (-0.023096 -0.003062  0.001234)
 12:    416.94   0.002241   11.32  0.001677  (-0.039383  0.011238 -0.000045)
 13:    741.52   0.003008   15.20  0.001266  (-0.000833 -0.004173 -0.035324)
 14:    792.31   0.000755    3.82  0.000298  (-0.000921 -0.002741 -0.017005)
 15:    904.36   0.003222   16.28  0.001112  (-0.000096  0.010373  0.031690)
 16:    907.39   0.001520    7.68  0.000523  ( 0.005502 -0.020219  0.009152)
 17:    954.88   0.003462   17.49  0.001131  (-0.031394  0.012073 -0.000093)
 18:   1012.60   0.001217    6.15  0.000375  (-0.001796 -0.002350 -0.019137)
 19:   1048.80   0.001200    6.06  0.000357  ( 0.000177  0.018747 -0.002360)
 20:   1073.21   0.001361    6.88  0.000396  ( 0.017137 -0.010086  0.000453)
 21:   1102.88   0.002509   12.68  0.000710  ( 0.026231 -0.004665 -0.000407)
 22:   1193.37   0.004066   20.55  0.001063  ( 0.010172 -0.030869  0.002619)
 23:   1219.59   0.000681    3.44  0.000174  (-0.001195 -0.001368 -0.013073)
 24:   1300.21   0.000797    4.03  0.000191  (-0.002182 -0.001621 -0.013564)
 25:   1317.84   0.000582    2.94  0.000138  (-0.004389  0.010720  0.001896)
 26:   1339.07   0.000004    0.02  0.000001  ( 0.000743  0.000606  0.000204)
 27:   1357.50   0.001741    8.80  0.000400  ( 0.001675  0.003314  0.019656)
 28:   1397.71   0.001048    5.30  0.000234  (-0.008389  0.012750 -0.001044)
 29:   1413.05   0.000226    1.14  0.000050  ( 0.004281 -0.005620  0.000200)
 30:   1441.67   0.004389   22.18  0.000950  (-0.030502 -0.004168  0.001531)
 31:   1473.36   0.000245    1.24  0.000052  (-0.006483 -0.001793  0.002573)
 32:   1481.90   0.001159    5.86  0.000244  ( 0.001353  0.002828 -0.015305)
 33:   1483.90   0.001479    7.47  0.000311  (-0.002340 -0.004922 -0.016772)
 34:   1495.64   0.000870    4.40  0.000181  ( 0.013145  0.002621  0.001342)
 35:   1506.77   0.004320   21.83  0.000895  (-0.011836  0.027368 -0.002363)
 36:   1531.82   0.037303  188.51  0.007599  (-0.072779 -0.047058  0.009385)
 37:   1641.35   0.013449   67.96  0.002557  (-0.017273  0.022020 -0.042116)
 38:   1646.20   0.013526   68.36  0.002564  ( 0.019393 -0.034871 -0.031177)
 39:   3054.60   0.000814    4.11  0.000083  ( 0.008664 -0.002823 -0.000397)
 40:   3058.15   0.007889   39.87  0.000805  (-0.018025  0.021821 -0.002001)
 41:   3060.60   0.014374   72.64  0.001466  ( 0.004410  0.037743 -0.004656)
 42:   3089.36   0.000096    0.48  0.000010  (-0.000036 -0.000185 -0.003105)
 43:   3108.40   0.006812   34.42  0.000684  ( 0.000506  0.002641  0.026012)
 44:   3119.72   0.002945   14.88  0.000295  ( 0.000072  0.017131 -0.001045)
 45:   3131.32   0.017287   87.36  0.001723  ( 0.000889  0.004684  0.041232)
 46:   3141.82   0.009714   49.09  0.000965  (-0.020566 -0.023065  0.003156)
 47:   3180.24   0.002418   12.22  0.000237  (-0.000509 -0.001351 -0.015335)
 48:   3471.19   0.012260   61.96  0.001102  ( 0.028521  0.016753 -0.002845)
 49:   3546.09   0.028397  143.51  0.002499  (-0.000173 -0.007155 -0.049475)
 50:   3556.60   0.029576  149.47  0.002595  (-0.028216  0.041984 -0.006026)

* The epsilon (eps) is given for a Dirac delta lineshape.
** The dipole moment derivative (T) already includes vibrational overlap.

The first frequency considered to be a vibration is 6
The total number of vibrations considered is 45


--------------------------
THERMOCHEMISTRY AT 298.15K
--------------------------

Temperature         ... 298.15 K
Pressure            ... 1.00 atm
Total Mass          ... 74.15 AMU

Throughout the following assumptions are being made:
  (1) The electronic state is orbitally nondegenerate
  (2) There are no thermally accessible electronically excited states
  (3) Hindered rotations indicated by low frequency modes are not
      treated as such but are treated as vibrations and this may
      cause some error
  (4) All equations used are the standard statistical mechanics
      equations for an ideal gas
  (5) All vibrations are strictly harmonic

freq.      62.37  E(vib)   ...       0.51 
freq.     100.75  E(vib)   ...       0.46 
freq.     169.06  E(vib)   ...       0.38 
freq.     223.35  E(vib)   ...       0.33 
freq.     225.37  E(vib)   ...       0.33 
freq.     398.28  E(vib)   ...       0.20 
freq.     416.94  E(vib)   ...       0.18 
freq.     741.52  E(vib)   ...       0.06 
freq.     792.31  E(vib)   ...       0.05 
freq.     904.36  E(vib)   ...       0.03 
freq.     907.39  E(vib)   ...       0.03 
freq.     954.88  E(vib)   ...       0.03 
freq.    1012.60  E(vib)   ...       0.02 
freq.    1048.80  E(vib)   ...       0.02 
freq.    1073.21  E(vib)   ...       0.02 
freq.    1102.88  E(vib)   ...       0.02 
freq.    1193.37  E(vib)   ...       0.01 
freq.    1219.59  E(vib)   ...       0.01 
freq.    1300.21  E(vib)   ...       0.01 
freq.    1317.84  E(vib)   ...       0.01 
freq.    1339.07  E(vib)   ...       0.01 
freq.    1357.50  E(vib)   ...       0.01 
freq.    1397.71  E(vib)   ...       0.00 
freq.    1413.05  E(vib)   ...       0.00 
freq.    1441.67  E(vib)   ...       0.00 
freq.    1473.36  E(vib)   ...       0.00 
freq.    1481.90  E(vib)   ...       0.00 
freq.    1483.90  E(vib)   ...       0.00 
freq.    1495.64  E(vib)   ...       0.00 
freq.    1506.77  E(vib)   ...       0.00 
freq.    1531.82  E(vib)   ...       0.00 
freq.    1641.35  E(vib)   ...       0.00 
freq.    1646.20  E(vib)   ...       0.00 
freq.    3054.60  E(vib)   ...       0.00 
freq.    3058.15  E(vib)   ...       0.00 
freq.    3060.60  E(vib)   ...       0.00 
freq.    3089.36  E(vib)   ...       0.00 
freq.    3108.40  E(vib)   ...       0.00 
freq.    3119.72  E(vib)   ...       0.00 
freq.    3131.32  E(vib)   ...       0.00 
freq.    3141.82  E(vib)   ...       0.00 
freq.    3180.24  E(vib)   ...       0.00 
freq.    3471.19  E(vib)   ...       0.00 
freq.    3546.09  E(vib)   ...       0.00 
freq.    3556.60  E(vib)   ...       0.00 

------------
INNER ENERGY
------------

The inner energy is: U= E(el) + E(ZPE) + E(vib) + E(rot) + E(trans)
    E(el)   - is the total energy from the electronic structure calculation
              = E(kin-el) + E(nuc-el) + E(el-el) + E(nuc-nuc)
    E(ZPE)  - the the zero temperature vibrational energy from the frequency calculation
    E(vib)  - the the finite temperature correction to E(ZPE) due to population
              of excited vibrational states
    E(rot)  - is the rotational thermal energy
    E(trans)- is the translational thermal energy

Summary of contributions to the inner energy U:
Electronic energy                ...   -214.29983731 Eh
Zero point energy                ...      0.16606275 Eh     104.21 kcal/mol
Thermal vibrational correction   ...      0.00437889 Eh       2.75 kcal/mol
Thermal rotational correction    ...      0.00141627 Eh       0.89 kcal/mol
Thermal translational correction ...      0.00141627 Eh       0.89 kcal/mol
-----------------------------------------------------------------------
Total thermal energy                   -214.12656313 Eh


Summary of corrections to the electronic energy:
(perhaps to be used in another calculation)
Total thermal correction                  0.00721143 Eh       4.53 kcal/mol
Non-thermal (ZPE) correction              0.16606275 Eh     104.21 kcal/mol
-----------------------------------------------------------------------
Total correction                          0.17327418 Eh     108.73 kcal/mol


--------
ENTHALPY
--------

The enthalpy is H = U + kB*T
                kB is Boltzmann's constant
Total free energy                 ...   -214.12656313 Eh 
Thermal Enthalpy correction       ...      0.00094421 Eh       0.59 kcal/mol
-----------------------------------------------------------------------
Total Enthalpy                    ...   -214.12561892 Eh


Note: Only C1 symmetry has been detected, increase convergence thresholds 
      if your molecule has a higher symmetry. Symmetry factor of 1.0 is   
      used for the rotational entropy correction. 
 

Note: Rotational entropy computed according to Herzberg 
Infrared and Raman Spectra, Chapter V,1, Van Nostrand Reinhold, 1945 
Point Group:  C1, Symmetry Number:   1  
Rotational constants in cm-1:     0.572748     0.064048     0.060778 

Vibrational entropy computed according to the QRRHO of S. Grimme
Chem.Eur.J. 2012 18 9955


-------
ENTROPY
-------

The entropy contributions are T*S = T*(S(el)+S(vib)+S(rot)+S(trans))
     S(el)   - electronic entropy
     S(vib)  - vibrational entropy
     S(rot)  - rotational entropy
     S(trans)- translational entropy
The entropies will be listed as multiplied by the temperature to get
units of energy

Electronic entropy                ...      0.00000000 Eh      0.00 kcal/mol
Vibrational entropy               ...      0.00771968 Eh      4.84 kcal/mol
Rotational entropy                ...      0.01239338 Eh      7.78 kcal/mol
Translational entropy             ...      0.01844761 Eh     11.58 kcal/mol
-----------------------------------------------------------------------
Final entropy term                ...      0.03856067 Eh     24.20 kcal/mol

In case the symmetry of your molecule has not been determined correctly
or in case you have a reason to use a different symmetry number we print 
out the resulting rotational entropy values for sn=1,12 :
 --------------------------------------------------------
|  sn= 1 | S(rot)=       0.01239338 Eh      7.78 kcal/mol|
|  sn= 2 | S(rot)=       0.01173892 Eh      7.37 kcal/mol|
|  sn= 3 | S(rot)=       0.01135609 Eh      7.13 kcal/mol|
|  sn= 4 | S(rot)=       0.01108447 Eh      6.96 kcal/mol|
|  sn= 5 | S(rot)=       0.01087378 Eh      6.82 kcal/mol|
|  sn= 6 | S(rot)=       0.01070163 Eh      6.72 kcal/mol|
|  sn= 7 | S(rot)=       0.01055609 Eh      6.62 kcal/mol|
|  sn= 8 | S(rot)=       0.01043001 Eh      6.54 kcal/mol|
|  sn= 9 | S(rot)=       0.01031880 Eh      6.48 kcal/mol|
|  sn=10 | S(rot)=       0.01021932 Eh      6.41 kcal/mol|
|  sn=11 | S(rot)=       0.01012933 Eh      6.36 kcal/mol|
|  sn=12 | S(rot)=       0.01004718 Eh      6.30 kcal/mol|
 --------------------------------------------------------


-------------------
GIBBS FREE ENERGY
-------------------

The Gibbs free energy is G = H - T*S

Total enthalpy                    ...   -214.12561892 Eh 
Total entropy correction          ...     -0.03856067 Eh    -24.20 kcal/mol
-----------------------------------------------------------------------
Final Gibbs free energy         ...   -214.16417958 Eh

For completeness - the Gibbs free energy minus the electronic energy
G-E(el)                           ...      0.13565772 Eh     85.13 kcal/mol


Timings for individual modules:

Sum of individual times         ...      206.568 sec (=   3.443 min)
GTO integral calculation        ...        4.223 sec (=   0.070 min)   2.0 %
SCF iterations                  ...       90.400 sec (=   1.507 min)  43.8 %
SCF Gradient evaluation         ...       21.708 sec (=   0.362 min)  10.5 %
Geometry relaxation             ...        0.198 sec (=   0.003 min)   0.1 %
Analytical frequency calculation...       90.038 sec (=   1.501 min)  43.6 %
                             ****ORCA TERMINATED NORMALLY****
TOTAL RUN TIME: 0 days 0 hours 3 minutes 29 seconds 333 msec
