
                                 *****************
                                 * O   R   C   A *
                                 *****************

                                            #,                                       
                                            ###                                      
                                            ####                                     
                                            #####                                    
                                            ######                                   
                                           ########,                                 
                                     ,,################,,,,,                         
                               ,,#################################,,                 
                          ,,##########################################,,             
                       ,#########################################, ''#####,          
                    ,#############################################,,   '####,        
                  ,##################################################,,,,####,       
                ,###########''''           ''''###############################       
              ,#####''   ,,,,##########,,,,          '''####'''          '####       
            ,##' ,,,,###########################,,,                        '##       
           ' ,,###''''                  '''############,,,                           
         ,,##''                                '''############,,,,        ,,,,,,###''
      ,#''                                            '''#######################'''  
     '                                                          ''''####''''         
             ,#######,   #######,   ,#######,      ##                                
            ,#'     '#,  ##    ##  ,#'     '#,    #''#        ######   ,####,        
            ##       ##  ##   ,#'  ##            #'  '#       #        #'  '#        
            ##       ##  #######   ##           ,######,      #####,   #    #        
            '#,     ,#'  ##    ##  '#,     ,#' ,#      #,         ##   #,  ,#        
             '#######'   ##     ##  '#######'  #'      '#     #####' # '####'        



                  #######################################################
                  #                        -***-                        #
                  #          Department of theory and spectroscopy      #
                  #    Directorship and core code : Frank Neese         #
                  #        Max Planck Institute fuer Kohlenforschung    #
                  #                Kaiser Wilhelm Platz 1               #
                  #                 D-45470 Muelheim/Ruhr               #
                  #                      Germany                        #
                  #                                                     #
                  #                  All rights reserved                #
                  #                        -***-                        #
                  #######################################################


                         Program Version 5.0.4 -  RELEASE  -


 With contributions from (in alphabetic order):
   Daniel Aravena         : Magnetic Suceptibility
   Michael Atanasov       : Ab Initio Ligand Field Theory (pilot matlab implementation)
   Alexander A. Auer      : GIAO ZORA, VPT2 properties, NMR spectrum
   Ute Becker             : Parallelization
   Giovanni Bistoni       : ED, misc. LED, open-shell LED, HFLD
   Martin Brehm           : Molecular dynamics
   Dmytro Bykov           : SCF Hessian
   Vijay G. Chilkuri      : MRCI spin determinant printing, contributions to CSF-ICE
   Dipayan Datta          : RHF DLPNO-CCSD density
   Achintya Kumar Dutta   : EOM-CC, STEOM-CC
   Dmitry Ganyushin       : Spin-Orbit,Spin-Spin,Magnetic field MRCI
   Miquel Garcia          : C-PCM and meta-GGA Hessian, CC/C-PCM, Gaussian charge scheme
   Yang Guo               : DLPNO-NEVPT2, F12-NEVPT2, CIM, IAO-localization
   Andreas Hansen         : Spin unrestricted coupled pair/coupled cluster methods
   Benjamin Helmich-Paris : MC-RPA, TRAH-SCF, COSX integrals
   Lee Huntington         : MR-EOM, pCC
   Robert Izsak           : Overlap fitted RIJCOSX, COSX-SCS-MP3, EOM
   Marcus Kettner         : VPT2
   Christian Kollmar      : KDIIS, OOCD, Brueckner-CCSD(T), CCSD density, CASPT2, CASPT2-K
   Simone Kossmann        : Meta GGA functionals, TD-DFT gradient, OOMP2, MP2 Hessian
   Martin Krupicka        : Initial AUTO-CI
   Lucas Lang             : DCDCAS
   Marvin Lechner         : AUTO-CI (C++ implementation), FIC-MRCC
   Dagmar Lenk            : GEPOL surface, SMD
   Dimitrios Liakos       : Extrapolation schemes; Compound Job, initial MDCI parallelization
   Dimitrios Manganas     : Further ROCIS development; embedding schemes
   Dimitrios Pantazis     : SARC Basis sets
   Anastasios Papadopoulos: AUTO-CI, single reference methods and gradients
   Taras Petrenko         : DFT Hessian,TD-DFT gradient, ASA, ECA, R-Raman, ABS, FL, XAS/XES, NRVS
   Peter Pinski           : DLPNO-MP2, DLPNO-MP2 Gradient
   Christoph Reimann      : Effective Core Potentials
   Marius Retegan         : Local ZFS, SOC
   Christoph Riplinger    : Optimizer, TS searches, QM/MM, DLPNO-CCSD(T), (RO)-DLPNO pert. Triples
   Tobias Risthaus        : Range-separated hybrids, TD-DFT gradient, RPA, STAB
   Michael Roemelt        : Original ROCIS implementation
   Masaaki Saitow         : Open-shell DLPNO-CCSD energy and density
   Barbara Sandhoefer     : DKH picture change effects
   Avijit Sen             : IP-ROCIS
   Kantharuban Sivalingam : CASSCF convergence, NEVPT2, FIC-MRCI
   Bernardo de Souza      : ESD, SOC TD-DFT
   Georgi Stoychev        : AutoAux, RI-MP2 NMR, DLPNO-MP2 response
   Willem Van den Heuvel  : Paramagnetic NMR
   Boris Wezisla          : Elementary symmetry handling
   Frank Wennmohs         : Technical directorship


 We gratefully acknowledge several colleagues who have allowed us to
 interface, adapt or use parts of their codes:
   Stefan Grimme, W. Hujo, H. Kruse, P. Pracht,  : VdW corrections, initial TS optimization,
                  C. Bannwarth, S. Ehlert          DFT functionals, gCP, sTDA/sTD-DF
   Ed Valeev, F. Pavosevic, A. Kumar             : LibInt (2-el integral package), F12 methods
   Garnet Chan, S. Sharma, J. Yang, R. Olivares  : DMRG
   Ulf Ekstrom                                   : XCFun DFT Library
   Mihaly Kallay                                 : mrcc  (arbitrary order and MRCC methods)
   Jiri Pittner, Ondrej Demel                    : Mk-CCSD
   Frank Weinhold                                : gennbo (NPA and NBO analysis)
   Christopher J. Cramer and Donald G. Truhlar   : smd solvation model
   Lars Goerigk                                  : TD-DFT with DH, B97 family of functionals
   V. Asgeirsson, H. Jonsson                     : NEB implementation
   FAccTs GmbH                                   : IRC, NEB, NEB-TS, DLPNO-Multilevel, CI-OPT
                                                   MM, QMMM, 2- and 3-layer-ONIOM, Crystal-QMMM,
                                                   LR-CPCM, SF, NACMEs, symmetry and pop. for TD-DFT,
                                                   nearIR, NL-DFT gradient (VV10), updates on ESD,
                                                   ML-optimized integration grids
   S Lehtola, MJT Oliveira, MAL Marques          : LibXC Library
   Liviu Ungur et al                             : ANISO software


 Your calculation uses the libint2 library for the computation of 2-el integrals
 For citations please refer to: http://libint.valeyev.net

 Your ORCA version has been built with support for libXC version: 5.1.0
 For citations please refer to: https://tddft.org/programs/libxc/

 This ORCA versions uses:
   CBLAS   interface :  Fast vector & matrix operations
   LAPACKE interface :  Fast linear algebra routines
   SCALAPACK package :  Parallel linear algebra routines
   Shared memory     :  Shared parallel matrices
   BLAS/LAPACK       :  OpenBLAS 0.3.15  USE64BITINT DYNAMIC_ARCH NO_AFFINITY SkylakeX SINGLE_THREADED
        Core in use  :  SkylakeX
   Copyright (c) 2011-2014, The OpenBLAS Project


Your calculation utilizes the atom-pairwise dispersion correction
based on tight binding partial charges (D4)
Cite in your paper:
E.Caldeweyher, C.Bannwarth, S.Grimme, J.Chem.Phys., (2017), 147, 034112.
E.Caldeweyher, S.Ehlert, A.Hansen, H.Neugebauer, S.Grimme, J.Chem.Phys., (2018), in progress.
   

XCFun DFT library Copyright 2009-2010 Ulf Ekstrom and contributors.
See http://admol.org/xcfun for more information.
This is free software; see the source code for copying conditions.
There is ABSOLUTELY NO WARRANTY; not even for MERCHANTABILITY or FITNESS FOR A PARTICULAR PURPOSE.
For details see the documentation.
Scientific users of this library should cite U. Ekstrom, L. Visscher, R. Bast, A. J. Thorvaldsen and K. Ruud;
J.Chem.Theor.Comp. 2010, DOI: 10.1021/ct100117s
XCFun Version 0.99 

================================================================================

----- Orbital basis set information -----
Your calculation utilizes the basis: def2-SVP
   F. Weigend and R. Ahlrichs, Phys. Chem. Chem. Phys. 7, 3297 (2005).

----- AuxJ basis set information -----
Your calculation utilizes the auxiliary basis: def2/J
   F. Weigend, Phys. Chem. Chem. Phys. 8, 1057 (2006).

================================================================================
                                        WARNINGS
                       Please study these warnings very carefully!
================================================================================


WARNING: Geometry Optimization
  ===> : Switching off AutoStart
         For restart on a previous wavefunction, please use MOREAD

INFO   : the flag for use of the SHARK integral package has been found!

================================================================================
                                       INPUT FILE
================================================================================
NAME = Min_523.inp
|  1> ! Opt FREQ wB97X D4 Def2-SVP SlowConv TightSCF DEFGRID2 Def2/J RIJCOSX CPCM(Water)
|  2>         
|  3> %MAXCORE 4000
|  4> 
|  5> %scf MaxIter 20000 end
|  6> 
|  7> %geom
|  8> MaxIter 500
|  9> end
| 10> 
| 11> %PAL NPROCS 8 END
| 12> 
| 13> * xyz 1 1
| 14> C 1.05989 -0.18925 -1.34547
| 15> C -0.15046 -0.90961 -1.46263
| 16> N 1.06734 0.36432 -0.09649
| 17> N -0.77788 -0.80863 -0.27295
| 18> C -0.0422 -0.05782 0.55156
| 19> H 1.91751 0.07823 -1.95676
| 20> H -0.52243 -1.56483 -2.24312
| 21> C 2.11326 1.18954 0.51697
| 22> C -2.08758 -1.39437 0.08325
| 23> H 3.04516 1.03928 -0.00277
| 24> H 2.18772 0.85996 1.5838
| 25> H 1.88693 2.27357 0.39478
| 26> H -0.33018 0.44057 1.47738
| 27> H -2.0482 -2.49409 -0.03373
| 28> H -2.93261 -0.99455 -0.55291
| 29> H -2.23324 -1.03338 1.13812
| 30> **                         ****END OF INPUT****
================================================================================

                       *****************************
                       * Geometry Optimization Run *
                       *****************************

Geometry optimization settings:
Update method            Update   .... BFGS
Choice of coordinates    CoordSys .... Z-matrix Internals
Initial Hessian          InHess   .... Almoef's Model

Convergence Tolerances:
Energy Change            TolE     ....  5.0000e-06 Eh
Max. Gradient            TolMAXG  ....  3.0000e-04 Eh/bohr
RMS Gradient             TolRMSG  ....  1.0000e-04 Eh/bohr
Max. Displacement        TolMAXD  ....  4.0000e-03 bohr
RMS Displacement         TolRMSD  ....  2.0000e-03 bohr
Strict Convergence                ....  False
------------------------------------------------------------------------------
                        ORCA OPTIMIZATION COORDINATE SETUP
------------------------------------------------------------------------------

The optimization will be done in new redundant internal coordinates
Making redundant internal coordinates   ...  (new redundants) done
Evaluating the initial hessian          ...  (Almloef) done
Evaluating the coordinates              ...  done
Calculating the B-matrix                .... done
Calculating the G-matrix                .... done
Diagonalizing the G-matrix              .... done
The first mode is                       ....   33
The number of degrees of freedom        ....   42

    -----------------------------------------------------------------
                    Redundant Internal Coordinates


    -----------------------------------------------------------------
         Definition                    Initial Value    Approx d2E/dq
    -----------------------------------------------------------------
      1. B(C   1,C   0)                  1.4134         0.573411   
      2. B(N   2,C   0)                  1.3662         0.610773   
      3. B(N   3,C   1)                  1.3488         0.651102   
      4. B(C   4,N   2)                  1.3525         0.642256   
      5. B(C   4,N   3)                  1.3359         0.682514   
      6. B(H   5,C   0)                  1.0866         0.364605   
      7. B(H   6,C   1)                  1.0848         0.367015   
      8. B(C   7,N   2)                  1.4667         0.422155   
      9. B(C   8,N   3)                  1.4783         0.404618   
     10. B(H   9,C   7)                  1.0776         0.376932   
     11. B(H  10,C   7)                  1.1191         0.323639   
     12. B(H  11,C   7)                  1.1141         0.329558   
     13. B(H  12,C   4)                  1.0902         0.359877   
     14. B(H  13,C   8)                  1.1066         0.338765   
     15. B(H  14,C   8)                  1.1308         0.310016   
     16. B(H  15,C   8)                  1.1244         0.317348   
     17. A(N   2,C   0,H   5)          114.2210         0.350586   
     18. A(C   1,C   0,H   5)          139.0008         0.349015   
     19. A(C   1,C   0,N   2)          106.6768         0.424090   
     20. A(C   0,C   1,H   6)          131.3849         0.349402   
     21. A(C   0,C   1,N   3)          106.6836         0.428975   
     22. A(N   3,C   1,H   6)          121.3534         0.354795   
     23. A(C   0,N   2,C   7)          127.8964         0.399078   
     24. A(C   4,N   2,C   7)          124.0699         0.402626   
     25. A(C   0,N   2,C   4)          107.8847         0.429972   
     26. A(C   1,N   3,C   8)          126.5128         0.400592   
     27. A(C   1,N   3,C   4)          109.2861         0.439735   
     28. A(C   4,N   3,C   8)          124.1844         0.403932   
     29. A(N   2,C   4,N   3)          109.3569         0.438651   
     30. A(N   3,C   4,H  12)          129.4640         0.356453   
     31. A(N   2,C   4,H  12)          118.7464         0.352798   
     32. A(N   2,C   7,H  10)          106.2887         0.323203   
     33. A(N   2,C   7,H   9)          109.6646         0.331424   
     34. A(H  10,C   7,H  11)          113.8680         0.282108   
     35. A(H   9,C   7,H  11)          104.9789         0.288887   
     36. A(N   2,C   7,H  11)          110.8974         0.324165   
     37. A(H   9,C   7,H  10)          111.1742         0.288069   
     38. A(H  13,C   8,H  15)          115.0133         0.282455   
     39. A(N   3,C   8,H  15)          102.3344         0.319936   
     40. A(H  13,C   8,H  14)          108.5722         0.281434   
     41. A(N   3,C   8,H  14)          112.7324         0.318718   
     42. A(H  14,C   8,H  15)          108.5102         0.278610   
     43. A(N   3,C   8,H  13)          109.6797         0.323375   
     44. D(H   6,C   1,C   0,H   5)     10.2311         0.022566   
     45. D(N   3,C   1,C   0,H   5)   -178.6364         0.022566   
     46. D(N   3,C   1,C   0,N   2)     -2.7425         0.022566   
     47. D(H   6,C   1,C   0,N   2)   -173.8751         0.022566   
     48. D(C   7,N   2,C   0,C   1)    179.0857         0.030138   
     49. D(C   4,N   2,C   0,C   1)      3.4241         0.030138   
     50. D(C   4,N   2,C   0,H   5)   -179.5285         0.030138   
     51. D(C   7,N   2,C   0,H   5)     -3.8670         0.030138   
     52. D(C   8,N   3,C   1,C   0)    179.5799         0.034607   
     53. D(C   8,N   3,C   1,H   6)     -8.2038         0.034607   
     54. D(C   4,N   3,C   1,H   6)    173.2393         0.034607   
     55. D(C   4,N   3,C   1,C   0)      1.0229         0.034607   
     56. D(H  12,C   4,N   2,C   0)   -166.8462         0.033594   
     57. D(N   3,C   4,N   2,C   7)   -178.7519         0.033594   
     58. D(N   3,C   4,N   2,C   0)     -2.8845         0.033594   
     59. D(H  12,C   4,N   3,C   8)    -15.7598         0.038357   
     60. D(H  12,C   4,N   3,C   1)    162.8382         0.038357   
     61. D(N   2,C   4,N   3,C   8)   -177.4738         0.038357   
     62. D(N   2,C   4,N   3,C   1)      1.1242         0.038357   
     63. D(H  12,C   4,N   2,C   7)     17.2864         0.033594   
     64. D(H  11,C   7,N   2,C   4)    -89.2420         0.015195   
     65. D(H  11,C   7,N   2,C   0)     95.7439         0.015195   
     66. D(H  10,C   7,N   2,C   4)     35.0078         0.015195   
     67. D(H  10,C   7,N   2,C   0)   -140.0063         0.015195   
     68. D(H   9,C   7,N   2,C   4)    155.2753         0.015195   
     69. D(H   9,C   7,N   2,C   0)    -19.7389         0.015195   
     70. D(H  14,C   8,N   3,C   4)    116.7077         0.013972   
     71. D(H  14,C   8,N   3,C   1)    -61.6458         0.013972   
     72. D(H  13,C   8,N   3,C   4)   -122.1883         0.013972   
     73. D(H  15,C   8,N   3,C   1)   -178.0026         0.013972   
     74. D(H  13,C   8,N   3,C   1)     59.4583         0.013972   
     75. D(H  15,C   8,N   3,C   4)      0.3508         0.013972   
    -----------------------------------------------------------------

Number of atoms                         .... 16
Number of degrees of freedom            .... 75

         *************************************************************
         *                GEOMETRY OPTIMIZATION CYCLE   1            *
         *************************************************************
---------------------------------
CARTESIAN COORDINATES (ANGSTROEM)
---------------------------------
  C      1.059890   -0.189250   -1.345470
  C     -0.150460   -0.909610   -1.462630
  N      1.067340    0.364320   -0.096490
  N     -0.777880   -0.808630   -0.272950
  C     -0.042200   -0.057820    0.551560
  H      1.917510    0.078230   -1.956760
  H     -0.522430   -1.564830   -2.243120
  C      2.113260    1.189540    0.516970
  C     -2.087580   -1.394370    0.083250
  H      3.045160    1.039280   -0.002770
  H      2.187720    0.859960    1.583800
  H      1.886930    2.273570    0.394780
  H     -0.330180    0.440570    1.477380
  H     -2.048200   -2.494090   -0.033730
  H     -2.932610   -0.994550   -0.552910
  H     -2.233240   -1.033380    1.138120

----------------------------
CARTESIAN COORDINATES (A.U.)
----------------------------
  NO LB      ZA    FRAG     MASS         X           Y           Z
   0 C     6.0000    0    12.011    2.002902   -0.357631   -2.542570
   1 C     6.0000    0    12.011   -0.284328   -1.718914   -2.763970
   2 N     7.0000    0    14.007    2.016980    0.688465   -0.182340
   3 N     7.0000    0    14.007   -1.469980   -1.528089   -0.515801
   4 C     6.0000    0    12.011   -0.079746   -0.109264    1.042297
   5 H     1.0000    0     1.008    3.623569    0.147833   -3.697741
   6 H     1.0000    0     1.008   -0.987250   -2.957100   -4.238882
   7 C     6.0000    0    12.011    3.993483    2.247905    0.976932
   8 C     6.0000    0    12.011   -3.944954   -2.634977    0.157320
   9 H     1.0000    0     1.008    5.754518    1.963955   -0.005235
  10 H     1.0000    0     1.008    4.134192    1.625089    2.992948
  11 H     1.0000    0     1.008    3.565781    4.296425    0.746026
  12 H     1.0000    0     1.008   -0.623950    0.832557    2.791844
  13 H     1.0000    0     1.008   -3.870537   -4.713147   -0.063740
  14 H     1.0000    0     1.008   -5.541830   -1.879427   -1.044848
  15 H     1.0000    0     1.008   -4.220212   -1.952805    2.150735

--------------------------------
INTERNAL COORDINATES (ANGSTROEM)
--------------------------------
 C      0   0   0     0.000000000000     0.00000000     0.00000000
 C      1   0   0     1.413361991034     0.00000000     0.00000000
 N      1   2   0     1.366179449340   106.67680097     0.00000000
 N      2   1   3     1.348774005977   106.68355402   357.25748231
 C      4   2   1     1.335948149667   109.28612730     1.02290900
 H      1   2   3     1.086615423644   139.00084935   184.10614609
 H      2   1   3     1.084822367671   131.38486416   186.12494047
 C      3   1   2     1.466720786789   127.89642696   179.08567130
 C      4   2   1     1.478270569821   126.51282797   179.57988586
 H      8   3   1     1.077564543403   109.66462284   340.26114117
 H      8   3   1     1.119059210632   106.28869493   219.99365103
 H      8   3   1     1.114125982957   110.89743786    95.74387862
 H      5   4   2     1.090168677270   129.46396283   162.83823882
 H      9   4   2     1.106625132192   109.67970814    59.45827471
 H      9   4   2     1.130765793124   112.73244203   298.35424661
 H      9   4   2     1.124402655902   102.33444667   181.99736785

---------------------------
INTERNAL COORDINATES (A.U.)
---------------------------
 C      0   0   0     0.000000000000     0.00000000     0.00000000
 C      1   0   0     2.670867091148     0.00000000     0.00000000
 N      1   2   0     2.581705009045   106.67680097     0.00000000
 N      2   1   3     2.548813487849   106.68355402   357.25748231
 C      4   2   1     2.524576131990   109.28612730     1.02290900
 H      1   2   3     2.053405563581   139.00084935   184.10614609
 H      2   1   3     2.050017178851   131.38486416   186.12494047
 C      3   1   2     2.771700601961   127.89642696   179.08567130
 C      4   2   1     2.793526528798   126.51282797   179.57988586
 H      8   3   1     2.036301878656   109.66462284   340.26114117
 H      8   3   1     2.114715435736   106.28869493   219.99365103
 H      8   3   1     2.105392986475   110.89743786    95.74387862
 H      5   4   2     2.060120239819   129.46396283   162.83823882
 H      9   4   2     2.091218432758   109.67970814    59.45827471
 H      9   4   2     2.136837670611   112.73244203   298.35424661
 H      9   4   2     2.124813083909   102.33444667   181.99736785

---------------------
BASIS SET INFORMATION
---------------------
There are 3 groups of distinct atoms

 Group   1 Type C   : 7s4p1d contracted to 3s2p1d pattern {511/31/1}
 Group   2 Type N   : 7s4p1d contracted to 3s2p1d pattern {511/31/1}
 Group   3 Type H   : 4s1p contracted to 2s1p pattern {31/1}

Atom   0C    basis set group =>   1
Atom   1C    basis set group =>   1
Atom   2N    basis set group =>   2
Atom   3N    basis set group =>   2
Atom   4C    basis set group =>   1
Atom   5H    basis set group =>   3
Atom   6H    basis set group =>   3
Atom   7C    basis set group =>   1
Atom   8C    basis set group =>   1
Atom   9H    basis set group =>   3
Atom  10H    basis set group =>   3
Atom  11H    basis set group =>   3
Atom  12H    basis set group =>   3
Atom  13H    basis set group =>   3
Atom  14H    basis set group =>   3
Atom  15H    basis set group =>   3
---------------------------------
AUXILIARY/J BASIS SET INFORMATION
---------------------------------
There are 3 groups of distinct atoms

 Group   1 Type C   : 12s5p4d2f1g contracted to 6s4p3d1f1g pattern {711111/2111/211/2/1}
 Group   2 Type N   : 12s5p4d2f1g contracted to 6s4p3d1f1g pattern {711111/2111/211/2/1}
 Group   3 Type H   : 5s2p1d contracted to 3s1p1d pattern {311/2/1}

Atom   0C    basis set group =>   1
Atom   1C    basis set group =>   1
Atom   2N    basis set group =>   2
Atom   3N    basis set group =>   2
Atom   4C    basis set group =>   1
Atom   5H    basis set group =>   3
Atom   6H    basis set group =>   3
Atom   7C    basis set group =>   1
Atom   8C    basis set group =>   1
Atom   9H    basis set group =>   3
Atom  10H    basis set group =>   3
Atom  11H    basis set group =>   3
Atom  12H    basis set group =>   3
Atom  13H    basis set group =>   3
Atom  14H    basis set group =>   3
Atom  15H    basis set group =>   3


           ************************************************************
           *        Program running with 8 parallel MPI-processes     *
           *              working on a common directory               *
           ************************************************************
------------------------------------------------------------------------------
                           ORCA GTO INTEGRAL CALCULATION
                           -- RI-GTO INTEGRALS CHOSEN --
------------------------------------------------------------------------------
------------------------------------------------------------------------------
                   ___                                                        
                  /   \      - P O W E R E D   B Y -                         
                 /     \                                                     
                 |  |  |   _    _      __       _____    __    __             
                 |  |  |  | |  | |    /  \     |  _  \  |  |  /  |          
                  \  \/   | |  | |   /    \    | | | |  |  | /  /          
                 / \  \   | |__| |  /  /\  \   | |_| |  |  |/  /          
                |  |  |   |  __  | /  /__\  \  |    /   |      \           
                |  |  |   | |  | | |   __   |  |    \   |  |\   \          
                \     /   | |  | | |  |  |  |  | |\  \  |  | \   \       
                 \___/    |_|  |_| |__|  |__|  |_| \__\ |__|  \__/        
                                                                              
                      - O R C A' S   B I G   F R I E N D -                    
                                      &                                       
                       - I N T E G R A L  F E E D E R -                       
                                                                              
 v1 FN, 2020, v2 2021                                                         
------------------------------------------------------------------------------


Reading SHARK input file Min_523.SHARKINP.tmp ... ok
----------------------
SHARK INTEGRAL PACKAGE
----------------------

Number of atoms                             ...     16
Number of basis functions                   ...    143
Number of shells                            ...     69
Maximum angular momentum                    ...      2
Integral batch strategy                     ... SHARK/LIBINT Hybrid
RI-J (if used) integral strategy            ... SPLIT-RIJ (Revised 2003 algorithm where possible)
Printlevel                                  ...      1
Contraction scheme used                     ... SEGMENTED contraction
Coulomb Range Separation                    ... NOT USED
Exchange Range Separation                   ... Long Range
   Mu parameter                             ...  0.300000
   Scaling (regular/separated)              ...  0.157706  0.842294
Finite Nucleus Model                        ... NOT USED
Auxiliary Coulomb fitting basis             ... AVAILABLE
   # of basis functions in Aux-J            ...    442
   # of shells in Aux-J                     ...    150
   Maximum angular momentum in Aux-J        ...      4
Auxiliary J/K fitting basis                 ... NOT available
Auxiliary Correlation fitting basis         ... NOT available
Auxiliary 'external' fitting basis          ... NOT available
Integral threshold                          ...     2.500000e-11
Primitive cut-off                           ...     2.500000e-12
Primitive pair pre-selection threshold      ...     2.500000e-12

Calculating pre-screening integrals         ... done (  0.0 sec) Dimension = 69
Organizing shell pair data                  ... done (  0.1 sec)
Shell pair information
Total number of shell pairs                 ...      2415
Shell pairs after pre-screening             ...      2290
Total number of primitive shell pairs       ...      8503
Primitive shell pairs kept                  ...      6136
          la=0 lb=0:    747 shell pairs
          la=1 lb=0:    847 shell pairs
          la=1 lb=1:    257 shell pairs
          la=2 lb=0:    259 shell pairs
          la=2 lb=1:    153 shell pairs
          la=2 lb=2:     27 shell pairs

Calculating one electron integrals          ... done (  0.0 sec)
Calculating RI/J V-Matrix + Cholesky decomp.... done (  0.1 sec)
Calculating Nuclear repulsion               ... done (  0.0 sec) ENN=    305.873625756882 Eh

SHARK setup successfully completed in   0.3 seconds

Maximum memory used throughout the entire GTOINT-calculation: 11.0 MB


           ************************************************************
           *        Program running with 8 parallel MPI-processes     *
           *              working on a common directory               *
           ************************************************************
-------------------------------------------------------------------------------
                                 ORCA SCF
-------------------------------------------------------------------------------

------------
SCF SETTINGS
------------
Hamiltonian:
 Density Functional     Method          .... DFT(GTOs)
 Exchange Functional    Exchange        .... WB97X
 Correlation Functional Correlation     .... WB97X
 Gradients option       PostSCFGGA      .... off
 Hybrid DFT is turned on
   Fraction HF Exchange ScalHFX         ....  0.157706
   Scaling of DF-GGA-X  ScalDFX         ....  0.000000
   Scaling of DF-GGA-C  ScalDFC         ....  1.000000
   Scaling of DF-LDA-C  ScalLDAC        ....  1.000000
   Perturbative correction              ....  0.000000
   Density functional embedding theory  .... OFF
 Long-range corrected/Screened/Range-Separated Hybrid DFT is turned on
   Amount of maximum screened exact exchange              ....  0.842294
   Range separation parameter mu (erf(mu*r12)/r12)        ....  0.300000
 RI-approximation to the Coulomb term is turned on
   Number of AuxJ basis functions       .... 442
   RIJ-COSX (HFX calculated with COS-X)).... on


General Settings:
 Integral files         IntName         .... Min_523
 Hartree-Fock type      HFTyp           .... RHF
 Total Charge           Charge          ....    1
 Multiplicity           Mult            ....    1
 Number of Electrons    NEL             ....   52
 Basis Dimension        Dim             ....  143
 Nuclear Repulsion      ENuc            ....    305.8736257569 Eh

Convergence Acceleration:
 DIIS                   CNVDIIS         .... on
   Start iteration      DIISMaxIt       ....     0
   Startup error        DIISStart       ....  0.200000
   # of expansion vecs  DIISMaxEq       ....     5
   Bias factor          DIISBfac        ....   1.050
   Max. coefficient     DIISMaxC        ....  10.000
 Trust-Rad. Augm. Hess. CNVTRAH         .... auto
   Auto Start mean grad. ratio tolernc. ....  1.125000
   Auto Start start iteration           ....    20
   Auto Start num. interpolation iter.  ....    10
   Max. Number of Micro iterations      ....    16
   Max. Number of Macro iterations      .... Maxiter - #DIIS iter
   Number of Davidson start vectors     ....     2
   Converg. threshold I  (grad. norm)   ....   1.000e-05
   Converg. threshold II (energy diff.) ....   1.000e-08
   Grad. Scal. Fac. for Micro threshold ....   0.100
   Minimum threshold for Micro iter.    ....   0.010
   NR start threshold (gradient norm)   ....   0.001
   Initial trust radius                 ....   0.400
   Minimum AH scaling param. (alpha)    ....   1.000
   Maximum AH scaling param. (alpha)    .... 1000.000
   Orbital update algorithm             .... Taylor
   White noise on init. David. guess    .... on
   Maximum white noise                  ....   0.010
   Quad. conv. algorithm                .... NR
 SOSCF                  CNVSOSCF        .... on
   Start iteration      SOSCFMaxIt      ....   150
   Startup grad/error   SOSCFStart      ....  0.001000
 Level Shifting         CNVShift        .... on
   Level shift para.    LevelShift      ....    0.2500
   Turn off err/grad.   ShiftErr        ....    0.0000
 Zerner damping         CNVZerner       .... off
 Static damping         CNVDamp         .... on
   Fraction old density DampFac         ....    0.8500
   Max. Damping (<1)    DampMax         ....    0.9800
   Min. Damping (>=0)   DampMin         ....    0.0000
   Turn off err/grad.   DampErr         ....    0.0300
 Fernandez-Rico         CNVRico         .... off

SCF Procedure:
 Maximum # iterations   MaxIter         .... 20000
 SCF integral mode      SCFMode         .... Direct
   Integral package                     .... SHARK and LIBINT hybrid scheme
 Reset frequency        DirectResetFreq ....    20
 Integral Threshold     Thresh          ....  2.500e-11 Eh
 Primitive CutOff       TCut            ....  2.500e-12 Eh

Convergence Tolerance:
 Convergence Check Mode ConvCheckMode   .... Total+1el-Energy
 Convergence forced     ConvForced      .... 0
 Energy Change          TolE            ....  1.000e-08 Eh
 1-El. energy change                    ....  1.000e-05 Eh
 Orbital Gradient       TolG            ....  1.000e-05
 Orbital Rotation angle TolX            ....  1.000e-05
 DIIS Error             TolErr          ....  5.000e-07


Diagonalization of the overlap matrix:
Smallest eigenvalue                        ... 1.768e-03
Time for diagonalization                   ...    0.005 sec
Threshold for overlap eigenvalues          ... 1.000e-08
Number of eigenvalues below threshold      ... 0
Time for construction of square roots      ...    0.005 sec
Total time needed                          ...    0.010 sec

Time for model grid setup =    0.071 sec

------------------------------
INITIAL GUESS: MODEL POTENTIAL
------------------------------
Loading Hartree-Fock densities                     ... done
Calculating cut-offs                               ... done
Initializing the effective Hamiltonian             ... done
Setting up the integral package (SHARK)            ... done
Starting the Coulomb interaction                   ... done (   0.1 sec)
Reading the grid                                   ... done
Mapping shells                                     ... done
Starting the XC term evaluation                    ... done (   0.0 sec)
  promolecular density results
     # of electrons  =     52.996656625
     EX              =    -41.342038803
     EC              =     -1.754393148
     EX+EC           =    -43.096431951
Transforming the Hamiltonian                       ... done (   0.1 sec)
Diagonalizing the Hamiltonian                      ... done (   0.0 sec)
Back transforming the eigenvectors                 ... done (   0.0 sec)
Now organizing SCF variables                       ... done
                      ------------------
                      INITIAL GUESS DONE (   0.4 sec)
                      ------------------
-------------------
DFT GRID GENERATION
-------------------

General Integration Accuracy     IntAcc      ... 4.388
Radial Grid Type                 RadialGrid  ... OptM3 with GC (2021)
Angular Grid (max. ang.)         AngularGrid ... 4 (Lebedev-302)
Angular grid pruning method      GridPruning ... 4 (adaptive)
Weight generation scheme         WeightScheme... Becke
Basis function cutoff            BFCut       ... 1.0000e-11
Integration weight cutoff        WCut        ... 1.0000e-14
Angular grids for H and He will be reduced by one unit
Partially contracted basis set               ... off
Rotationally invariant grid construction     ... off

Total number of grid points                  ...    71283
Total number of batches                      ...     1120
Average number of points per batch           ...       63
Average number of grid points per atom       ...     4455
Time for grid setup =    0.398 sec

--------------------
COSX GRID GENERATION
--------------------

GRIDX 1
-------
General Integration Accuracy     IntAcc      ... 3.816
Radial Grid Type                 RadialGrid  ... OptM3 with GC (2021)
Angular Grid (max. ang.)         AngularGrid ... 1 (Lebedev-50)
Angular grid pruning method      GridPruning ... 4 (adaptive)
Weight generation scheme         WeightScheme... Becke
Basis function cutoff            BFCut       ... 1.0000e-11
Integration weight cutoff        WCut        ... 1.0000e-14
Angular grids for H and He will be reduced by one unit
Partially contracted basis set               ... on
Rotationally invariant grid construction     ... off

Total number of grid points                  ...     9137
Total number of batches                      ...      150
Average number of points per batch           ...       60
Average number of grid points per atom       ...      571
UseSFitting                                  ... on

GRIDX 2
-------
General Integration Accuracy     IntAcc      ... 4.020
Radial Grid Type                 RadialGrid  ... OptM3 with GC (2021)
Angular Grid (max. ang.)         AngularGrid ... 2 (Lebedev-110)
Angular grid pruning method      GridPruning ... 4 (adaptive)
Weight generation scheme         WeightScheme... Becke
Basis function cutoff            BFCut       ... 1.0000e-11
Integration weight cutoff        WCut        ... 1.0000e-14
Angular grids for H and He will be reduced by one unit
Partially contracted basis set               ... on
Rotationally invariant grid construction     ... off

Total number of grid points                  ...    19554
Total number of batches                      ...      311
Average number of points per batch           ...       62
Average number of grid points per atom       ...     1222
UseSFitting                                  ... on

GRIDX 3
-------
General Integration Accuracy     IntAcc      ... 4.338
Radial Grid Type                 RadialGrid  ... OptM3 with GC (2021)
Angular Grid (max. ang.)         AngularGrid ... 3 (Lebedev-194)
Angular grid pruning method      GridPruning ... 4 (adaptive)
Weight generation scheme         WeightScheme... Becke
Basis function cutoff            BFCut       ... 1.0000e-11
Integration weight cutoff        WCut        ... 1.0000e-14
Angular grids for H and He will be reduced by one unit
Partially contracted basis set               ... on
Rotationally invariant grid construction     ... off

Total number of grid points                  ...    42906
Total number of batches                      ...      679
Average number of points per batch           ...       63
Average number of grid points per atom       ...     2682
UseSFitting                                  ... on

Time for X-Grid setup             =    0.510 sec


--------------------
CPCM SOLVATION MODEL
--------------------
CPCM parameters:
  Epsilon                                         ...      80.4000
  Refrac                                          ...       1.3300
  Rsolv                                           ...       1.3000
  Surface type                                    ... GAUSSIAN VDW
  Epsilon function type                           ...         CPCM
Radii:
 Radius for C  used is    3.8550 Bohr (=   2.0400 Ang.)
 Radius for N  used is    3.5149 Bohr (=   1.8600 Ang.)
 Radius for H  used is    2.4944 Bohr (=   1.3200 Ang.)
Calculating surface                               ...        done! (  0.0s)
GEPOL surface points                              ...          916
GEPOL Volume                                      ...     902.9515
GEPOL Surface-area                                ...     533.0576
Calculating surface distance matrix               ...        done! (  0.0s)
Performing Cholesky decomposition & store         ...        done! (  0.0s)
Overall time for CPCM initialization              ...                 0.1s
--------------
SCF ITERATIONS
--------------
ITER       Energy         Delta-E        Max-DP      RMS-DP      [F,P]     Damp
               ***  Starting incremental Fock matrix formation  ***
  0   -304.9380194122   0.000000000000 0.02145275  0.00058662  0.0876342 0.8500
  1   -304.9497535854  -0.011734173155 0.01964568  0.00055021  0.0711849 0.8500
                               ***Turning on DIIS***
  2   -304.9589012219  -0.009147636501 0.01564675  0.00045316  0.0553079 0.8500
  3   -304.9658841838  -0.006982961912 0.01035831  0.00033834  0.0424992 0.8500
  4   -304.9713777045  -0.005493520705 0.00721316  0.00026744  0.0340398 0.8500
  5   -304.9757658858  -0.004388181247 0.03735309  0.00148600  0.0282414 0.0000
  6   -304.9984749579  -0.022709072169 0.00187229  0.00006678  0.0015685 0.0000
                      *** Initiating the SOSCF procedure ***
                           *** Shutting down DIIS ***
                      *** Re-Reading the Fockian *** 
                      *** Removing any level shift *** 
ITER      Energy       Delta-E        Grad      Rot      Max-DP    RMS-DP
  7   -304.99850324  -0.0000282861  0.000273  0.000273  0.001137  0.000030
               *** Restarting incremental Fock matrix formation ***
  8   -304.99850747  -0.0000042217  0.000276  0.000399  0.000524  0.000018
  9   -304.99850822  -0.0000007579  0.000132  0.000199  0.000277  0.000008
 10   -304.99850859  -0.0000003618  0.000015  0.000040  0.000030  0.000001
 11   -304.99850859  -0.0000000032  0.000010  0.000021  0.000023  0.000001
 12   -304.99850859  -0.0000000056  0.000003  0.000009  0.000006  0.000000
                  ***Gradient check signals convergence***
              ***Rediagonalizing the Fockian in SOSCF/NRSCF***

               *****************************************************
               *                     SUCCESS                       *
               *           SCF CONVERGED AFTER  13 CYCLES          *
               *****************************************************

Old exchange energy                            =    -13.471190679 Eh
New exchange energy                            =    -13.471181237 Eh
Exchange energy change after final integration =      0.000009441 Eh
Total energy after final integration           =   -304.998499152 Eh
Final COS-X integration done in                =     2.258 sec

----------------
TOTAL SCF ENERGY
----------------

Total Energy       :         -304.99849915 Eh           -8299.43110 eV

Components:
Nuclear Repulsion  :          305.87362576 Eh            8323.24450 eV
Electronic Energy  :         -610.87212491 Eh          -16622.67560 eV
One Electron Energy:        -1005.36550227 Eh          -27357.38614 eV
Two Electron Energy:          394.49337736 Eh           10734.71054 eV
Max COSX asymmetry :            0.00000119 Eh               0.00003 eV
CPCM Dielectric    :           -0.08467372 Eh              -2.30409 eV

Virial components:
Potential Energy   :         -606.19295749 Eh          -16495.34898 eV
Kinetic Energy     :          301.19445833 Eh            8195.91788 eV
Virial Ratio       :            2.01262985


DFT components:
N(Alpha)           :       26.000016335889 electrons
N(Beta)            :       26.000016335889 electrons
N(Total)           :       52.000032671778 electrons
E(XC)              :      -30.379981252020 Eh       
DFET-embed. en.    :        0.000000000000 Eh       
CPCM Solvation Model Properties:
Surface-charge          :           -1.01229475
Charge-correction       :            0.00184269 Eh               0.05014 eV
Free-energy (cav+disp)  :  This term is not implemented in the current solvation scheme

---------------
SCF CONVERGENCE
---------------

  Last Energy change         ...    5.8134e-10  Tolerance :   1.0000e-08
  Last MAX-Density change    ...    2.2204e-15  Tolerance :   1.0000e-07
  Last RMS-Density change    ...    4.2813e-17  Tolerance :   5.0000e-09
  Last Orbital Gradient      ...    1.0563e-06  Tolerance :   1.0000e-05
  Last Orbital Rotation      ...    2.8784e-06  Tolerance :   1.0000e-05

             **** THE GBW FILE WAS UPDATED (Min_523.gbw) ****
             **** DENSITY Min_523.scfp WAS UPDATED ****
             **** ENERGY FILE WAS UPDATED (Min_523.en.tmp) ****
             **** THE GBW FILE WAS UPDATED (Min_523.gbw) ****
             **** DENSITY Min_523.scfp WAS UPDATED ****
----------------
ORBITAL ENERGIES
----------------

  NO   OCC          E(Eh)            E(eV) 
   0   2.0000     -14.522191      -395.1689 
   1   2.0000     -14.516392      -395.0111 
   2   2.0000     -10.381930      -282.5067 
   3   2.0000     -10.342223      -281.4262 
   4   2.0000     -10.341061      -281.3946 
   5   2.0000     -10.338358      -281.3210 
   6   2.0000     -10.331536      -281.1354 
   7   2.0000      -1.216287       -33.0969 
   8   2.0000      -1.098029       -29.8789 
   9   2.0000      -0.933476       -25.4012 
  10   2.0000      -0.897301       -24.4168 
  11   2.0000      -0.842779       -22.9332 
  12   2.0000      -0.775150       -21.0929 
  13   2.0000      -0.730733       -19.8843 
  14   2.0000      -0.682267       -18.5654 
  15   2.0000      -0.640225       -17.4214 
  16   2.0000      -0.599024       -16.3003 
  17   2.0000      -0.589615       -16.0442 
  18   2.0000      -0.584296       -15.8995 
  19   2.0000      -0.576150       -15.6778 
  20   2.0000      -0.564474       -15.3601 
  21   2.0000      -0.523522       -14.2458 
  22   2.0000      -0.521091       -14.1796 
  23   2.0000      -0.510754       -13.8983 
  24   2.0000      -0.425623       -11.5818 
  25   2.0000      -0.367845       -10.0096 
  26   0.0000       0.051657         1.4057 
  27   0.0000       0.084872         2.3095 
  28   0.0000       0.149594         4.0707 
  29   0.0000       0.156380         4.2553 
  30   0.0000       0.178845         4.8666 
  31   0.0000       0.184950         5.0328 
  32   0.0000       0.204958         5.5772 
  33   0.0000       0.214161         5.8276 
  34   0.0000       0.222456         6.0533 
  35   0.0000       0.230575         6.2743 
  36   0.0000       0.238869         6.4999 
  37   0.0000       0.246178         6.6988 
  38   0.0000       0.253957         6.9105 
  39   0.0000       0.302887         8.2420 
  40   0.0000       0.313647         8.5348 
  41   0.0000       0.319887         8.7046 
  42   0.0000       0.382275        10.4022 
  43   0.0000       0.433063        11.7842 
  44   0.0000       0.452411        12.3107 
  45   0.0000       0.459727        12.5098 
  46   0.0000       0.474664        12.9163 
  47   0.0000       0.509534        13.8651 
  48   0.0000       0.518964        14.1217 
  49   0.0000       0.539774        14.6880 
  50   0.0000       0.571105        15.5406 
  51   0.0000       0.586114        15.9490 
  52   0.0000       0.608202        16.5500 
  53   0.0000       0.631050        17.1717 
  54   0.0000       0.653561        17.7843 
  55   0.0000       0.665165        18.1000 
  56   0.0000       0.688555        18.7365 
  57   0.0000       0.711830        19.3699 
  58   0.0000       0.720086        19.5945 
  59   0.0000       0.730271        19.8717 
  60   0.0000       0.737407        20.0659 
  61   0.0000       0.748927        20.3793 
  62   0.0000       0.750562        20.4238 
  63   0.0000       0.757215        20.6049 
  64   0.0000       0.761595        20.7240 
  65   0.0000       0.780605        21.2413 
  66   0.0000       0.790691        21.5158 
  67   0.0000       0.802614        21.8402 
  68   0.0000       0.814568        22.1655 
  69   0.0000       0.862948        23.4820 
  70   0.0000       0.921873        25.0855 
  71   0.0000       0.942371        25.6432 
  72   0.0000       0.976821        26.5806 
  73   0.0000       0.986426        26.8420 
  74   0.0000       1.032989        28.1091 
  75   0.0000       1.132570        30.8188 
  76   0.0000       1.193577        32.4789 
  77   0.0000       1.200690        32.6724 
  78   0.0000       1.233523        33.5659 
  79   0.0000       1.290627        35.1197 
  80   0.0000       1.304807        35.5056 
  81   0.0000       1.328843        36.1597 
  82   0.0000       1.347851        36.6769 
  83   0.0000       1.424320        38.7577 
  84   0.0000       1.463450        39.8225 
  85   0.0000       1.502506        40.8853 
  86   0.0000       1.555183        42.3187 
  87   0.0000       1.589944        43.2646 
  88   0.0000       1.606629        43.7186 
  89   0.0000       1.631414        44.3930 
  90   0.0000       1.653178        44.9853 
  91   0.0000       1.663480        45.2656 
  92   0.0000       1.696692        46.1693 
  93   0.0000       1.794236        48.8237 
  94   0.0000       1.798847        48.9491 
  95   0.0000       1.807572        49.1865 
  96   0.0000       1.825709        49.6801 
  97   0.0000       1.834914        49.9306 
  98   0.0000       1.852167        50.4000 
  99   0.0000       1.872352        50.9493 
 100   0.0000       1.876482        51.0617 
 101   0.0000       1.903914        51.8081 
 102   0.0000       1.912964        52.0544 
 103   0.0000       1.962113        53.3918 
 104   0.0000       1.984583        54.0032 
 105   0.0000       2.021012        54.9945 
 106   0.0000       2.042031        55.5665 
 107   0.0000       2.073727        56.4290 
 108   0.0000       2.087622        56.8071 
 109   0.0000       2.107633        57.3516 
 110   0.0000       2.130044        57.9615 
 111   0.0000       2.144024        58.3419 
 112   0.0000       2.179167        59.2981 
 113   0.0000       2.200519        59.8792 
 114   0.0000       2.258128        61.4468 
 115   0.0000       2.314375        62.9774 
 116   0.0000       2.364848        64.3508 
 117   0.0000       2.391392        65.0731 
 118   0.0000       2.404981        65.4429 
 119   0.0000       2.461425        66.9788 
 120   0.0000       2.465440        67.0880 
 121   0.0000       2.494921        67.8903 
 122   0.0000       2.509438        68.2853 
 123   0.0000       2.570732        69.9532 
 124   0.0000       2.622328        71.3572 
 125   0.0000       2.642185        71.8975 
 126   0.0000       2.742909        74.6383 
 127   0.0000       2.780548        75.6626 
 128   0.0000       2.802028        76.2470 
 129   0.0000       2.808341        76.4188 
 130   0.0000       2.861717        77.8713 
 131   0.0000       2.889241        78.6203 
 132   0.0000       2.903391        79.0053 
 133   0.0000       2.914190        79.2991 
 134   0.0000       2.967011        80.7365 
 135   0.0000       3.005442        81.7822 
 136   0.0000       3.018648        82.1416 
 137   0.0000       3.046834        82.9086 
 138   0.0000       3.065654        83.4207 
 139   0.0000       3.229094        87.8681 
 140   0.0000       3.434570        93.4594 
 141   0.0000       3.501963        95.2933 
 142   0.0000       3.577885        97.3592 

                    ********************************
                    * MULLIKEN POPULATION ANALYSIS *
                    ********************************

-----------------------
MULLIKEN ATOMIC CHARGES
-----------------------
   0 C :    0.063945
   1 C :    0.058671
   2 N :   -0.234787
   3 N :   -0.199857
   4 C :    0.211226
   5 H :    0.102554
   6 H :    0.107926
   7 C :    0.067895
   8 C :    0.049700
   9 H :    0.088436
  10 H :    0.107698
  11 H :    0.107989
  12 H :    0.141519
  13 H :    0.111307
  14 H :    0.115301
  15 H :    0.100477
Sum of atomic charges:    1.0000000

--------------------------------
MULLIKEN REDUCED ORBITAL CHARGES
--------------------------------
  0 C s       :     3.168411  s :     3.168411
      pz      :     0.816570  p :     2.721005
      px      :     0.936972
      py      :     0.967462
      dz2     :     0.013970  d :     0.046640
      dxz     :     0.009470
      dyz     :     0.010221
      dx2y2   :     0.007520
      dxy     :     0.005458
  1 C s       :     3.154844  s :     3.154844
      pz      :     0.838513  p :     2.739384
      px      :     0.898351
      py      :     1.002520
      dz2     :     0.012697  d :     0.047101
      dxz     :     0.012147
      dyz     :     0.008986
      dx2y2   :     0.006318
      dxy     :     0.006952
  2 N s       :     3.418508  s :     3.418508
      pz      :     1.190163  p :     3.783042
      px      :     1.240450
      py      :     1.352430
      dz2     :     0.007366  d :     0.033237
      dxz     :     0.007799
      dyz     :     0.007204
      dx2y2   :     0.006029
      dxy     :     0.004838
  3 N s       :     3.398173  s :     3.398173
      pz      :     1.166193  p :     3.767272
      px      :     1.240387
      py      :     1.360693
      dz2     :     0.007276  d :     0.034412
      dxz     :     0.010162
      dyz     :     0.006283
      dx2y2   :     0.005676
      dxy     :     0.005013
  4 C s       :     3.092622  s :     3.092622
      pz      :     0.920990  p :     2.631078
      px      :     0.814082
      py      :     0.896006
      dz2     :     0.009934  d :     0.065074
      dxz     :     0.017476
      dyz     :     0.011561
      dx2y2   :     0.014789
      dxy     :     0.011314
  5 H s       :     0.873180  s :     0.873180
      pz      :     0.007149  p :     0.024266
      px      :     0.012447
      py      :     0.004670
  6 H s       :     0.867603  s :     0.867603
      pz      :     0.010672  p :     0.024472
      px      :     0.004356
      py      :     0.009444
  7 C s       :     3.038437  s :     3.038437
      pz      :     1.004202  p :     2.858129
      px      :     0.889979
      py      :     0.963948
      dz2     :     0.006041  d :     0.035539
      dxz     :     0.007738
      dyz     :     0.004979
      dx2y2   :     0.008505
      dxy     :     0.008277
  8 C s       :     3.071213  s :     3.071213
      pz      :     1.048933  p :     2.844429
      px      :     0.778461
      py      :     1.017036
      dz2     :     0.006685  d :     0.034657
      dxz     :     0.005872
      dyz     :     0.003437
      dx2y2   :     0.010713
      dxy     :     0.007949
  9 H s       :     0.886914  s :     0.886914
      pz      :     0.006645  p :     0.024650
      px      :     0.013387
      py      :     0.004617
 10 H s       :     0.869619  s :     0.869619
      pz      :     0.014958  p :     0.022683
      px      :     0.003383
      py      :     0.004342
 11 H s       :     0.869082  s :     0.869082
      pz      :     0.003932  p :     0.022929
      px      :     0.003809
      py      :     0.015189
 12 H s       :     0.834142  s :     0.834142
      pz      :     0.014459  p :     0.024339
      px      :     0.002996
      py      :     0.006884
 13 H s       :     0.865753  s :     0.865753
      pz      :     0.004177  p :     0.022941
      px      :     0.002603
      py      :     0.016161
 14 H s       :     0.862359  s :     0.862359
      pz      :     0.007377  p :     0.022340
      px      :     0.009750
      py      :     0.005213
 15 H s       :     0.877146  s :     0.877146
      pz      :     0.014518  p :     0.022377
      px      :     0.003107
      py      :     0.004753


                     *******************************
                     * LOEWDIN POPULATION ANALYSIS *
                     *******************************

----------------------
LOEWDIN ATOMIC CHARGES
----------------------
   0 C :    0.023418
   1 C :    0.012460
   2 N :    0.094255
   3 N :    0.101922
   4 C :    0.109359
   5 H :    0.059771
   6 H :    0.061386
   7 C :    0.056387
   8 C :    0.055777
   9 H :    0.050831
  10 H :    0.062534
  11 H :    0.059215
  12 H :    0.070791
  13 H :    0.057493
  14 H :    0.063454
  15 H :    0.060947

-------------------------------
LOEWDIN REDUCED ORBITAL CHARGES
-------------------------------
  0 C s       :     2.871825  s :     2.871825
      pz      :     0.929618  p :     2.992217
      px      :     1.052645
      py      :     1.009955
      dz2     :     0.035005  d :     0.112540
      dxz     :     0.023498
      dyz     :     0.024142
      dx2y2   :     0.016909
      dxy     :     0.012985
  1 C s       :     2.861907  s :     2.861907
      pz      :     0.957795  p :     3.010628
      px      :     1.007225
      py      :     1.045608
      dz2     :     0.031816  d :     0.115006
      dxz     :     0.031305
      dyz     :     0.019928
      dx2y2   :     0.014460
      dxy     :     0.017498
  2 N s       :     3.057656  s :     3.057656
      pz      :     1.222477  p :     3.774006
      px      :     1.238543
      py      :     1.312987
      dz2     :     0.017629  d :     0.074082
      dxz     :     0.018833
      dyz     :     0.016153
      dx2y2   :     0.011269
      dxy     :     0.010198
  3 N s       :     3.048009  s :     3.048009
      pz      :     1.216745  p :     3.772566
      px      :     1.232944
      py      :     1.322877
      dz2     :     0.017877  d :     0.077503
      dxz     :     0.024819
      dyz     :     0.014129
      dx2y2   :     0.010261
      dxy     :     0.010418
  4 C s       :     2.848551  s :     2.848551
      pz      :     1.016678  p :     2.892184
      px      :     0.916592
      py      :     0.958913
      dz2     :     0.021284  d :     0.149906
      dxz     :     0.042659
      dyz     :     0.025867
      dx2y2   :     0.032695
      dxy     :     0.027402
  5 H s       :     0.867315  s :     0.867315
      pz      :     0.021745  p :     0.072913
      px      :     0.035737
      py      :     0.015432
  6 H s       :     0.865407  s :     0.865407
      pz      :     0.030819  p :     0.073207
      px      :     0.014557
      py      :     0.027831
  7 C s       :     2.839682  s :     2.839682
      pz      :     1.042191  p :     3.015653
      px      :     0.958839
      py      :     1.014623
      dz2     :     0.017035  d :     0.088278
      dxz     :     0.018564
      dyz     :     0.010820
      dx2y2   :     0.022808
      dxy     :     0.019052
  8 C s       :     2.857007  s :     2.857007
      pz      :     1.071565  p :     3.002323
      px      :     0.875582
      py      :     1.055175
      dz2     :     0.017353  d :     0.084893
      dxz     :     0.014401
      dyz     :     0.007469
      dx2y2   :     0.027428
      dxy     :     0.018242
  9 H s       :     0.879202  s :     0.879202
      pz      :     0.019427  p :     0.069967
      px      :     0.037527
      py      :     0.013013
 10 H s       :     0.874060  s :     0.874060
      pz      :     0.041262  p :     0.063407
      px      :     0.009648
      py      :     0.012496
 11 H s       :     0.876705  s :     0.876705
      pz      :     0.010955  p :     0.064080
      px      :     0.010520
      py      :     0.042605
 12 H s       :     0.854674  s :     0.854674
      pz      :     0.041755  p :     0.074536
      px      :     0.011182
      py      :     0.021598
 13 H s       :     0.876797  s :     0.876797
      pz      :     0.011925  p :     0.065710
      px      :     0.008092
      py      :     0.045693
 14 H s       :     0.874462  s :     0.874462
      pz      :     0.020380  p :     0.062084
      px      :     0.027857
      py      :     0.013846
 15 H s       :     0.876371  s :     0.876371
      pz      :     0.040349  p :     0.062682
      px      :     0.008812
      py      :     0.013521


                      *****************************
                      * MAYER POPULATION ANALYSIS *
                      *****************************

  NA   - Mulliken gross atomic population
  ZA   - Total nuclear charge
  QA   - Mulliken gross atomic charge
  VA   - Mayer's total valence
  BVA  - Mayer's bonded valence
  FA   - Mayer's free valence

  ATOM       NA         ZA         QA         VA         BVA        FA
  0 C      5.9361     6.0000     0.0639     3.8324     3.8324    -0.0000
  1 C      5.9413     6.0000     0.0587     3.8290     3.8290    -0.0000
  2 N      7.2348     7.0000    -0.2348     3.5223     3.5223     0.0000
  3 N      7.1999     7.0000    -0.1999     3.5231     3.5231     0.0000
  4 C      5.7888     6.0000     0.2112     3.8372     3.8372     0.0000
  5 H      0.8974     1.0000     0.1026     0.9982     0.9982    -0.0000
  6 H      0.8921     1.0000     0.1079     0.9957     0.9957    -0.0000
  7 C      5.9321     6.0000     0.0679     3.8409     3.8409     0.0000
  8 C      5.9503     6.0000     0.0497     3.8242     3.8242     0.0000
  9 H      0.9116     1.0000     0.0884     0.9969     0.9969     0.0000
 10 H      0.8923     1.0000     0.1077     0.9900     0.9900     0.0000
 11 H      0.8920     1.0000     0.1080     0.9862     0.9862     0.0000
 12 H      0.8585     1.0000     0.1415     0.9905     0.9905    -0.0000
 13 H      0.8887     1.0000     0.1113     0.9855     0.9855     0.0000
 14 H      0.8847     1.0000     0.1153     0.9833     0.9833     0.0000
 15 H      0.8995     1.0000     0.1005     0.9937     0.9937     0.0000

  Mayer bond orders larger than 0.100000
B(  0-C ,  1-C ) :   1.5316 B(  0-C ,  2-N ) :   1.2179 B(  0-C ,  5-H ) :   0.9882 
B(  1-C ,  3-N ) :   1.2195 B(  1-C ,  6-H ) :   0.9867 B(  2-N ,  4-C ) :   1.3373 
B(  2-N ,  7-C ) :   0.8883 B(  3-N ,  4-C ) :   1.3491 B(  3-N ,  8-C ) :   0.8824 
B(  4-C , 12-H ) :   0.9637 B(  7-C ,  9-H ) :   0.9742 B(  7-C , 10-H ) :   0.9710 
B(  7-C , 11-H ) :   0.9711 B(  8-C , 13-H ) :   0.9714 B(  8-C , 14-H ) :   0.9706 
B(  8-C , 15-H ) :   0.9700 

-------
TIMINGS
-------

Total SCF time: 0 days 0 hours 0 min 24 sec 

Total time                  ....      24.401 sec
Sum of individual times     ....      23.172 sec  ( 95.0%)

Fock matrix formation       ....      21.600 sec  ( 88.5%)
  Split-RI-J                ....       1.073 sec  (  5.0% of F)
  Chain of spheres X        ....      12.382 sec  ( 57.3% of F)
  XC integration            ....       3.998 sec  ( 18.5% of F)
    Basis function eval.    ....       0.618 sec  ( 15.5% of XC)
    Density eval.           ....       0.343 sec  (  8.6% of XC)
    XC-Functional eval.     ....       0.281 sec  (  7.0% of XC)
    XC-Potential eval.      ....       0.369 sec  (  9.2% of XC)
Diagonalization             ....       0.106 sec  (  0.4%)
Density matrix formation    ....       0.006 sec  (  0.0%)
Population analysis         ....       0.052 sec  (  0.2%)
Initial guess               ....       0.282 sec  (  1.2%)
Orbital Transformation      ....       0.000 sec  (  0.0%)
Orbital Orthonormalization  ....       0.000 sec  (  0.0%)
DIIS solution               ....       0.052 sec  (  0.2%)
SOSCF solution              ....       0.095 sec  (  0.4%)
Grid generation             ....       0.979 sec  (  4.0%)

Maximum memory used throughout the entire SCF-calculation: 51.3 MB


-------------------------------------------------------------------------------
                          DFT DISPERSION CORRECTION                            
                                                                               
                                 DFTD4 V2.5                                    
-------------------------------------------------------------------------------
The WB97X functional is recognized
Active option DFTDOPT                   ...         5   

Starting D4
-------------------------   ----------------
Dispersion correction           -0.001649574
-------------------------   ----------------


-------------------------   --------------------
FINAL SINGLE POINT ENERGY      -305.000148725955
-------------------------   --------------------



           ************************************************************
           *        Program running with 8 parallel MPI-processes     *
           *              working on a common directory               *
           ************************************************************
------------------------------------------------------------------------------
                         ORCA SCF GRADIENT CALCULATION
------------------------------------------------------------------------------

 ... reading COSX grid (gridx3)
Gradient of the Kohn-Sham DFT energy:
Kohn-Sham wavefunction type      ... RKS
Hartree-Fock exchange scaling    ...    0.158
Number of operators              ...    1
Number of atoms                  ...   16
Basis set dimensions             ...  143
Integral neglect threshold       ... 2.5e-11
Integral primitive cutoff        ... 2.5e-12
SHARK Integral package           ... ON

Nuc. rep. gradient       (SHARK) ... done (  0.0 sec)
HCore & Overlap gradient (SHARK) ... done (  0.0 sec)
RI-J gradient            (SHARK) ... done (  0.2 sec)
COSX-gradient                    ... done (  2.5 sec)
Exchange-correlation gradient    ... done
Dispersion correction            ... Starting D4
Starting D4
Starting D4
Starting D4
Starting D4
Starting D4


------------------- 
Dispersion Gradient 
------------------- 
   1  :    0.000006874    0.000000969   -0.000006560
   2  :   -0.000003229   -0.000005193   -0.000007293
   3  :    0.000009403    0.000005555   -0.000000708
   4  :   -0.000008720   -0.000005996   -0.000002485
   5  :    0.000000171   -0.000000397   -0.000001435
   6  :    0.000003568    0.000000563   -0.000003758
   7  :   -0.000001581   -0.000002862   -0.000004474
   8  :    0.000023964    0.000018246    0.000010670
   9  :   -0.000028771   -0.000013226    0.000004863
  10  :    0.000005476    0.000003799    0.000002351
  11  :    0.000006424    0.000004713    0.000001491
  12  :    0.000005702    0.000003627    0.000002420
  13  :   -0.000000236    0.000001170    0.000002351
  14  :   -0.000006272   -0.000002497    0.000001158
  15  :   -0.000005377   -0.000003803    0.000001676
  16  :   -0.000007396   -0.000004668   -0.000000266

  |G| =    0.000051915

Starting D4
done

------------------
CARTESIAN GRADIENT
------------------

   1   C   :    0.025683734    0.005140986   -0.000182334
   2   C   :   -0.051192709   -0.011531594    0.012241420
   3   N   :    0.021726913    0.019542821   -0.010725762
   4   N   :    0.012438800   -0.004882827   -0.015487415
   5   C   :   -0.012702387   -0.027645355    0.009396150
   6   H   :    0.003283410    0.009504223    0.012484029
   7   H   :    0.000776090   -0.001277340    0.004472111
   8   C   :    0.014569016   -0.005774674   -0.011087984
   9   C   :    0.005678946   -0.016638913   -0.007504052
  10   H   :   -0.011922984    0.008721384    0.005387272
  11   H   :   -0.002291920   -0.010626950    0.013251098
  12   H   :    0.003727313    0.010490739   -0.006570074
  13   H   :    0.005574825    0.012274448   -0.005915910
  14   H   :   -0.001081089   -0.006442181   -0.006028536
  15   H   :   -0.019926637    0.003347702   -0.007993063
  16   H   :    0.005730030    0.015708403    0.014256843

Difference to translation invariance:
           :    0.0000713524   -0.0000891285   -0.0000062071

Difference to rotation invariance:
           :    0.0004102129    0.0008380042   -0.0002500202

Norm of the cartesian gradient     ...    0.0946733736
RMS gradient                       ...    0.0136649244
MAX gradient                       ...    0.0511927090

-------
TIMINGS
-------

Total SCF gradient time            ...        4.143 sec

One electron gradient       ....       0.029 sec  (  0.7%)
RI-J Coulomb gradient       ....       0.209 sec  (  5.0%)
COSX gradient               ....       2.536 sec  ( 61.2%)
XC gradient                 ....       0.725 sec  ( 17.5%)
CPCM gradient               ....       0.159 sec  (  3.8%)
   A-Matrix (El+Nuc)        ....       0.051 sec  (  1.2%)
   Potential                ....       0.108 sec  (  2.6%)
Starting D4

Maximum memory used throughout the entire SCFGRAD-calculation: 39.6 MB
------------------------------------------------------------------------------
                         ORCA GEOMETRY RELAXATION STEP
------------------------------------------------------------------------------

Reading the OPT-File                    .... done
Getting information on internals        .... done
Copying old internal coords+grads       .... done
Making the new internal coordinates     .... (new redundants).... done
Validating the new internal coordinates .... (new redundants).... done
Calculating the B-matrix                .... done
Calculating the G,G- and P matrices     .... done
Transforming gradient to internals      .... done
Projecting the internal gradient        .... done
Number of atoms                         ....  16
Number of internal coordinates          ....  75
Current Energy                          ....  -305.000148726 Eh
Current gradient norm                   ....     0.094673374 Eh/bohr
Maximum allowed component of the step   ....  0.300
Current trust radius                    ....  0.300
Evaluating the initial hessian          ....  (Almloef) done
Projecting the Hessian                  .... done
Forming the augmented Hessian           .... done
Diagonalizing the augmented Hessian     .... done
Last element of RFO vector              ....  0.965664922
Lowest eigenvalues of augmented Hessian:
 -0.016554738  0.013971983  0.015197658  0.023843948  0.024970032
Length of the computed step             ....  0.269027889
The final length of the internal step   ....  0.269027889
Converting the step to cartesian space:
 Initial RMS(Int)=    0.0310646649
Transforming coordinates:
 Iter   0:  RMS(Cart)=    0.0453578948 RMS(Int)=    0.7249379696
 Iter   1:  RMS(Cart)=    0.0014653966 RMS(Int)=    0.0010151846
 Iter   2:  RMS(Cart)=    0.0000737315 RMS(Int)=    0.0000473298
 Iter   3:  RMS(Cart)=    0.0000057432 RMS(Int)=    0.0000040403
 Iter   4:  RMS(Cart)=    0.0000003333 RMS(Int)=    0.0000002329
 Iter   5:  RMS(Cart)=    0.0000000286 RMS(Int)=    0.0000000184
done
Storing new coordinates                 .... done

                                .--------------------.
          ----------------------|Geometry convergence|-------------------------
          Item                value                   Tolerance       Converged
          ---------------------------------------------------------------------
          RMS gradient        0.0092450701            0.0001000000      NO
          MAX gradient        0.0441017496            0.0003000000      NO
          RMS step            0.0310646649            0.0020000000      NO
          MAX step            0.0896025639            0.0040000000      NO
          ........................................................
          Max(Bonds)      0.0393      Max(Angles)    3.61
          Max(Dihed)        5.13      Max(Improp)    0.00
          ---------------------------------------------------------------------

The optimization has not yet converged - more geometry cycles are needed


    ---------------------------------------------------------------------------
                         Redundant Internal Coordinates
                            (Angstroem and degrees)

        Definition                    Value    dE/dq     Step     New-Value
    ----------------------------------------------------------------------------
     1. B(C   1,C   0)                1.4134  0.044102 -0.0393    1.3740   
     2. B(N   2,C   0)                1.3662 -0.008720  0.0071    1.3732   
     3. B(N   3,C   1)                1.3488 -0.020651  0.0168    1.3656   
     4. B(C   4,N   2)                1.3525  0.016711 -0.0138    1.3387   
     5. B(C   4,N   3)                1.3359  0.008908 -0.0067    1.3292   
     6. B(H   5,C   0)                1.0866 -0.002093  0.0029    1.0895   
     7. B(H   6,C   1)                1.0848 -0.002713  0.0037    1.0886   
     8. B(C   7,N   2)                1.4667  0.004908 -0.0059    1.4608   
     9. B(C   8,N   3)                1.4783  0.008349 -0.0105    1.4678   
    10. B(H   9,C   7)                1.0776 -0.014141  0.0190    1.0966   
    11. B(H  10,C   7)                1.1191  0.015609 -0.0243    1.0948   
    12. B(H  11,C   7)                1.1141  0.010188 -0.0156    1.0986   
    13. B(H  12,C   4)                1.0902 -0.000878  0.0012    1.0914   
    14. B(H  13,C   8)                1.1066  0.006995 -0.0104    1.0962   
    15. B(H  14,C   8)                1.1308  0.020584 -0.0334    1.0974   
    16. B(H  15,C   8)                1.1244  0.017670 -0.0280    1.0964   
    17. A(N   2,C   0,H   5)          114.22 -0.016668    2.68    116.90   
    18. A(C   1,C   0,H   5)          139.00  0.015521   -2.36    136.64   
    19. A(C   1,C   0,N   2)          106.68  0.001086   -0.19    106.49   
    20. A(C   0,C   1,H   6)          131.38  0.002460   -0.30    131.09   
    21. A(C   0,C   1,N   3)          106.68 -0.000727    0.22    106.90   
    22. A(N   3,C   1,H   6)          121.35 -0.001936    0.40    121.75   
    23. A(C   0,N   2,C   7)          127.90  0.008201   -0.98    126.91   
    24. A(C   4,N   2,C   7)          124.07  0.001623   -0.06    124.01   
    25. A(C   0,N   2,C   4)          107.88 -0.009919    1.17    109.05   
    26. A(C   1,N   3,C   8)          126.51  0.002384   -0.32    126.19   
    27. A(C   1,N   3,C   4)          109.29 -0.001308    0.18    109.47   
    28. A(C   4,N   3,C   8)          124.18 -0.001101    0.16    124.35   
    29. A(N   2,C   4,N   3)          109.36  0.010765   -1.22    108.14   
    30. A(N   3,C   4,H  12)          129.46  0.004266   -0.38    129.09   
    31. A(N   2,C   4,H  12)          118.75 -0.016172    2.98    121.73   
    32. A(N   2,C   7,H  10)          106.29 -0.009776    1.46    107.75   
    33. A(N   2,C   7,H   9)          109.66  0.005061   -0.66    109.01   
    34. A(H  10,C   7,H  11)          113.87  0.005729   -1.48    112.39   
    35. A(H   9,C   7,H  11)          104.98 -0.007409    1.83    106.81   
    36. A(N   2,C   7,H  11)          110.90  0.004226   -0.69    110.21   
    37. A(H   9,C   7,H  10)          111.17  0.002774   -0.55    110.63   
    38. A(H  13,C   8,H  15)          115.01  0.010052   -1.98    113.03   
    39. A(N   3,C   8,H  15)          102.33 -0.019884    3.61    105.95   
    40. A(H  13,C   8,H  14)          108.57 -0.004728    0.53    109.10   
    41. A(N   3,C   8,H  14)          112.73  0.012889   -2.19    110.55   
    42. A(H  14,C   8,H  15)          108.51  0.001173    0.35    108.86   
    43. A(N   3,C   8,H  13)          109.68  0.000924   -0.36    109.32   
    44. D(H   6,C   1,C   0,H   5)     10.23  0.002427   -3.07      7.16   
    45. D(N   3,C   1,C   0,H   5)   -178.64  0.000630   -0.56   -179.20   
    46. D(N   3,C   1,C   0,N   2)     -2.74 -0.001528    2.16     -0.58   
    47. D(H   6,C   1,C   0,N   2)   -173.88  0.000269   -0.35   -174.23   
    48. D(C   7,N   2,C   0,C   1)    179.09 -0.000344   -0.55    178.54   
    49. D(C   4,N   2,C   0,C   1)      3.42  0.001129   -2.38      1.05   
    50. D(C   4,N   2,C   0,H   5)   -179.53  0.000887   -0.63   -180.16   
    51. D(C   7,N   2,C   0,H   5)     -3.87 -0.000587    1.20     -2.66   
    52. D(C   8,N   3,C   1,C   0)    179.58 -0.000737    0.07    179.65   
    53. D(C   8,N   3,C   1,H   6)     -8.20 -0.001854    2.20     -6.00   
    54. D(C   4,N   3,C   1,H   6)    173.24 -0.000783    1.11    174.35   
    55. D(C   4,N   3,C   1,C   0)      1.02  0.000334   -1.02     -0.00   
    56. D(H  12,C   4,N   2,C   0)   -166.85  0.000994   -2.46   -169.30   
    57. D(N   3,C   4,N   2,C   7)   -178.75 -0.000467    0.17   -178.58   
    58. D(N   3,C   4,N   2,C   0)     -2.88 -0.001488    1.86     -1.03   
    59. D(H  12,C   4,N   3,C   8)    -15.76 -0.005475    4.08    -11.68   
    60. D(H  12,C   4,N   3,C   1)    162.84 -0.006454    5.13    167.97   
    61. D(N   2,C   4,N   3,C   8)   -177.47  0.001470   -1.52   -179.00   
    62. D(N   2,C   4,N   3,C   1)      1.12  0.000491   -0.47      0.65   
    63. D(H  12,C   4,N   2,C   7)     17.29  0.002015   -4.15     13.14   
    64. D(H  11,C   7,N   2,C   4)    -89.24 -0.003174    1.76    -87.48   
    65. D(H  11,C   7,N   2,C   0)     95.74 -0.001105   -0.38     95.37   
    66. D(H  10,C   7,N   2,C   4)     35.01  0.000026    0.49     35.50   
    67. D(H  10,C   7,N   2,C   0)   -140.01  0.002095   -1.65   -141.66   
    68. D(H   9,C   7,N   2,C   4)    155.28  0.000394    0.33    155.60   
    69. D(H   9,C   7,N   2,C   0)    -19.74  0.002464   -1.81    -21.55   
    70. D(H  14,C   8,N   3,C   4)    116.71 -0.003099    1.45    118.15   
    71. D(H  14,C   8,N   3,C   1)    -61.65 -0.001885    0.20    -61.44   
    72. D(H  13,C   8,N   3,C   4)   -122.19  0.000167    0.40   -121.79   
    73. D(H  15,C   8,N   3,C   1)   -178.00  0.002368   -1.30   -179.31   
    74. D(H  13,C   8,N   3,C   1)     59.46  0.001381   -0.85     58.61   
    75. D(H  15,C   8,N   3,C   4)      0.35  0.001154   -0.06      0.29   
    ----------------------------------------------------------------------------

         *************************************************************
         *                GEOMETRY OPTIMIZATION CYCLE   2            *
         *************************************************************
---------------------------------
CARTESIAN COORDINATES (ANGSTROEM)
---------------------------------
  C      1.039806   -0.182154   -1.344314
  C     -0.127381   -0.898962   -1.451813
  N      1.049658    0.358747   -0.082150
  N     -0.776440   -0.781633   -0.256125
  C     -0.055096   -0.027867    0.567663
  H      1.886130    0.054274   -1.988437
  H     -0.497541   -1.548525   -2.243030
  C      2.102652    1.178118    0.512638
  C     -2.072894   -1.377463    0.088218
  H      3.042357    0.995637   -0.022290
  H      2.195529    0.890152    1.564774
  H      1.868966    2.244447    0.389572
  H     -0.343679    0.415872    1.522114
  H     -2.012755   -2.466208   -0.024433
  H     -2.861267   -0.991663   -0.570521
  H     -2.285013   -1.063832    1.117165

----------------------------
CARTESIAN COORDINATES (A.U.)
----------------------------
  NO LB      ZA    FRAG     MASS         X           Y           Z
   0 C     6.0000    0    12.011    1.964948   -0.344220   -2.540386
   1 C     6.0000    0    12.011   -0.240716   -1.698792   -2.743528
   2 N     7.0000    0    14.007    1.983566    0.677934   -0.155241
   3 N     7.0000    0    14.007   -1.467260   -1.477072   -0.484006
   4 C     6.0000    0    12.011   -0.104116   -0.052661    1.072728
   5 H     1.0000    0     1.008    3.564269    0.102562   -3.757602
   6 H     1.0000    0     1.008   -0.940216   -2.926287   -4.238713
   7 C     6.0000    0    12.011    3.973437    2.226320    0.968745
   8 C     6.0000    0    12.011   -3.917202   -2.603028    0.166708
   9 H     1.0000    0     1.008    5.749222    1.881482   -0.042123
  10 H     1.0000    0     1.008    4.148948    1.682143    2.956994
  11 H     1.0000    0     1.008    3.531833    4.241390    0.736184
  12 H     1.0000    0     1.008   -0.649458    0.785884    2.876379
  13 H     1.0000    0     1.008   -3.803556   -4.660458   -0.046171
  14 H     1.0000    0     1.008   -5.407011   -1.873972   -1.078128
  15 H     1.0000    0     1.008   -4.318049   -2.010352    2.111135

--------------------------------
INTERNAL COORDINATES (ANGSTROEM)
--------------------------------
 C      0   0   0     0.000000000000     0.00000000     0.00000000
 C      1   0   0     1.373934277854     0.00000000     0.00000000
 N      1   2   0     1.373218635120   106.46980648     0.00000000
 N      2   1   3     1.365545000806   106.88500052   359.41287763
 C      4   2   1     1.329333395660   109.47618505     0.00000000
 H      1   2   3     1.089521378537   136.62326598   181.42515723
[...]
     37      -0.041277  -0.002113   0.000358   0.002989   0.022033  -0.093591
     38      -0.004103   0.010562   0.005322   0.006589   0.080097  -0.000580
     39      -0.220065  -0.442919   0.215778  -0.322829  -0.007223  -0.197993
     40      -0.027834   0.004275   0.034025  -0.023330   0.041611   0.005041
     41       0.259192  -0.133768  -0.343577   0.200278  -0.327758  -0.281721
     42      -0.163606  -0.293223  -0.242945   0.108526   0.180063  -0.014681
     43      -0.037752  -0.410731   0.023079  -0.171367  -0.192169  -0.310376
     44       0.190087   0.189190   0.327906  -0.219665  -0.300270  -0.157866
     45      -0.266589  -0.322215  -0.262103   0.130704   0.419811   0.386080
     46      -0.255893  -0.066475   0.449212  -0.359073   0.221235   0.248202
     47      -0.048669  -0.085469  -0.177511   0.117702   0.074956   0.029788
                 36         37         38         39         40         41    
      0       0.135469  -0.283014  -0.048432   0.000120  -0.000232   0.000021
      1       0.097684  -0.188705  -0.049293   0.000085  -0.000339  -0.000017
      2       0.053770  -0.064575  -0.062728   0.000064  -0.000610  -0.000012
      3      -0.157740   0.300099  -0.068220  -0.000442   0.000304   0.000165
      4      -0.081809   0.174685  -0.023791  -0.000096   0.000104  -0.000057
      5       0.036145  -0.009757   0.050658   0.000502  -0.000220   0.000147
      6       0.133362   0.178873   0.240965   0.000167  -0.000706  -0.000028
      7       0.040583   0.087104   0.138448   0.000038  -0.000408   0.000042
      8      -0.116847  -0.056459  -0.010429  -0.000241  -0.000143  -0.000018
      9      -0.074017  -0.150943   0.222707  -0.000608   0.000306   0.000336
     10      -0.093465  -0.118640   0.150030  -0.000396   0.000266  -0.000399
     11      -0.150301  -0.088590   0.053153   0.000072   0.000259   0.000123
     12      -0.038801  -0.023295  -0.375046  -0.000887  -0.000702  -0.000075
     13       0.036563   0.026013  -0.233284  -0.000557  -0.000399   0.000127
     14       0.181401   0.121883  -0.033864  -0.000214   0.000078  -0.000032
     15       0.036305   0.018937   0.140298   0.001799   0.000519  -0.000327
     16      -0.019069   0.161657   0.142150   0.000693   0.000546   0.000129
     17      -0.125061   0.463865   0.181422  -0.001066   0.000389   0.000137
     18       0.029948  -0.217942   0.207657   0.001311   0.000900  -0.000997
     19      -0.022686   0.012230   0.078109   0.000866   0.000999  -0.000083
     20      -0.128144   0.443512  -0.140045   0.000455   0.001355  -0.001280
     21      -0.034530  -0.036160  -0.032547   0.006696   0.037823   0.000905
     22      -0.023473  -0.016237  -0.018876   0.004541   0.025693  -0.001597
     23      -0.007269   0.014249  -0.002615   0.002394   0.013481   0.000575
     24       0.037090   0.028746  -0.031167   0.040606  -0.007300  -0.048104
     25       0.020349   0.024192  -0.020535   0.023939  -0.004305   0.079403
     26      -0.000654   0.020378  -0.002945  -0.006197   0.001115  -0.025818
     27      -0.140778  -0.102157  -0.117009  -0.090494  -0.508877  -0.012300
     28      -0.199674  -0.122054  -0.159171   0.055644   0.311401   0.007313
     29       0.171988  -0.016201  -0.065472   0.003056   0.016457   0.000493
     30       0.308518   0.090178  -0.014241   0.021545   0.119586   0.000017
     31       0.177529   0.058913  -0.010262  -0.020433  -0.114355  -0.000063
     32       0.030196   0.028645   0.001127  -0.087390  -0.487570   0.000271
     33      -0.297018  -0.152314  -0.169559  -0.008274  -0.047585   0.001354
     34       0.043238  -0.045958  -0.064587  -0.087927  -0.494325   0.011987
     35       0.065049  -0.049308  -0.100202   0.056159   0.314602  -0.007685
     36      -0.040818  -0.041242   0.477852   0.001532   0.000352   0.000116
     37       0.048199   0.029927   0.300041   0.000766   0.000555  -0.000311
     38       0.223546   0.170870   0.047556  -0.000389   0.000917  -0.000235
     39       0.245425   0.159024  -0.198387   0.063026  -0.010997   0.072715
     40       0.023180   0.039132  -0.038401  -0.594258   0.106163  -0.706418
     41       0.246627   0.009348   0.030924  -0.056062   0.009925  -0.073427
     42       0.081115   0.116050  -0.141280  -0.412028   0.073764   0.487780
     43       0.326330   0.123233  -0.130109   0.198664  -0.035341  -0.229664
     44       0.124532  -0.024437   0.067066  -0.360103   0.064190   0.432485
     45      -0.350123  -0.096301  -0.010330  -0.121506   0.021690   0.008452
     46      -0.229796  -0.056547  -0.006211   0.118384  -0.020966  -0.005651
     47      -0.034986   0.010077  -0.002471   0.488819  -0.086836  -0.052652
                 42         43         44         45         46         47    
      0       0.000054   0.000023   0.000032  -0.003825  -0.043231  -0.052747
      1       0.000177   0.000016  -0.000110  -0.002118  -0.011691  -0.017364
      2      -0.000175  -0.000090  -0.000463   0.000411   0.043128   0.042980
      3      -0.000011   0.000124  -0.000055   0.006107  -0.023713   0.031564
      4       0.000010  -0.000024  -0.000017   0.005781  -0.030296   0.034529
      5       0.000009  -0.000437   0.000027   0.006738  -0.050772   0.049461
      6      -0.000223  -0.000112  -0.000249   0.003744   0.000407  -0.000159
      7       0.000475  -0.000123  -0.000288   0.001278  -0.000128  -0.000987
      8      -0.000116  -0.000151  -0.000387  -0.002861  -0.001122  -0.002706
      9       0.000014   0.000430   0.000067  -0.002331  -0.000396   0.001313
     10      -0.000028   0.000152   0.000028  -0.002530   0.000039  -0.000053
     11       0.000008  -0.000308  -0.000016  -0.003526   0.000839  -0.002527
     12       0.000079  -0.000166   0.000191  -0.019646   0.000574   0.002575
     13      -0.000114  -0.000210   0.000085   0.017579   0.002078  -0.002278
     14       0.000044  -0.000059  -0.000023   0.089589   0.005326  -0.011647
     15      -0.001017   0.000166  -0.003822   0.029902   0.495281   0.508849
     16      -0.001134   0.000074  -0.001326   0.008788   0.142617   0.148661
     17       0.001388  -0.000181   0.003187  -0.027844  -0.467553  -0.473860
     18       0.000048   0.002246  -0.000659  -0.048298   0.282873  -0.277839
     19      -0.000361   0.002352  -0.000673  -0.058531   0.344343  -0.334578
     20      -0.000118   0.003410  -0.001006  -0.093710   0.553129  -0.531903
     21       0.045633  -0.006065  -0.043470  -0.000165  -0.000336  -0.000070
     22      -0.080102   0.000723   0.005026  -0.000040  -0.000172   0.000008
     23       0.028239   0.011864   0.084607   0.000248   0.000575   0.000548
     24       0.000991   0.004016  -0.000596   0.000111  -0.000206  -0.000063
     25      -0.001643   0.031507  -0.004446   0.000132  -0.000178   0.000030
     26       0.000530   0.089911  -0.012587   0.000379  -0.000587   0.000481
     27      -0.602929   0.041499   0.297723  -0.001162   0.001154  -0.000134
     28       0.365124  -0.025928  -0.185845  -0.000394  -0.000299   0.000525
     29       0.025986  -0.000627  -0.004256  -0.000541   0.000275   0.000527
     30      -0.000322   0.027821   0.197870  -0.000922   0.001348   0.001759
     31      -0.002739  -0.026000  -0.185228  -0.000744   0.000062   0.000069
     32       0.019081  -0.111911  -0.797043  -0.000318  -0.001917  -0.002584
     33       0.061837   0.003583   0.025901  -0.000852   0.000519   0.000360
     34       0.586654   0.044243   0.316779  -0.000922   0.002988   0.001416
     35      -0.380021  -0.027489  -0.196674  -0.000442  -0.001436  -0.000193
     36      -0.000179  -0.001259   0.000834   0.206129   0.012234  -0.023452
     37       0.000263  -0.000698   0.000537  -0.186947  -0.010470   0.021300
     38       0.000018  -0.000110  -0.000093  -0.947291  -0.054349   0.107778
     39      -0.001587   0.036702  -0.005138   0.000900   0.000313  -0.000421
     40       0.014319  -0.323543   0.045742   0.000752   0.001556   0.000166
     41       0.001523  -0.024675   0.003476  -0.000354  -0.000135   0.000446
     42      -0.009787  -0.284893   0.040101   0.000772   0.002880  -0.001241
     43       0.004710   0.141337  -0.019847   0.000578  -0.000942   0.000254
     44      -0.008804  -0.244987   0.034444  -0.000619   0.001677  -0.000164
     45      -0.000172   0.194362  -0.027197   0.001432   0.000557  -0.000593
     46       0.000123  -0.193677   0.027063   0.000588   0.001089  -0.001193
     47       0.001100  -0.792797   0.110867  -0.000303   0.002009  -0.002310


-----------
IR SPECTRUM
-----------

 Mode   freq       eps      Int      T**2         TX        TY        TZ
       cm**-1   L/(mol*cm) km/mol    a.u.
----------------------------------------------------------------------------
  6:     88.45   0.000070    0.35  0.000248  ( 0.008587 -0.012340  0.004650)
  7:    130.22   0.000037    0.19  0.000089  (-0.004032  0.007422 -0.004202)
  8:    195.39   0.001322    6.68  0.002112  (-0.022364  0.038116 -0.012591)
  9:    278.84   0.000019    0.10  0.000021  ( 0.001813 -0.001116 -0.004116)
 10:    283.49   0.000227    1.15  0.000250  (-0.003245  0.003699  0.015011)
 11:    425.29   0.000063    0.32  0.000046  (-0.005922 -0.003310 -0.000648)
 12:    626.08   0.000235    1.19  0.000117  (-0.001501  0.000448  0.010708)
 13:    645.95   0.009636   48.70  0.004655  (-0.033554  0.056685 -0.017784)
 14:    647.21   0.000355    1.79  0.000171  ( 0.007100 -0.010350  0.003699)
 15:    741.12   0.000822    4.15  0.000346  ( 0.015806  0.009743  0.001104)
 16:    771.67   0.010440   52.76  0.004222  (-0.032319  0.053732 -0.017043)
 17:    886.83   0.005991   30.28  0.002108  ( 0.022925 -0.037764  0.012506)
 18:    916.02   0.000000    0.00  0.000000  ( 0.000143 -0.000280  0.000012)
 19:   1051.35   0.001264    6.39  0.000375  ( 0.016380  0.010266  0.001176)
 20:   1054.91   0.000840    4.25  0.000249  (-0.001037  0.004191  0.015165)
 21:   1097.52   0.003117   15.75  0.000886  (-0.009145  0.002539  0.028216)
 22:   1107.07   0.002768   13.99  0.000780  ( 0.022540  0.015312  0.006131)
 23:   1121.11   0.000036    0.18  0.000010  (-0.002728 -0.001286  0.000954)
 24:   1143.47   0.000071    0.36  0.000019  ( 0.004295  0.000352  0.000842)
 25:   1149.33   0.000301    1.52  0.000082  (-0.003511  0.008204 -0.001459)
 26:   1210.14   0.023345  117.98  0.006020  (-0.065729 -0.040854 -0.005533)
 27:   1285.45   0.000114    0.58  0.000028  (-0.004347 -0.002848 -0.000802)
 28:   1407.66   0.000014    0.07  0.000003  ( 0.000092 -0.000075  0.001750)
 29:   1435.47   0.000421    2.13  0.000092  ( 0.007116  0.005579  0.003136)
 30:   1439.35   0.003735   18.87  0.000810  ( 0.026467  0.009843  0.003517)
 31:   1446.60   0.002848   14.39  0.000614  (-0.000016  0.014191 -0.020322)
 32:   1448.44   0.000359    1.82  0.000077  (-0.003909  0.003424 -0.007102)
 33:   1449.75   0.008407   42.48  0.001810  ( 0.020681 -0.036655  0.006191)
 34:   1460.14   0.007986   40.36  0.001707  ( 0.008677 -0.010293 -0.039058)
 35:   1499.00   0.000125    0.63  0.000026  (-0.003729 -0.003138 -0.001536)
 36:   1516.17   0.001346    6.80  0.000277  (-0.003512  0.003886  0.015796)
 37:   1661.76   0.002211   11.18  0.000415  (-0.003678  0.004237  0.019591)
 38:   1675.68   0.027700  139.98  0.005159  (-0.060629 -0.037970 -0.006402)
 39:   3103.81   0.003133   15.83  0.000315  ( 0.015050  0.009373 -0.000766)
 40:   3104.56   0.001608    8.13  0.000162  ( 0.009788  0.006719  0.004546)
 41:   3221.65   0.000051    0.26  0.000005  (-0.000907  0.001917 -0.000630)
 42:   3222.33   0.000040    0.20  0.000004  ( 0.001141 -0.001525  0.000447)
 43:   3237.00   0.000020    0.10  0.000002  ( 0.000961  0.000293 -0.000977)
 44:   3237.17   0.000007    0.04  0.000001  (-0.000663 -0.000461 -0.000199)
 45:   3301.96   0.012147   61.39  0.001148  ( 0.006086 -0.007047 -0.032578)
 46:   3302.62   0.005585   28.22  0.000528  ( 0.019731  0.011760  0.000356)
 47:   3320.58   0.002787   14.08  0.000262  ( 0.003616 -0.002639 -0.015551)

* The epsilon (eps) is given for a Dirac delta lineshape.
** The dipole moment derivative (T) already includes vibrational overlap.

The first frequency considered to be a vibration is 6
The total number of vibrations considered is 42


--------------------------
THERMOCHEMISTRY AT 298.15K
--------------------------

Temperature         ... 298.15 K
Pressure            ... 1.00 atm
Total Mass          ... 97.14 AMU

Throughout the following assumptions are being made:
  (1) The electronic state is orbitally nondegenerate
  (2) There are no thermally accessible electronically excited states
  (3) Hindered rotations indicated by low frequency modes are not
      treated as such but are treated as vibrations and this may
      cause some error
  (4) All equations used are the standard statistical mechanics
      equations for an ideal gas
  (5) All vibrations are strictly harmonic

freq.      88.45  E(vib)   ...       0.48 
freq.     130.22  E(vib)   ...       0.43 
freq.     195.39  E(vib)   ...       0.36 
freq.     278.84  E(vib)   ...       0.28 
freq.     283.49  E(vib)   ...       0.28 
freq.     425.29  E(vib)   ...       0.18 
freq.     626.08  E(vib)   ...       0.09 
freq.     645.95  E(vib)   ...       0.09 
freq.     647.21  E(vib)   ...       0.09 
freq.     741.12  E(vib)   ...       0.06 
freq.     771.67  E(vib)   ...       0.05 
freq.     886.83  E(vib)   ...       0.04 
freq.     916.02  E(vib)   ...       0.03 
freq.    1051.35  E(vib)   ...       0.02 
freq.    1054.91  E(vib)   ...       0.02 
freq.    1097.52  E(vib)   ...       0.02 
freq.    1107.07  E(vib)   ...       0.02 
freq.    1121.11  E(vib)   ...       0.01 
freq.    1143.47  E(vib)   ...       0.01 
freq.    1149.33  E(vib)   ...       0.01 
freq.    1210.14  E(vib)   ...       0.01 
freq.    1285.45  E(vib)   ...       0.01 
freq.    1407.66  E(vib)   ...       0.00 
freq.    1435.47  E(vib)   ...       0.00 
freq.    1439.35  E(vib)   ...       0.00 
freq.    1446.60  E(vib)   ...       0.00 
freq.    1448.44  E(vib)   ...       0.00 
freq.    1449.75  E(vib)   ...       0.00 
freq.    1460.14  E(vib)   ...       0.00 
freq.    1499.00  E(vib)   ...       0.00 
freq.    1516.17  E(vib)   ...       0.00 
freq.    1661.76  E(vib)   ...       0.00 
freq.    1675.68  E(vib)   ...       0.00 
freq.    3103.81  E(vib)   ...       0.00 
freq.    3104.56  E(vib)   ...       0.00 
freq.    3221.65  E(vib)   ...       0.00 
freq.    3222.33  E(vib)   ...       0.00 
freq.    3237.00  E(vib)   ...       0.00 
freq.    3237.17  E(vib)   ...       0.00 
freq.    3301.96  E(vib)   ...       0.00 
freq.    3302.62  E(vib)   ...       0.00 
freq.    3320.58  E(vib)   ...       0.00 

------------
INNER ENERGY
------------

The inner energy is: U= E(el) + E(ZPE) + E(vib) + E(rot) + E(trans)
    E(el)   - is the total energy from the electronic structure calculation
              = E(kin-el) + E(nuc-el) + E(el-el) + E(nuc-nuc)
    E(ZPE)  - the the zero temperature vibrational energy from the frequency calculation
    E(vib)  - the the finite temperature correction to E(ZPE) due to population
              of excited vibrational states
    E(rot)  - is the rotational thermal energy
    E(trans)- is the translational thermal energy

Summary of contributions to the inner energy U:
Electronic energy                ...   -305.01612918 Eh
Zero point energy                ...      0.14204058 Eh      89.13 kcal/mol
Thermal vibrational correction   ...      0.00414785 Eh       2.60 kcal/mol
Thermal rotational correction    ...      0.00141627 Eh       0.89 kcal/mol
Thermal translational correction ...      0.00141627 Eh       0.89 kcal/mol
-----------------------------------------------------------------------
Total thermal energy                   -304.86710820 Eh


Summary of corrections to the electronic energy:
(perhaps to be used in another calculation)
Total thermal correction                  0.00698039 Eh       4.38 kcal/mol
Non-thermal (ZPE) correction              0.14204058 Eh      89.13 kcal/mol
-----------------------------------------------------------------------
Total correction                          0.14902097 Eh      93.51 kcal/mol


--------
ENTHALPY
--------

The enthalpy is H = U + kB*T
                kB is Boltzmann's constant
Total free energy                 ...   -304.86710820 Eh 
Thermal Enthalpy correction       ...      0.00094421 Eh       0.59 kcal/mol
-----------------------------------------------------------------------
Total Enthalpy                    ...   -304.86616399 Eh


Note: Only C1 symmetry has been detected, increase convergence thresholds 
      if your molecule has a higher symmetry. Symmetry factor of 1.0 is   
      used for the rotational entropy correction. 
 

Note: Rotational entropy computed according to Herzberg 
Infrared and Raman Spectra, Chapter V,1, Van Nostrand Reinhold, 1945 
Point Group:  C1, Symmetry Number:   1  
Rotational constants in cm-1:     0.227833     0.068832     0.053964 

Vibrational entropy computed according to the QRRHO of S. Grimme
Chem.Eur.J. 2012 18 9955


-------
ENTROPY
-------

The entropy contributions are T*S = T*(S(el)+S(vib)+S(rot)+S(trans))
     S(el)   - electronic entropy
     S(vib)  - vibrational entropy
     S(rot)  - rotational entropy
     S(trans)- translational entropy
The entropies will be listed as multiplied by the temperature to get
units of energy

Electronic entropy                ...      0.00000000 Eh      0.00 kcal/mol
Vibrational entropy               ...      0.00702874 Eh      4.41 kcal/mol
Rotational entropy                ...      0.01285070 Eh      8.06 kcal/mol
Translational entropy             ...      0.01883016 Eh     11.82 kcal/mol
-----------------------------------------------------------------------
Final entropy term                ...      0.03870960 Eh     24.29 kcal/mol

In case the symmetry of your molecule has not been determined correctly
or in case you have a reason to use a different symmetry number we print 
out the resulting rotational entropy values for sn=1,12 :
 --------------------------------------------------------
|  sn= 1 | S(rot)=       0.01285070 Eh      8.06 kcal/mol|
|  sn= 2 | S(rot)=       0.01219624 Eh      7.65 kcal/mol|
|  sn= 3 | S(rot)=       0.01181341 Eh      7.41 kcal/mol|
|  sn= 4 | S(rot)=       0.01154179 Eh      7.24 kcal/mol|
|  sn= 5 | S(rot)=       0.01133110 Eh      7.11 kcal/mol|
|  sn= 6 | S(rot)=       0.01115895 Eh      7.00 kcal/mol|
|  sn= 7 | S(rot)=       0.01101341 Eh      6.91 kcal/mol|
|  sn= 8 | S(rot)=       0.01088733 Eh      6.83 kcal/mol|
|  sn= 9 | S(rot)=       0.01077612 Eh      6.76 kcal/mol|
|  sn=10 | S(rot)=       0.01067664 Eh      6.70 kcal/mol|
|  sn=11 | S(rot)=       0.01058665 Eh      6.64 kcal/mol|
|  sn=12 | S(rot)=       0.01050450 Eh      6.59 kcal/mol|
 --------------------------------------------------------


-------------------
GIBBS FREE ENERGY
-------------------

The Gibbs free energy is G = H - T*S

Total enthalpy                    ...   -304.86616399 Eh 
Total entropy correction          ...     -0.03870960 Eh    -24.29 kcal/mol
-----------------------------------------------------------------------
Final Gibbs free energy         ...   -304.90487360 Eh

For completeness - the Gibbs free energy minus the electronic energy
G-E(el)                           ...      0.11125558 Eh     69.81 kcal/mol


Timings for individual modules:

Sum of individual times         ...      451.527 sec (=   7.525 min)
GTO integral calculation        ...       11.730 sec (=   0.196 min)   2.6 %
SCF iterations                  ...      301.117 sec (=   5.019 min)  66.7 %
SCF Gradient evaluation         ...       69.296 sec (=   1.155 min)  15.3 %
Geometry relaxation             ...        0.764 sec (=   0.013 min)   0.2 %
Analytical frequency calculation...       68.620 sec (=   1.144 min)  15.2 %
                             ****ORCA TERMINATED NORMALLY****
TOTAL RUN TIME: 0 days 0 hours 7 minutes 57 seconds 625 msec
