
                                 *****************
                                 * O   R   C   A *
                                 *****************

                                            #,                                       
                                            ###                                      
                                            ####                                     
                                            #####                                    
                                            ######                                   
                                           ########,                                 
                                     ,,################,,,,,                         
                               ,,#################################,,                 
                          ,,##########################################,,             
                       ,#########################################, ''#####,          
                    ,#############################################,,   '####,        
                  ,##################################################,,,,####,       
                ,###########''''           ''''###############################       
              ,#####''   ,,,,##########,,,,          '''####'''          '####       
            ,##' ,,,,###########################,,,                        '##       
           ' ,,###''''                  '''############,,,                           
         ,,##''                                '''############,,,,        ,,,,,,###''
      ,#''                                            '''#######################'''  
     '                                                          ''''####''''         
             ,#######,   #######,   ,#######,      ##                                
            ,#'     '#,  ##    ##  ,#'     '#,    #''#        ######   ,####,        
            ##       ##  ##   ,#'  ##            #'  '#       #        #'  '#        
            ##       ##  #######   ##           ,######,      #####,   #    #        
            '#,     ,#'  ##    ##  '#,     ,#' ,#      #,         ##   #,  ,#        
             '#######'   ##     ##  '#######'  #'      '#     #####' # '####'        



                  #######################################################
                  #                        -***-                        #
                  #          Department of theory and spectroscopy      #
                  #    Directorship and core code : Frank Neese         #
                  #        Max Planck Institute fuer Kohlenforschung    #
                  #                Kaiser Wilhelm Platz 1               #
                  #                 D-45470 Muelheim/Ruhr               #
                  #                      Germany                        #
                  #                                                     #
                  #                  All rights reserved                #
                  #                        -***-                        #
                  #######################################################


                         Program Version 5.0.3 -  RELEASE  -


 With contributions from (in alphabetic order):
   Daniel Aravena         : Magnetic Suceptibility
   Michael Atanasov       : Ab Initio Ligand Field Theory (pilot matlab implementation)
   Alexander A. Auer      : GIAO ZORA, VPT2 properties, NMR spectrum
   Ute Becker             : Parallelization
   Giovanni Bistoni       : ED, misc. LED, open-shell LED, HFLD
   Martin Brehm           : Molecular dynamics
   Dmytro Bykov           : SCF Hessian
   Vijay G. Chilkuri      : MRCI spin determinant printing, contributions to CSF-ICE
   Dipayan Datta          : RHF DLPNO-CCSD density
   Achintya Kumar Dutta   : EOM-CC, STEOM-CC
   Dmitry Ganyushin       : Spin-Orbit,Spin-Spin,Magnetic field MRCI
   Miquel Garcia          : C-PCM and meta-GGA Hessian, CC/C-PCM, Gaussian charge scheme
   Yang Guo               : DLPNO-NEVPT2, F12-NEVPT2, CIM, IAO-localization
   Andreas Hansen         : Spin unrestricted coupled pair/coupled cluster methods
   Benjamin Helmich-Paris : MC-RPA, TRAH-SCF, COSX integrals
   Lee Huntington         : MR-EOM, pCC
   Robert Izsak           : Overlap fitted RIJCOSX, COSX-SCS-MP3, EOM
   Marcus Kettner         : VPT2
   Christian Kollmar      : KDIIS, OOCD, Brueckner-CCSD(T), CCSD density, CASPT2, CASPT2-K
   Simone Kossmann        : Meta GGA functionals, TD-DFT gradient, OOMP2, MP2 Hessian
   Martin Krupicka        : Initial AUTO-CI
   Lucas Lang             : DCDCAS
   Marvin Lechner         : AUTO-CI (C++ implementation), FIC-MRCC
   Dagmar Lenk            : GEPOL surface, SMD
   Dimitrios Liakos       : Extrapolation schemes; Compound Job, initial MDCI parallelization
   Dimitrios Manganas     : Further ROCIS development; embedding schemes
   Dimitrios Pantazis     : SARC Basis sets
   Anastasios Papadopoulos: AUTO-CI, single reference methods and gradients
   Taras Petrenko         : DFT Hessian,TD-DFT gradient, ASA, ECA, R-Raman, ABS, FL, XAS/XES, NRVS
   Peter Pinski           : DLPNO-MP2, DLPNO-MP2 Gradient
   Christoph Reimann      : Effective Core Potentials
   Marius Retegan         : Local ZFS, SOC
   Christoph Riplinger    : Optimizer, TS searches, QM/MM, DLPNO-CCSD(T), (RO)-DLPNO pert. Triples
   Tobias Risthaus        : Range-separated hybrids, TD-DFT gradient, RPA, STAB
   Michael Roemelt        : Original ROCIS implementation
   Masaaki Saitow         : Open-shell DLPNO-CCSD energy and density
   Barbara Sandhoefer     : DKH picture change effects
   Avijit Sen             : IP-ROCIS
   Kantharuban Sivalingam : CASSCF convergence, NEVPT2, FIC-MRCI
   Bernardo de Souza      : ESD, SOC TD-DFT
   Georgi Stoychev        : AutoAux, RI-MP2 NMR, DLPNO-MP2 response
   Willem Van den Heuvel  : Paramagnetic NMR
   Boris Wezisla          : Elementary symmetry handling
   Frank Wennmohs         : Technical directorship


 We gratefully acknowledge several colleagues who have allowed us to
 interface, adapt or use parts of their codes:
   Stefan Grimme, W. Hujo, H. Kruse, P. Pracht,  : VdW corrections, initial TS optimization,
                  C. Bannwarth, S. Ehlert          DFT functionals, gCP, sTDA/sTD-DF
   Ed Valeev, F. Pavosevic, A. Kumar             : LibInt (2-el integral package), F12 methods
   Garnet Chan, S. Sharma, J. Yang, R. Olivares  : DMRG
   Ulf Ekstrom                                   : XCFun DFT Library
   Mihaly Kallay                                 : mrcc  (arbitrary order and MRCC methods)
   Jiri Pittner, Ondrej Demel                    : Mk-CCSD
   Frank Weinhold                                : gennbo (NPA and NBO analysis)
   Christopher J. Cramer and Donald G. Truhlar   : smd solvation model
   Lars Goerigk                                  : TD-DFT with DH, B97 family of functionals
   V. Asgeirsson, H. Jonsson                     : NEB implementation
   FAccTs GmbH                                   : IRC, NEB, NEB-TS, DLPNO-Multilevel, CI-OPT
                                                   MM, QMMM, 2- and 3-layer-ONIOM, Crystal-QMMM,
                                                   LR-CPCM, SF, NACMEs, symmetry and pop. for TD-DFT,
                                                   nearIR, NL-DFT gradient (VV10), updates on ESD,
                                                   ML-optimized integration grids
   S Lehtola, MJT Oliveira, MAL Marques          : LibXC Library
   Liviu Ungur et al                             : ANISO software


 Your calculation uses the libint2 library for the computation of 2-el integrals
 For citations please refer to: http://libint.valeyev.net

 Your ORCA version has been built with support for libXC version: 5.1.0
 For citations please refer to: https://tddft.org/programs/libxc/

 This ORCA versions uses:
   CBLAS   interface :  Fast vector & matrix operations
   LAPACKE interface :  Fast linear algebra routines
   SCALAPACK package :  Parallel linear algebra routines
   Shared memory     :  Shared parallel matrices
   BLAS/LAPACK       :  OpenBLAS 0.3.15  USE64BITINT DYNAMIC_ARCH NO_AFFINITY SkylakeX SINGLE_THREADED
        Core in use  :  SkylakeX
   Copyright (c) 2011-2014, The OpenBLAS Project




***************************************
The coordinates will be read from file: PhH+.xyz
***************************************


Your calculation utilizes the atom-pairwise dispersion correction
based on tight binding partial charges (D4)
Cite in your paper:
E.Caldeweyher, C.Bannwarth, S.Grimme, J.Chem.Phys., (2017), 147, 034112.
E.Caldeweyher, S.Ehlert, A.Hansen, H.Neugebauer, S.Grimme, J.Chem.Phys., (2018), in progress.
   

XCFun DFT library Copyright 2009-2010 Ulf Ekstrom and contributors.
See http://admol.org/xcfun for more information.
This is free software; see the source code for copying conditions.
There is ABSOLUTELY NO WARRANTY; not even for MERCHANTABILITY or FITNESS FOR A PARTICULAR PURPOSE.
For details see the documentation.
Scientific users of this library should cite U. Ekstrom, L. Visscher, R. Bast, A. J. Thorvaldsen and K. Ruud;
J.Chem.Theor.Comp. 2010, DOI: 10.1021/ct100117s
XCFun Version 0.99 

================================================================================

----- Orbital basis set information -----
Your calculation utilizes the basis: def2-SVP
   F. Weigend and R. Ahlrichs, Phys. Chem. Chem. Phys. 7, 3297 (2005).

----- AuxJ basis set information -----
Your calculation utilizes the auxiliary basis: def2/J
   F. Weigend, Phys. Chem. Chem. Phys. 8, 1057 (2006).

================================================================================
                                        WARNINGS
                       Please study these warnings very carefully!
================================================================================

WARNING: Old DensityContainer found on disk!
         Will remove this file - 
         If you want to keep old densities, please start your calculation with a different basename. 


WARNING: Geometry Optimization
  ===> : Switching off AutoStart
         For restart on a previous wavefunction, please use MOREAD

INFO   : the flag for use of the SHARK integral package has been found!

================================================================================
                                       INPUT FILE
================================================================================
NAME = PhH+_Water.inp
|  1> # ORCAForces - ../2023_02/pKa_prediction/Yates_carbene_xyzs/Our_level/Water/PhH+_Water.inp
|  2> # Basic Mode
|  3> #
|  4> ! Opt FREQ wB97X D4 Def2-SVP SlowConv TightSCF DEFGRID2 Def2/J RIJCOSX CPCM(Water)
|  5> 
|  6> %maxcore 4500
|  7> 
|  8> %PAL NPROCS 4 END
|  9> 
| 10> %geom 
| 11> Maxiter 150
| 12> END
| 13> 
| 14> * xyzfile 1 1 PhH+.xyz
| 15> 
| 16>                          ****END OF INPUT****
================================================================================

                       *****************************
                       * Geometry Optimization Run *
                       *****************************

Geometry optimization settings:
Update method            Update   .... BFGS
Choice of coordinates    CoordSys .... Z-matrix Internals
Initial Hessian          InHess   .... Almoef's Model

Convergence Tolerances:
Energy Change            TolE     ....  5.0000e-06 Eh
Max. Gradient            TolMAXG  ....  3.0000e-04 Eh/bohr
RMS Gradient             TolRMSG  ....  1.0000e-04 Eh/bohr
Max. Displacement        TolMAXD  ....  4.0000e-03 bohr
RMS Displacement         TolRMSD  ....  2.0000e-03 bohr
Strict Convergence                ....  False
------------------------------------------------------------------------------
                        ORCA OPTIMIZATION COORDINATE SETUP
------------------------------------------------------------------------------

The optimization will be done in new redundant internal coordinates
Making redundant internal coordinates   ...  (new redundants) done
Evaluating the initial hessian          ...  (Almloef) done
Evaluating the coordinates              ...  done
Calculating the B-matrix                .... done
Calculating the G-matrix                .... done
Diagonalizing the G-matrix              .... done
Small eigenvalue found = 5.780e-03
Small eigenvalue found = 1.065e-02
The first mode is                       ....   75
The number of degrees of freedom        ....   84

    -----------------------------------------------------------------
                    Redundant Internal Coordinates


    -----------------------------------------------------------------
         Definition                    Initial Value    Approx d2E/dq
    -----------------------------------------------------------------
      1. B(C   1,C   0)                  1.3593         0.699364   
      2. B(H   2,C   0)                  1.0760         0.379122   
      3. B(H   3,C   1)                  1.0760         0.379122   
      4. B(C   5,C   4)                  1.3927         0.618586   
      5. B(C   6,C   4)                  1.3927         0.618662   
      6. B(C   7,C   5)                  1.3923         0.619636   
      7. B(H   8,C   5)                  1.0837         0.368549   
      8. B(C   9,C   6)                  1.3918         0.620707   
      9. B(H  10,C   6)                  1.0835         0.368780   
     10. B(C  11,C   9)                  1.3939         0.615825   
     11. B(C  11,C   7)                  1.3934         0.616938   
     12. B(H  12,C   7)                  1.0829         0.369576   
     13. B(H  13,C   9)                  1.0829         0.369578   
     14. B(H  14,C  11)                  1.0831         0.369358   
     15. B(C  16,C  15)                  1.3927         0.618586   
     16. B(C  17,C  15)                  1.3927         0.618662   
     17. B(C  18,C  16)                  1.3923         0.619636   
     18. B(H  19,C  16)                  1.0837         0.368549   
     19. B(C  20,C  17)                  1.3918         0.620707   
     20. B(H  21,C  17)                  1.0835         0.368780   
     21. B(C  22,C  20)                  1.3939         0.615825   
     22. B(C  22,C  18)                  1.3934         0.616938   
     23. B(H  23,C  18)                  1.0829         0.369576   
     24. B(H  24,C  20)                  1.0829         0.369578   
     25. B(H  25,C  22)                  1.0831         0.369358   
     26. B(H  27,C  26)                  1.0764         0.378520   
     27. B(N  28,C  26)                  1.3392         0.674359   
     28. B(N  28,C   4)                  1.4455         0.456453   
     29. B(N  28,C   0)                  1.3859         0.568012   
     30. B(N  29,C  15)                  1.4455         0.456453   
     31. B(N  29,C   1)                  1.3859         0.568012   
     32. B(N  29,C  26)                  1.3392         0.674359   
     33. A(C   1,C   0,N  28)          107.1715         0.433783   
     34. A(C   1,C   0,H   2)          131.0927         0.363381   
     35. A(H   2,C   0,N  28)          121.7294         0.348607   
     36. A(C   0,C   1,N  29)          107.1715         0.433783   
     37. A(H   3,C   1,N  29)          121.7294         0.348607   
     38. A(C   0,C   1,H   3)          131.0927         0.363381   
     39. A(C   5,C   4,N  28)          119.2504         0.408145   
     40. A(C   5,C   4,C   6)          121.8026         0.433719   
     41. A(C   6,C   4,N  28)          118.9467         0.408154   
     42. A(C   4,C   5,H   8)          120.5822         0.354161   
     43. A(C   4,C   5,C   7)          118.7675         0.433842   
     44. A(C   7,C   5,H   8)          120.6324         0.354263   
     45. A(C   4,C   6,H  10)          120.5661         0.354206   
     46. A(C   9,C   6,H  10)          120.6834         0.354404   
     47. A(C   4,C   6,C   9)          118.7398         0.433986   
     48. A(C  11,C   7,H  12)          120.2514         0.354168   
     49. A(C   5,C   7,H  12)          119.5515         0.354430   
     50. A(C   5,C   7,C  11)          120.1919         0.433634   
     51. A(C   6,C   9,H  13)          119.5448         0.354534   
     52. A(C   6,C   9,C  11)          120.2322         0.433628   
     53. A(C  11,C   9,H  13)          120.2203         0.354060   
     54. A(C   7,C  11,C   9)          120.2622         0.433153   
     55. A(C   9,C  11,H  14)          119.8686         0.354024   
     56. A(C   7,C  11,H  14)          119.8690         0.354132   
     57. A(C  17,C  15,N  29)          118.9467         0.408154   
     58. A(C  16,C  15,N  29)          119.2504         0.408145   
     59. A(C  16,C  15,C  17)          121.8026         0.433719   
     60. A(C  18,C  16,H  19)          120.6324         0.354263   
     61. A(C  15,C  16,H  19)          120.5822         0.354161   
     62. A(C  15,C  16,C  18)          118.7675         0.433842   
     63. A(C  20,C  17,H  21)          120.6834         0.354404   
     64. A(C  15,C  17,H  21)          120.5661         0.354206   
     65. A(C  15,C  17,C  20)          118.7398         0.433986   
     66. A(C  22,C  18,H  23)          120.2514         0.354168   
     67. A(C  16,C  18,H  23)          119.5515         0.354430   
     68. A(C  16,C  18,C  22)          120.1919         0.433634   
     69. A(C  17,C  20,H  24)          119.5448         0.354534   
     70. A(C  17,C  20,C  22)          120.2322         0.433628   
     71. A(C  22,C  20,H  24)          120.2203         0.354060   
     72. A(C  18,C  22,C  20)          120.2622         0.433153   
     73. A(C  20,C  22,H  25)          119.8686         0.354024   
     74. A(C  18,C  22,H  25)          119.8690         0.354132   
     75. A(N  28,C  26,N  29)          108.7865         0.441572   
     76. A(H  27,C  26,N  29)          125.6067         0.358793   
     77. A(H  27,C  26,N  28)          125.6067         0.358793   
     78. A(C   4,N  28,C  26)          125.4442         0.411764   
     79. A(C   0,N  28,C  26)          108.4352         0.428139   
     80. A(C   0,N  28,C   4)          126.1160         0.399467   
     81. A(C  15,N  29,C  26)          125.4442         0.411764   
     82. A(C   1,N  29,C  26)          108.4352         0.428139   
     83. A(C   1,N  29,C  15)          126.1160         0.399467   
     84. D(H   3,C   1,C   0,N  28)   -179.0180         0.034443   
     85. D(H   3,C   1,C   0,H   2)      1.9167         0.034443   
     86. D(N  29,C   1,C   0,H   2)   -179.0180         0.034443   
     87. D(N  29,C   1,C   0,N  28)      0.0474         0.034443   
     88. D(C   7,C   5,C   4,C   6)     -0.5382         0.026471   
     89. D(C   7,C   5,C   4,N  28)    179.6580         0.026471   
     90. D(H   8,C   5,C   4,N  28)     -1.8695         0.026471   
     91. D(H   8,C   5,C   4,C   6)    177.9343         0.026471   
     92. D(H  10,C   6,C   4,C   5)    178.8242         0.026478   
     93. D(H  10,C   6,C   4,N  28)     -1.3715         0.026478   
     94. D(C   9,C   6,C   4,N  28)    179.8131         0.026478   
     95. D(C   9,C   6,C   4,C   5)      0.0087         0.026478   
     96. D(H  12,C   7,C   5,C   4)    179.8081         0.026566   
     97. D(C  11,C   7,C   5,H   8)   -177.8284         0.026566   
     98. D(C  11,C   7,C   5,C   4)      0.6433         0.026566   
     99. D(H  12,C   7,C   5,H   8)      1.3364         0.026566   
    100. D(H  13,C   9,C   6,H  10)      1.0015         0.026664   
    101. D(C  11,C   9,C   6,C   4)      0.4181         0.026664   
    102. D(C  11,C   9,C   6,H  10)   -178.3960         0.026664   
    103. D(H  13,C   9,C   6,C   4)    179.8156         0.026664   
    104. D(H  14,C  11,C   9,H  13)      0.4382         0.026221   
    105. D(C   7,C  11,C   9,H  13)   -179.7046         0.026221   
    106. D(C   7,C  11,C   9,C   6)     -0.3113         0.026221   
    107. D(H  14,C  11,C   7,H  12)      0.4687         0.026322   
    108. D(H  14,C  11,C   7,C   5)    179.6276         0.026322   
    109. D(H  14,C  11,C   9,C   6)    179.8316         0.026221   
    110. D(C   9,C  11,C   7,H  12)   -179.3885         0.026322   
    111. D(C   9,C  11,C   7,C   5)     -0.2296         0.026322   
    112. D(C  18,C  16,C  15,C  17)     -0.5382         0.026471   
    113. D(C  18,C  16,C  15,N  29)    179.6580         0.026471   
    114. D(H  19,C  16,C  15,C  17)    177.9343         0.026471   
    115. D(H  19,C  16,C  15,N  29)     -1.8695         0.026471   
    116. D(H  21,C  17,C  15,N  29)     -1.3715         0.026478   
    117. D(H  21,C  17,C  15,C  16)    178.8242         0.026478   
    118. D(C  20,C  17,C  15,N  29)    179.8131         0.026478   
    119. D(C  20,C  17,C  15,C  16)      0.0087         0.026478   
    120. D(H  23,C  18,C  16,H  19)      1.3364         0.026566   
    121. D(H  23,C  18,C  16,C  15)    179.8081         0.026566   
    122. D(C  22,C  18,C  16,H  19)   -177.8284         0.026566   
    123. D(C  22,C  18,C  16,C  15)      0.6433         0.026566   
    124. D(H  24,C  20,C  17,H  21)      1.0015         0.026664   
    125. D(H  24,C  20,C  17,C  15)    179.8156         0.026664   
    126. D(C  22,C  20,C  17,H  21)   -178.3960         0.026664   
    127. D(C  22,C  20,C  17,C  15)      0.4181         0.026664   
    128. D(H  25,C  22,C  20,H  24)      0.4382         0.026221   
    129. D(H  25,C  22,C  20,C  17)    179.8316         0.026221   
    130. D(C  18,C  22,C  20,H  24)   -179.7046         0.026221   
    131. D(C  18,C  22,C  20,C  17)     -0.3113         0.026221   
    132. D(H  25,C  22,C  18,H  23)      0.4687         0.026322   
    133. D(H  25,C  22,C  18,C  16)    179.6276         0.026322   
    134. D(C  20,C  22,C  18,H  23)   -179.3885         0.026322   
    135. D(C  20,C  22,C  18,C  16)     -0.2296         0.026322   
    136. D(C   0,N  28,C  26,N  29)      0.0149         0.037361   
    137. D(C   0,N  28,C  26,H  27)   -179.9851         0.037361   
    138. D(C  26,N  28,C   4,C   6)    126.5135         0.016411   
    139. D(C  26,N  28,C   4,C   5)    -53.6771         0.016411   
    140. D(C   0,N  28,C   4,C   6)    -54.3619         0.016411   
    141. D(C   0,N  28,C   4,C   5)    125.4476         0.016411   
    142. D(C  26,N  28,C   0,H   2)    179.1326         0.025810   
    143. D(C  26,N  28,C   0,C   1)     -0.0392         0.025810   
    144. D(C   4,N  28,C   0,H   2)     -0.1157         0.025810   
    145. D(C   4,N  28,C  26,H  27)     -0.7305         0.037361   
    146. D(C   4,N  28,C   0,C   1)   -179.2875         0.025810   
    147. D(C   4,N  28,C  26,N  29)    179.2695         0.037361   
    148. D(C  15,N  29,C  26,N  28)    179.2695         0.037361   
    149. D(C   1,N  29,C  26,N  28)      0.0149         0.037361   
    150. D(C   1,N  29,C  26,H  27)   -179.9851         0.037361   
    151. D(C  26,N  29,C  15,C  17)    126.5135         0.016411   
    152. D(C  26,N  29,C  15,C  16)    -53.6771         0.016411   
    153. D(C   1,N  29,C  15,C  17)    -54.3619         0.016411   
    154. D(C   1,N  29,C  15,C  16)    125.4476         0.016411   
    155. D(C  26,N  29,C   1,H   3)    179.1326         0.025810   
    156. D(C  26,N  29,C   1,C   0)     -0.0392         0.025810   
    157. D(C  15,N  29,C  26,H  27)     -0.7305         0.037361   
    158. D(C  15,N  29,C   1,H   3)     -0.1157         0.025810   
    159. D(C  15,N  29,C   1,C   0)   -179.2875         0.025810   
    -----------------------------------------------------------------

Number of atoms                         .... 30
Number of degrees of freedom            .... 159

         *************************************************************
         *                GEOMETRY OPTIMIZATION CYCLE   1            *
         *************************************************************
---------------------------------
CARTESIAN COORDINATES (ANGSTROEM)
---------------------------------
  C      0.003813    0.679644   -1.861372
  C     -0.003813   -0.679644   -1.861372
  H     -0.005782    1.386933   -2.672174
  H      0.005782   -1.386933   -2.672174
  C      0.000000    2.455944   -0.067910
  C     -0.988856    2.864596    0.823625
  C      0.983131    3.330214   -0.524724
  C     -0.981498    4.181716    1.274759
  H     -1.763977    2.176727    1.140487
  C      0.970318    4.646633   -0.073117
  H      1.754283    2.986048   -1.203607
  C     -0.006673    5.070646    0.826195
  H     -1.746294    4.513884    1.965764
  H      1.730432    5.336775   -0.417593
  H     -0.009472    6.095721    1.175905
  C      0.000000   -2.455944   -0.067910
  C      0.988856   -2.864596    0.823625
  C     -0.983131   -3.330214   -0.524724
  C      0.981498   -4.181716    1.274759
  H      1.763977   -2.176727    1.140487
  C     -0.970318   -4.646633   -0.073117
  H     -1.754283   -2.986048   -1.203607
  C      0.006673   -5.070646    0.826195
  H      1.746294   -4.513884    1.965764
  H     -1.730432   -5.336775   -0.417593
  H      0.009472   -6.095721    1.175905
  C      0.000000    0.000000    0.242506
  H      0.000000    0.000000    1.318926
  N      0.006656    1.088809   -0.537213
  N     -0.006656   -1.088809   -0.537213

----------------------------
CARTESIAN COORDINATES (A.U.)
----------------------------
  NO LB      ZA    FRAG     MASS         X           Y           Z
   0 C     6.0000    0    12.011    0.007206    1.284341   -3.517483
   1 C     6.0000    0    12.011   -0.007206   -1.284341   -3.517483
   2 H     1.0000    0     1.008   -0.010926    2.620924   -5.049677
   3 H     1.0000    0     1.008    0.010926   -2.620924   -5.049677
   4 C     6.0000    0    12.011    0.000000    4.641062   -0.128331
   5 C     6.0000    0    12.011   -1.868667    5.413302    1.556426
   6 C     6.0000    0    12.011    1.857848    6.293192   -0.991585
   7 C     6.0000    0    12.011   -1.854762    7.902298    2.408945
   8 H     1.0000    0     1.008   -3.333433    4.113418    2.155208
   9 C     6.0000    0    12.011    1.833635    8.780864   -0.138171
  10 H     1.0000    0     1.008    3.315114    5.642813   -2.274488
  11 C     6.0000    0    12.011   -0.012610    9.582132    1.561282
  12 H     1.0000    0     1.008   -3.300017    8.530005    3.714756
  13 H     1.0000    0     1.008    3.270043   10.085043   -0.789136
  14 H     1.0000    0     1.008   -0.017899   11.519243    2.222138
  15 C     6.0000    0    12.011    0.000000   -4.641062   -0.128331
  16 C     6.0000    0    12.011    1.868667   -5.413302    1.556426
  17 C     6.0000    0    12.011   -1.857848   -6.293192   -0.991585
  18 C     6.0000    0    12.011    1.854762   -7.902298    2.408945
  19 H     1.0000    0     1.008    3.333433   -4.113418    2.155208
  20 C     6.0000    0    12.011   -1.833635   -8.780864   -0.138171
  21 H     1.0000    0     1.008   -3.315114   -5.642813   -2.274488
  22 C     6.0000    0    12.011    0.012610   -9.582132    1.561282
  23 H     1.0000    0     1.008    3.300017   -8.530005    3.714756
  24 H     1.0000    0     1.008   -3.270043  -10.085043   -0.789136
  25 H     1.0000    0     1.008    0.017899  -11.519243    2.222138
  26 C     6.0000    0    12.011    0.000000    0.000000    0.458270
  27 H     1.0000    0     1.008    0.000000    0.000000    2.492409
  28 N     7.0000    0    14.007    0.012578    2.057551   -1.015185
  29 N     7.0000    0    14.007   -0.012578   -2.057551   -1.015185

--------------------------------
INTERNAL COORDINATES (ANGSTROEM)
--------------------------------
 C      0   0   0     0.000000000000     0.00000000     0.00000000
 C      1   0   0     1.359309391868     0.00000000     0.00000000
 H      1   2   0     1.075987767937   131.09267372     0.00000000
 H      2   1   3     1.075987767937   131.09267372     1.91667876
 C      1   2   3     2.524234968146   134.72290556   178.60149223
 C      5   1   2     1.392719390999   131.48082371   289.38314134
 C      5   1   2     1.392685760198   101.98387257   134.32046285
 C      6   5   1     1.392257562565   118.76754933   208.49364448
 H      6   5   1     1.083687156354   120.58216393    26.96612046
 C      7   5   1     1.391787354081   118.73978675   158.18990129
 H      7   5   1     1.083516391361   120.56605196   337.00538357
 C      8   6   5     1.393445365854   120.19185207     0.64332091
 H      8   6   5     1.082929550740   119.55146007   179.80811428
 H     10   7   5     1.082927969782   119.54479867   179.81555320
 H     12   8   6     1.083089873522   119.86904908   179.62758820
 C      2   1   3     2.524234968146   134.72290556   180.51817099
 C     16   2   1     1.392719390999   131.48082371   289.38314134
 C     16   2   1     1.392685760198   101.98387257   134.32046285
 C     17  16   2     1.392257562565   118.76754933   208.49364448
 H     17  16   2     1.083687156354   120.58216393    26.96612046
 C     18  16   2     1.391787354081   118.73978675   158.18990129
 H     18  16   2     1.083516391361   120.56605196   337.00538357
 C     19  17  16     1.393445365854   120.19185207     0.64332091
 H     19  17  16     1.082929550740   119.55146007   179.80811428
 H     21  18  16     1.082927969782   119.54479867   179.81555320
 H     23  19  17     1.083089873522   119.86904908   179.62758820
 C      1   2   3     2.210934902838    72.09702554   179.04166062
 H     27   1   2     1.076420000000   162.09702554   180.00000000
 N     27   1   2     1.339220317863    36.49028854   179.96061484
 N     27   1   2     1.339220317863    72.29623252   359.97541381

---------------------------
INTERNAL COORDINATES (A.U.)
---------------------------
 C      0   0   0     0.000000000000     0.00000000     0.00000000
 C      1   0   0     2.568722481897     0.00000000     0.00000000
 H      1   2   0     2.033322204850   131.09267372     0.00000000
 H      2   1   3     2.033322204850   131.09267372     1.91667876
 C      1   2   3     4.770112787464   134.72290556   178.60149223
 C      5   1   2     2.631858230390   131.48082371   289.38314134
 C      5   1   2     2.631794677385   101.98387257   134.32046285
 C      6   5   1     2.630985501129   118.76754933   208.49364448
 H      6   5   1     2.047871940356   120.58216393    26.96612046
 C      7   5   1     2.630096935867   118.73978675   158.18990129
 H      7   5   1     2.047549241288   120.56605196   337.00538357
 C      8   6   5     2.633230124046   120.19185207     0.64332091
 H      8   6   5     2.046440273228   119.55146007   179.80811428
 H     10   7   5     2.046437285651   119.54479867   179.81555320
 H     12   8   6     2.046743239380   119.86904908   179.62758820
 C      2   1   3     4.770112787464   134.72290556   180.51817099
 C     16   2   1     2.631858230390   131.48082371   289.38314134
 C     16   2   1     2.631794677385   101.98387257   134.32046285
 C     17  16   2     2.630985501129   118.76754933   208.49364448
 H     17  16   2     2.047871940356   120.58216393    26.96612046
 C     18  16   2     2.630096935867   118.73978675   158.18990129
 H     18  16   2     2.047549241288   120.56605196   337.00538357
 C     19  17  16     2.633230124046   120.19185207     0.64332091
 H     19  17  16     2.046440273228   119.55146007   179.80811428
 H     21  18  16     2.046437285651   119.54479867   179.81555320
 H     23  19  17     2.046743239380   119.86904908   179.62758820
 C      1   2   3     4.178061466292    72.09702554   179.04166062
 H     27   1   2     2.034139005076   162.09702554   180.00000000
 N     27   1   2     2.530759633745    36.49028854   179.96061484
 N     27   1   2     2.530759633745    72.29623252   359.97541381

---------------------
BASIS SET INFORMATION
---------------------
There are 3 groups of distinct atoms

 Group   1 Type C   : 7s4p1d contracted to 3s2p1d pattern {511/31/1}
 Group   2 Type H   : 4s1p contracted to 2s1p pattern {31/1}
 Group   3 Type N   : 7s4p1d contracted to 3s2p1d pattern {511/31/1}

Atom   0C    basis set group =>   1
Atom   1C    basis set group =>   1
Atom   2H    basis set group =>   2
Atom   3H    basis set group =>   2
Atom   4C    basis set group =>   1
Atom   5C    basis set group =>   1
Atom   6C    basis set group =>   1
Atom   7C    basis set group =>   1
Atom   8H    basis set group =>   2
Atom   9C    basis set group =>   1
Atom  10H    basis set group =>   2
Atom  11C    basis set group =>   1
Atom  12H    basis set group =>   2
Atom  13H    basis set group =>   2
Atom  14H    basis set group =>   2
Atom  15C    basis set group =>   1
Atom  16C    basis set group =>   1
Atom  17C    basis set group =>   1
Atom  18C    basis set group =>   1
Atom  19H    basis set group =>   2
Atom  20C    basis set group =>   1
Atom  21H    basis set group =>   2
Atom  22C    basis set group =>   1
Atom  23H    basis set group =>   2
Atom  24H    basis set group =>   2
Atom  25H    basis set group =>   2
Atom  26C    basis set group =>   1
Atom  27H    basis set group =>   2
Atom  28N    basis set group =>   3
Atom  29N    basis set group =>   3
---------------------------------
AUXILIARY/J BASIS SET INFORMATION
---------------------------------
There are 3 groups of distinct atoms

 Group   1 Type C   : 12s5p4d2f1g contracted to 6s4p3d1f1g pattern {711111/2111/211/2/1}
 Group   2 Type H   : 5s2p1d contracted to 3s1p1d pattern {311/2/1}
 Group   3 Type N   : 12s5p4d2f1g contracted to 6s4p3d1f1g pattern {711111/2111/211/2/1}

Atom   0C    basis set group =>   1
Atom   1C    basis set group =>   1
Atom   2H    basis set group =>   2
Atom   3H    basis set group =>   2
Atom   4C    basis set group =>   1
Atom   5C    basis set group =>   1
Atom   6C    basis set group =>   1
Atom   7C    basis set group =>   1
Atom   8H    basis set group =>   2
Atom   9C    basis set group =>   1
Atom  10H    basis set group =>   2
Atom  11C    basis set group =>   1
Atom  12H    basis set group =>   2
Atom  13H    basis set group =>   2
Atom  14H    basis set group =>   2
Atom  15C    basis set group =>   1
Atom  16C    basis set group =>   1
Atom  17C    basis set group =>   1
Atom  18C    basis set group =>   1
Atom  19H    basis set group =>   2
Atom  20C    basis set group =>   1
Atom  21H    basis set group =>   2
Atom  22C    basis set group =>   1
Atom  23H    basis set group =>   2
Atom  24H    basis set group =>   2
Atom  25H    basis set group =>   2
Atom  26C    basis set group =>   1
Atom  27H    basis set group =>   2
Atom  28N    basis set group =>   3
Atom  29N    basis set group =>   3


           ************************************************************
           *        Program running with 4 parallel MPI-processes     *
           *              working on a common directory               *
           ************************************************************
------------------------------------------------------------------------------
                           ORCA GTO INTEGRAL CALCULATION
                           -- RI-GTO INTEGRALS CHOSEN --
------------------------------------------------------------------------------
------------------------------------------------------------------------------
                   ___                                                        
                  /   \      - P O W E R E D   B Y -                         
                 /     \                                                     
                 |  |  |   _    _      __       _____    __    __             
                 |  |  |  | |  | |    /  \     |  _  \  |  |  /  |          
                  \  \/   | |  | |   /    \    | | | |  |  | /  /          
                 / \  \   | |__| |  /  /\  \   | |_| |  |  |/  /          
                |  |  |   |  __  | /  /__\  \  |    /   |      \           
                |  |  |   | |  | | |   __   |  |    \   |  |\   \          
                \     /   | |  | | |  |  |  |  | |\  \  |  | \   \       
                 \___/    |_|  |_| |__|  |__|  |_| \__\ |__|  \__/        
                                                                              
                      - O R C A' S   B I G   F R I E N D -                    
                                      &                                       
                       - I N T E G R A L  F E E D E R -                       
                                                                              
 v1 FN, 2020, v2 2021                                                         
------------------------------------------------------------------------------


Reading SHARK input file PhH+_Water.SHARKINP.tmp ... ok
----------------------
SHARK INTEGRAL PACKAGE
----------------------

Number of atoms                             ...     30
Number of basis functions                   ...    303
Number of shells                            ...    141
Maximum angular momentum                    ...      2
Integral batch strategy                     ... SHARK/LIBINT Hybrid
RI-J (if used) integral strategy            ... SPLIT-RIJ (Revised 2003 algorithm where possible)
Printlevel                                  ...      1
Contraction scheme used                     ... SEGMENTED contraction
Coulomb Range Separation                    ... NOT USED
Exchange Range Separation                   ... Long Range
   Mu parameter                             ...  0.300000
   Scaling (regular/separated)              ...  0.157706  0.842294
Finite Nucleus Model                        ... NOT USED
Auxiliary Coulomb fitting basis             ... AVAILABLE
   # of basis functions in Aux-J            ...    976
   # of shells in Aux-J                     ...    320
   Maximum angular momentum in Aux-J        ...      4
Auxiliary J/K fitting basis                 ... NOT available
Auxiliary Correlation fitting basis         ... NOT available
Auxiliary 'external' fitting basis          ... NOT available
Integral threshold                          ...     2.500000e-11
Primitive cut-off                           ...     2.500000e-12
Primitive pair pre-selection threshold      ...     2.500000e-12

Calculating pre-screening integrals         ... done (  0.0 sec) Dimension = 141
Organizing shell pair data                  ... done (  0.1 sec)
Shell pair information
Total number of shell pairs                 ...     10011
Shell pairs after pre-screening             ...      7556
Total number of primitive shell pairs       ...     36575
Primitive shell pairs kept                  ...     18296
          la=0 lb=0:   2308 shell pairs
          la=1 lb=0:   2783 shell pairs
          la=1 lb=1:    876 shell pairs
          la=2 lb=0:    919 shell pairs
          la=2 lb=1:    569 shell pairs
          la=2 lb=2:    101 shell pairs

Calculating one electron integrals          ... done (  0.0 sec)
Calculating RI/J V-Matrix + Cholesky decomp.... done (  0.4 sec)
Calculating Nuclear repulsion               ... done (  0.0 sec) ENN=   1054.981808414836 Eh

SHARK setup successfully completed in   1.4 seconds

Maximum memory used throughout the entire GTOINT-calculation: 15.9 MB


           ************************************************************
           *        Program running with 4 parallel MPI-processes     *
           *              working on a common directory               *
           ************************************************************
-------------------------------------------------------------------------------
                                 ORCA SCF
-------------------------------------------------------------------------------

------------
SCF SETTINGS
------------
Hamiltonian:
 Density Functional     Method          .... DFT(GTOs)
 Exchange Functional    Exchange        .... WB97X
 Correlation Functional Correlation     .... WB97X
 Gradients option       PostSCFGGA      .... off
 Hybrid DFT is turned on
   Fraction HF Exchange ScalHFX         ....  0.157706
   Scaling of DF-GGA-X  ScalDFX         ....  0.000000
   Scaling of DF-GGA-C  ScalDFC         ....  1.000000
   Scaling of DF-LDA-C  ScalLDAC        ....  1.000000
   Perturbative correction              ....  0.000000
   Density functional embedding theory  .... OFF
 Long-range corrected/Screened/Range-Separated Hybrid DFT is turned on
   Amount of maximum screened exact exchange              ....  0.842294
   Range separation parameter mu (erf(mu*r12)/r12)        ....  0.300000
 RI-approximation to the Coulomb term is turned on
   Number of AuxJ basis functions       .... 976
   RIJ-COSX (HFX calculated with COS-X)).... on


General Settings:
 Integral files         IntName         .... PhH+_Water
 Hartree-Fock type      HFTyp           .... RHF
 Total Charge           Charge          ....    1
 Multiplicity           Mult            ....    1
 Number of Electrons    NEL             ....  116
 Basis Dimension        Dim             ....  303
 Nuclear Repulsion      ENuc            ....   1054.9818084148 Eh

Convergence Acceleration:
 DIIS                   CNVDIIS         .... on
   Start iteration      DIISMaxIt       ....     0
   Startup error        DIISStart       ....  0.200000
   # of expansion vecs  DIISMaxEq       ....     5
   Bias factor          DIISBfac        ....   1.050
   Max. coefficient     DIISMaxC        ....  10.000
 Trust-Rad. Augm. Hess. CNVTRAH         .... auto
   Auto Start mean grad. ratio tolernc. ....  1.125000
   Auto Start start iteration           ....    20
   Auto Start num. interpolation iter.  ....    10
   Max. Number of Micro iterations      ....    16
   Max. Number of Macro iterations      .... Maxiter - #DIIS iter
   Number of Davidson start vectors     ....     2
   Converg. threshold I  (grad. norm)   ....   1.000e-05
   Converg. threshold II (energy diff.) ....   1.000e-08
   Grad. Scal. Fac. for Micro threshold ....   0.100
   Minimum threshold for Micro iter.    ....   0.010
   NR start threshold (gradient norm)   ....   0.001
   Initial trust radius                 ....   0.400
   Minimum AH scaling param. (alpha)    ....   1.000
   Maximum AH scaling param. (alpha)    .... 1000.000
   Orbital update algorithm             .... Taylor
   White noise on init. David. guess    .... on
   Maximum white noise                  ....   0.010
   Quad. conv. algorithm                .... NR
 SOSCF                  CNVSOSCF        .... on
   Start iteration      SOSCFMaxIt      ....   150
   Startup grad/error   SOSCFStart      ....  0.001000
 Level Shifting         CNVShift        .... on
   Level shift para.    LevelShift      ....    0.2500
   Turn off err/grad.   ShiftErr        ....    0.0000
 Zerner damping         CNVZerner       .... off
 Static damping         CNVDamp         .... on
   Fraction old density DampFac         ....    0.8500
   Max. Damping (<1)    DampMax         ....    0.9800
   Min. Damping (>=0)   DampMin         ....    0.0000
   Turn off err/grad.   DampErr         ....    0.0300
 Fernandez-Rico         CNVRico         .... off

SCF Procedure:
 Maximum # iterations   MaxIter         ....   125
 SCF integral mode      SCFMode         .... Direct
   Integral package                     .... SHARK and LIBINT hybrid scheme
 Reset frequency        DirectResetFreq ....    20
 Integral Threshold     Thresh          ....  2.500e-11 Eh
 Primitive CutOff       TCut            ....  2.500e-12 Eh

Convergence Tolerance:
 Convergence Check Mode ConvCheckMode   .... Total+1el-Energy
 Convergence forced     ConvForced      .... 0
 Energy Change          TolE            ....  1.000e-08 Eh
 1-El. energy change                    ....  1.000e-05 Eh
 Orbital Gradient       TolG            ....  1.000e-05
 Orbital Rotation angle TolX            ....  1.000e-05
 DIIS Error             TolErr          ....  5.000e-07


Diagonalization of the overlap matrix:
Smallest eigenvalue                        ... 2.810e-04
Time for diagonalization                   ...    0.016 sec
Threshold for overlap eigenvalues          ... 1.000e-08
Number of eigenvalues below threshold      ... 0
Time for construction of square roots      ...    0.012 sec
Total time needed                          ...    0.029 sec

Time for model grid setup =    0.416 sec

------------------------------
INITIAL GUESS: MODEL POTENTIAL
------------------------------
Loading Hartree-Fock densities                     ... done
Calculating cut-offs                               ... done
Initializing the effective Hamiltonian             ... done
Setting up the integral package (SHARK)            ... done
Starting the Coulomb interaction                   ... done (   0.3 sec)
Reading the grid                                   ... done
Mapping shells                                     ... done
Starting the XC term evaluation                    ... done (   0.2 sec)
  promolecular density results
     # of electrons  =    116.994739204
     EX              =    -93.707372153
     EC              =     -3.911051603
     EX+EC           =    -97.618423756
Transforming the Hamiltonian                       ... done (   0.0 sec)
Diagonalizing the Hamiltonian                      ... done (   0.0 sec)
Back transforming the eigenvectors                 ... done (   0.0 sec)
Now organizing SCF variables                       ... done
                      ------------------
                      INITIAL GUESS DONE (   0.9 sec)
                      ------------------
-------------------
DFT GRID GENERATION
-------------------

General Integration Accuracy     IntAcc      ... 4.388
Radial Grid Type                 RadialGrid  ... OptM3 with GC (2021)
Angular Grid (max. ang.)         AngularGrid ... 4 (Lebedev-302)
Angular grid pruning method      GridPruning ... 4 (adaptive)
Weight generation scheme         WeightScheme... Becke
Basis function cutoff            BFCut       ... 1.0000e-11
Integration weight cutoff        WCut        ... 1.0000e-14
Angular grids for H and He will be reduced by one unit
Partially contracted basis set               ... off
Rotationally invariant grid construction     ... off

Total number of grid points                  ...   143503
Total number of batches                      ...     2258
Average number of points per batch           ...       63
Average number of grid points per atom       ...     4783
Time for grid setup =    1.124 sec

--------------------
COSX GRID GENERATION
--------------------

GRIDX 1
-------
General Integration Accuracy     IntAcc      ... 3.816
Radial Grid Type                 RadialGrid  ... OptM3 with GC (2021)
Angular Grid (max. ang.)         AngularGrid ... 1 (Lebedev-50)
Angular grid pruning method      GridPruning ... 4 (adaptive)
Weight generation scheme         WeightScheme... Becke
Basis function cutoff            BFCut       ... 1.0000e-11
Integration weight cutoff        WCut        ... 1.0000e-14
Angular grids for H and He will be reduced by one unit
Partially contracted basis set               ... on
Rotationally invariant grid construction     ... off

Total number of grid points                  ...    18296
Total number of batches                      ...      295
Average number of points per batch           ...       62
Average number of grid points per atom       ...      610
UseSFitting                                  ... on

GRIDX 2
-------
General Integration Accuracy     IntAcc      ... 4.020
Radial Grid Type                 RadialGrid  ... OptM3 with GC (2021)
Angular Grid (max. ang.)         AngularGrid ... 2 (Lebedev-110)
Angular grid pruning method      GridPruning ... 4 (adaptive)
Weight generation scheme         WeightScheme... Becke
Basis function cutoff            BFCut       ... 1.0000e-11
Integration weight cutoff        WCut        ... 1.0000e-14
Angular grids for H and He will be reduced by one unit
Partially contracted basis set               ... on
Rotationally invariant grid construction     ... off

Total number of grid points                  ...    39914
Total number of batches                      ...      635
Average number of points per batch           ...       62
Average number of grid points per atom       ...     1330
UseSFitting                                  ... on

GRIDX 3
-------
General Integration Accuracy     IntAcc      ... 4.338
Radial Grid Type                 RadialGrid  ... OptM3 with GC (2021)
Angular Grid (max. ang.)         AngularGrid ... 3 (Lebedev-194)
Angular grid pruning method      GridPruning ... 4 (adaptive)
Weight generation scheme         WeightScheme... Becke
Basis function cutoff            BFCut       ... 1.0000e-11
Integration weight cutoff        WCut        ... 1.0000e-14
Angular grids for H and He will be reduced by one unit
Partially contracted basis set               ... on
Rotationally invariant grid construction     ... off

Total number of grid points                  ...    87357
Total number of batches                      ...     1381
Average number of points per batch           ...       63
Average number of grid points per atom       ...     2912
UseSFitting                                  ... on

Time for X-Grid setup             =    1.136 sec


--------------------
CPCM SOLVATION MODEL
--------------------
CPCM parameters:
  Epsilon                                         ...      80.4000
  Refrac                                          ...       1.3300
  Rsolv                                           ...       1.3000
  Surface type                                    ... GAUSSIAN VDW
  Epsilon function type                           ...         CPCM
Radii:
 Radius for C  used is    3.8550 Bohr (=   2.0400 Ang.)
 Radius for H  used is    2.4944 Bohr (=   1.3200 Ang.)
 Radius for N  used is    3.5149 Bohr (=   1.8600 Ang.)
Calculating surface                               ...        done! (  0.0s)
GEPOL surface points                              ...         1641
GEPOL Volume                                      ...    1870.0229
GEPOL Surface-area                                ...     980.2868
Calculating surface distance matrix               ...        done! (  0.0s)
Performing Cholesky decomposition & store         ...        done! (  0.2s)
Overall time for CPCM initialization              ...                 0.2s
--------------
SCF ITERATIONS
--------------
ITER       Energy         Delta-E        Max-DP      RMS-DP      [F,P]     Damp
               ***  Starting incremental Fock matrix formation  ***
  0   -687.8829047645   0.000000000000 0.02156290  0.00068605  0.1009258 0.8500
  1   -687.9285858158  -0.045681051272 0.02001063  0.00065345  0.0801429 0.8500
                               ***Turning on DIIS***
  2   -687.9638755342  -0.035289718400 0.01590285  0.00054493  0.0611413 0.8500
  3   -687.9904099093  -0.026534375149 0.01073376  0.00042254  0.0475108 0.8500
  4   -688.0110781652  -0.020668255886 0.00774170  0.00033895  0.0383954 0.8500
  5   -688.0274807970  -0.016402631827 0.00639132  0.00028141  0.0319935 0.8500
  6   -688.0408700414  -0.013389244417 0.03651925  0.00158372  0.0270272 0.0000
  7   -688.1116123318  -0.070742290321 0.00120422  0.00004370  0.0014406 0.0000
                      *** Initiating the SOSCF procedure ***
                           *** Shutting down DIIS ***
                      *** Re-Reading the Fockian *** 
                      *** Removing any level shift *** 
ITER      Energy       Delta-E        Grad      Rot      Max-DP    RMS-DP
  8   -688.11166481  -0.0000524762  0.000629  0.000629  0.000999  0.000023
               *** Restarting incremental Fock matrix formation ***
  9   -688.11171071  -0.0000459030  0.000543  0.001332  0.000524  0.000019
 10   -688.11171594  -0.0000052245  0.000129  0.000872  0.000618  0.000017
 11   -688.11171749  -0.0000015541  0.000058  0.000086  0.000159  0.000005
 12   -688.11171766  -0.0000001750  0.000017  0.000042  0.000071  0.000002
 13   -688.11171768  -0.0000000142  0.000007  0.000023  0.000027  0.000000
                  ***Gradient check signals convergence***
              ***Rediagonalizing the Fockian in SOSCF/NRSCF***

               *****************************************************
               *                     SUCCESS                       *
               *           SCF CONVERGED AFTER  14 CYCLES          *
               *****************************************************

Old exchange energy                            =    -30.285344570 Eh
New exchange energy                            =    -30.285352076 Eh
Exchange energy change after final integration =     -0.000007506 Eh
Total energy after final integration           =   -688.111725190 Eh
Final COS-X integration done in                =    21.824 sec

----------------
TOTAL SCF ENERGY
----------------

Total Energy       :         -688.11172519 Eh          -18724.47198 eV

Components:
Nuclear Repulsion  :         1054.98180841 Eh           28707.51447 eV
Electronic Energy  :        -1743.09353360 Eh          -47431.98644 eV
One Electron Energy:        -3003.82090332 Eh          -81738.12227 eV
Two Electron Energy:         1260.72736972 Eh           34306.13582 eV
Max COSX asymmetry :            0.00000152 Eh               0.00004 eV
CPCM Dielectric    :           -0.07730673 Eh              -2.10362 eV

Virial components:
Potential Energy   :        -1368.44689291 Eh          -37237.33307 eV
Kinetic Energy     :          680.33516772 Eh           18512.86109 eV
Virial Ratio       :            2.01143048


DFT components:
N(Alpha)           :       58.000005211415 electrons
N(Beta)            :       58.000005211415 electrons
N(Total)           :      116.000010422831 electrons
E(XC)              :      -69.218717670991 Eh       
DFET-embed. en.    :        0.000000000000 Eh       
CPCM Solvation Model Properties:
Surface-charge          :           -1.02098903
Charge-correction       :            0.00247618 Eh               0.06738 eV
Free-energy (cav+disp)  :  This term is not implemented in the current solvation scheme

---------------
SCF CONVERGENCE
---------------

  Last Energy change         ...   -4.9939e-09  Tolerance :   1.0000e-08
  Last MAX-Density change    ...    3.9968e-15  Tolerance :   1.0000e-07
  Last RMS-Density change    ...    4.4920e-17  Tolerance :   5.0000e-09
  Last Orbital Gradient      ...    1.4349e-06  Tolerance :   1.0000e-05
  Last Orbital Rotation      ...    5.2747e-06  Tolerance :   1.0000e-05

             **** THE GBW FILE WAS UPDATED (PhH+_Water.gbw) ****
             **** DENSITY PhH+_Water.scfp WAS UPDATED ****
             **** ENERGY FILE WAS UPDATED (PhH+_Water.en.tmp) ****
             **** THE GBW FILE WAS UPDATED (PhH+_Water.gbw) ****
             **** DENSITY PhH+_Water.scfp WAS UPDATED ****
----------------
ORBITAL ENERGIES
----------------

  NO   OCC          E(Eh)            E(eV) 
   0   2.0000     -14.529198      -395.3596 
   1   2.0000     -14.529188      -395.3593 
   2   2.0000     -10.399342      -282.9805 
   3   2.0000     -10.346707      -281.5482 
   4   2.0000     -10.346660      -281.5469 
   5   2.0000     -10.344963      -281.5007 
   6   2.0000     -10.344379      -281.4849 
   7   2.0000     -10.299443      -280.2621 
   8   2.0000     -10.299442      -280.2621 
   9   2.0000     -10.299078      -280.2522 
  10   2.0000     -10.299075      -280.2521 
  11   2.0000     -10.291965      -280.0586 
  12   2.0000     -10.291965      -280.0586 
  13   2.0000     -10.291899      -280.0568 
  14   2.0000     -10.291899      -280.0568 
  15   2.0000     -10.290476      -280.0181 
  16   2.0000     -10.290476      -280.0181 
  17   2.0000      -1.227112       -33.3914 
  18   2.0000      -1.113509       -30.3001 
  19   2.0000      -1.016066       -27.6486 
  20   2.0000      -0.998444       -27.1690 
  21   2.0000      -0.943789       -25.6818 
  22   2.0000      -0.915634       -24.9157 
  23   2.0000      -0.893895       -24.3241 
  24   2.0000      -0.891599       -24.2616 
  25   2.0000      -0.883514       -24.0416 
  26   2.0000      -0.809461       -22.0266 
  27   2.0000      -0.794616       -21.6226 
  28   2.0000      -0.751376       -20.4460 
  29   2.0000      -0.748696       -20.3731 
  30   2.0000      -0.735462       -20.0129 
  31   2.0000      -0.735263       -20.0075 
  32   2.0000      -0.699785       -19.0421 
  33   2.0000      -0.669283       -18.2121 
  34   2.0000      -0.636236       -17.3128 
  35   2.0000      -0.631082       -17.1726 
  36   2.0000      -0.611164       -16.6306 
  37   2.0000      -0.606899       -16.5146 
  38   2.0000      -0.592778       -16.1303 
  39   2.0000      -0.592603       -16.1256 
  40   2.0000      -0.584615       -15.9082 
  41   2.0000      -0.569650       -15.5010 
  42   2.0000      -0.560615       -15.2551 
  43   2.0000      -0.559281       -15.2188 
  44   2.0000      -0.550692       -14.9851 
  45   2.0000      -0.549012       -14.9394 
  46   2.0000      -0.518542       -14.1102 
  47   2.0000      -0.507557       -13.8113 
  48   2.0000      -0.481475       -13.1016 
  49   2.0000      -0.478755       -13.0276 
  50   2.0000      -0.478699       -13.0261 
  51   2.0000      -0.467733       -12.7277 
  52   2.0000      -0.451557       -12.2875 
  53   2.0000      -0.390512       -10.6264 
  54   2.0000      -0.370207       -10.0739 
  55   2.0000      -0.369493       -10.0544 
  56   2.0000      -0.367894       -10.0109 
  57   2.0000      -0.362102        -9.8533 
  58   0.0000       0.023871         0.6496 
  59   0.0000       0.045644         1.2420 
  60   0.0000       0.052221         1.4210 
  61   0.0000       0.052577         1.4307 
  62   0.0000       0.074117         2.0168 
  63   0.0000       0.090158         2.4533 
  64   0.0000       0.153815         4.1855 
  65   0.0000       0.157968         4.2985 
  66   0.0000       0.170555         4.6410 
  67   0.0000       0.182350         4.9620 
  68   0.0000       0.194052         5.2804 
  69   0.0000       0.204605         5.5676 
  70   0.0000       0.208395         5.6707 
  71   0.0000       0.208539         5.6746 
  72   0.0000       0.218596         5.9483 
  73   0.0000       0.222298         6.0490 
  74   0.0000       0.231803         6.3077 
  75   0.0000       0.232649         6.3307 
  76   0.0000       0.237507         6.4629 
  77   0.0000       0.244280         6.6472 
  78   0.0000       0.252478         6.8703 
  79   0.0000       0.254802         6.9335 
  80   0.0000       0.260834         7.0977 
  81   0.0000       0.295440         8.0393 
  82   0.0000       0.311500         8.4764 
  83   0.0000       0.315838         8.5944 
  84   0.0000       0.350482         9.5371 
  85   0.0000       0.358780         9.7629 
  86   0.0000       0.371394        10.1061 
  87   0.0000       0.377474        10.2716 
  88   0.0000       0.384128        10.4526 
  89   0.0000       0.389681        10.6038 
  90   0.0000       0.390955        10.6384 
  91   0.0000       0.405127        11.0241 
  92   0.0000       0.407080        11.0772 
  93   0.0000       0.418755        11.3949 
  94   0.0000       0.430676        11.7193 
  95   0.0000       0.449958        12.2440 
  96   0.0000       0.452180        12.3044 
  97   0.0000       0.472416        12.8551 
  98   0.0000       0.476077        12.9547 
  99   0.0000       0.483121        13.1464 
 100   0.0000       0.496454        13.5092 
 101   0.0000       0.497526        13.5384 
 102   0.0000       0.500256        13.6127 
 103   0.0000       0.524170        14.2634 
 104   0.0000       0.525465        14.2986 
 105   0.0000       0.536852        14.6085 
 106   0.0000       0.557597        15.1730 
 107   0.0000       0.565518        15.3885 
 108   0.0000       0.565942        15.4001 
 109   0.0000       0.573825        15.6146 
 110   0.0000       0.580397        15.7934 
 111   0.0000       0.582517        15.8511 
 112   0.0000       0.585513        15.9326 
 113   0.0000       0.587112        15.9761 
 114   0.0000       0.587871        15.9968 
 115   0.0000       0.610299        16.6071 
 116   0.0000       0.617166        16.7939 
 117   0.0000       0.625513        17.0211 
 118   0.0000       0.635876        17.3031 
 119   0.0000       0.646288        17.5864 
 120   0.0000       0.661470        17.9995 
 121   0.0000       0.666072        18.1247 
 122   0.0000       0.667510        18.1639 
 123   0.0000       0.690247        18.7826 
 124   0.0000       0.696398        18.9499 
 125   0.0000       0.714922        19.4540 
 126   0.0000       0.719639        19.5824 
 127   0.0000       0.725901        19.7528 
 128   0.0000       0.739970        20.1356 
 129   0.0000       0.743705        20.2372 
 130   0.0000       0.746133        20.3033 
 131   0.0000       0.746617        20.3165 
 132   0.0000       0.760766        20.7015 
 133   0.0000       0.762680        20.7536 
 134   0.0000       0.766569        20.8594 
 135   0.0000       0.774479        21.0746 
 136   0.0000       0.776273        21.1235 
 137   0.0000       0.779922        21.2228 
 138   0.0000       0.786751        21.4086 
 139   0.0000       0.791739        21.5443 
 140   0.0000       0.807932        21.9849 
 141   0.0000       0.811213        22.0742 
 142   0.0000       0.828346        22.5404 
 143   0.0000       0.828803        22.5529 
 144   0.0000       0.837431        22.7876 
 145   0.0000       0.837970        22.8023 
 146   0.0000       0.851644        23.1744 
 147   0.0000       0.859402        23.3855 
 148   0.0000       0.864890        23.5348 
 149   0.0000       0.883856        24.0509 
 150   0.0000       0.907704        24.6999 
 151   0.0000       0.908616        24.7247 
 152   0.0000       0.911021        24.7902 
 153   0.0000       0.925846        25.1935 
 154   0.0000       0.941156        25.6102 
 155   0.0000       0.954471        25.9725 
 156   0.0000       0.964930        26.2571 
 157   0.0000       0.977611        26.6021 
 158   0.0000       0.978222        26.6188 
 159   0.0000       1.025459        27.9042 
 160   0.0000       1.028798        27.9950 
 161   0.0000       1.046367        28.4731 
 162   0.0000       1.104456        30.0538 
 163   0.0000       1.125819        30.6351 
 164   0.0000       1.152412        31.3587 
 165   0.0000       1.156390        31.4670 
 166   0.0000       1.170008        31.8375 
 167   0.0000       1.232877        33.5483 
 168   0.0000       1.251665        34.0595 
 169   0.0000       1.266047        34.4509 
 170   0.0000       1.276443        34.7338 
 171   0.0000       1.288960        35.0744 
 172   0.0000       1.291717        35.1494 
 173   0.0000       1.293806        35.2063 
 174   0.0000       1.311283        35.6818 
 175   0.0000       1.319344        35.9012 
 176   0.0000       1.321601        35.9626 
 177   0.0000       1.330713        36.2105 
 178   0.0000       1.333179        36.2777 
 179   0.0000       1.355533        36.8859 
 180   0.0000       1.363375        37.0993 
 181   0.0000       1.366730        37.1906 
 182   0.0000       1.376869        37.4665 
 183   0.0000       1.383533        37.6478 
 184   0.0000       1.384578        37.6763 
 185   0.0000       1.394560        37.9479 
 186   0.0000       1.396497        38.0006 
 187   0.0000       1.425891        38.8005 
 188   0.0000       1.472348        40.0646 
 189   0.0000       1.569407        42.7057 
 190   0.0000       1.597061        43.4582 
 191   0.0000       1.659845        45.1667 
 192   0.0000       1.671287        45.4780 
 193   0.0000       1.687466        45.9183 
 194   0.0000       1.720964        46.8298 
 195   0.0000       1.727243        47.0007 
 196   0.0000       1.737441        47.2782 
 197   0.0000       1.747177        47.5431 
 198   0.0000       1.761365        47.9292 
 199   0.0000       1.767138        48.0863 
 200   0.0000       1.782858        48.5140 
 201   0.0000       1.801384        49.0182 
 202   0.0000       1.809451        49.2377 
 203   0.0000       1.818255        49.4772 
 204   0.0000       1.819925        49.5227 
 205   0.0000       1.842641        50.1408 
 206   0.0000       1.848219        50.2926 
 207   0.0000       1.849880        50.3378 
 208   0.0000       1.852903        50.4200 
 209   0.0000       1.861280        50.6480 
 210   0.0000       1.862511        50.6815 
 211   0.0000       1.873129        50.9704 
 212   0.0000       1.873987        50.9938 
 213   0.0000       1.877265        51.0830 
 214   0.0000       1.880733        51.1773 
 215   0.0000       1.901216        51.7347 
 216   0.0000       1.911306        52.0093 
 217   0.0000       1.926020        52.4097 
 218   0.0000       1.934484        52.6400 
 219   0.0000       1.938618        52.7525 
 220   0.0000       1.939039        52.7639 
 221   0.0000       1.949633        53.0522 
 222   0.0000       1.981263        53.9129 
 223   0.0000       2.008646        54.6580 
 224   0.0000       2.025151        55.1072 
 225   0.0000       2.045082        55.6495 
 226   0.0000       2.049572        55.7717 
 227   0.0000       2.060812        56.0775 
 228   0.0000       2.071960        56.3809 
 229   0.0000       2.075402        56.4746 
 230   0.0000       2.075549        56.4786 
 231   0.0000       2.080166        56.6042 
 232   0.0000       2.080178        56.6045 
 233   0.0000       2.093500        56.9670 
 234   0.0000       2.094092        56.9831 
 235   0.0000       2.103234        57.2319 
 236   0.0000       2.138723        58.1976 
 237   0.0000       2.185213        59.4627 
 238   0.0000       2.191346        59.6296 
 239   0.0000       2.204630        59.9910 
 240   0.0000       2.207293        60.0635 
 241   0.0000       2.234996        60.8173 
 242   0.0000       2.236941        60.8703 
 243   0.0000       2.246832        61.1394 
 244   0.0000       2.250784        61.2470 
 245   0.0000       2.275391        61.9166 
 246   0.0000       2.279100        62.0175 
 247   0.0000       2.349026        63.9203 
 248   0.0000       2.354490        64.0689 
 249   0.0000       2.373377        64.5829 
 250   0.0000       2.374671        64.6181 
 251   0.0000       2.381379        64.8006 
 252   0.0000       2.384509        64.8858 
 253   0.0000       2.391165        65.0669 
 254   0.0000       2.395101        65.1740 
 255   0.0000       2.415460        65.7280 
 256   0.0000       2.420181        65.8565 
 257   0.0000       2.437404        66.3251 
 258   0.0000       2.449833        66.6634 
 259   0.0000       2.453729        66.7694 
 260   0.0000       2.461681        66.9857 
 261   0.0000       2.473780        67.3150 
 262   0.0000       2.523255        68.6613 
 263   0.0000       2.536804        69.0299 
 264   0.0000       2.613006        71.1035 
 265   0.0000       2.615232        71.1641 
 266   0.0000       2.657980        72.3273 
 267   0.0000       2.664561        72.5064 
 268   0.0000       2.670027        72.6551 
 269   0.0000       2.691726        73.2456 
 270   0.0000       2.717985        73.9601 
 271   0.0000       2.726034        74.1792 
 272   0.0000       2.732257        74.3485 
 273   0.0000       2.738225        74.5109 
 274   0.0000       2.778519        75.6074 
 275   0.0000       2.812045        76.5196 
 276   0.0000       2.812890        76.5426 
 277   0.0000       2.845186        77.4215 
 278   0.0000       2.845349        77.4259 
 279   0.0000       2.849524        77.5395 
 280   0.0000       2.851483        77.5928 
 281   0.0000       2.864484        77.9466 
 282   0.0000       2.916561        79.3636 
 283   0.0000       2.945513        80.1515 
 284   0.0000       2.967262        80.7433 
 285   0.0000       2.974432        80.9384 
 286   0.0000       2.976710        81.0004 
 287   0.0000       2.978731        81.0554 
 288   0.0000       2.989704        81.3540 
 289   0.0000       2.992683        81.4350 
 290   0.0000       3.013917        82.0128 
 291   0.0000       3.137587        85.3781 
 292   0.0000       3.165459        86.1365 
 293   0.0000       3.178063        86.4795 
 294   0.0000       3.229752        87.8860 
 295   0.0000       3.250542        88.4517 
 296   0.0000       3.303747        89.8995 
 297   0.0000       3.378159        91.9244 
 298   0.0000       3.487001        94.8861 
 299   0.0000       3.522108        95.8414 
 300   0.0000       3.566946        97.0615 
 301   0.0000       3.769192       102.5649 
 302   0.0000       3.784947       102.9936 

                    ********************************
                    * MULLIKEN POPULATION ANALYSIS *
                    ********************************

-----------------------
MULLIKEN ATOMIC CHARGES
-----------------------
   0 C :    0.093981
   1 C :    0.093980
   2 H :    0.106340
   3 H :    0.106340
   4 C :    0.099181
   5 C :   -0.009382
   6 C :   -0.004944
   7 C :   -0.025758
   8 H :    0.047461
   9 C :   -0.026546
  10 H :    0.046318
  11 C :    0.001959
  12 H :    0.049443
  13 H :    0.049526
  14 H :    0.047451
  15 C :    0.099179
  16 C :   -0.009382
  17 C :   -0.004943
  18 C :   -0.025758
  19 H :    0.047461
  20 C :   -0.026548
  21 H :    0.046318
  22 C :    0.001960
  23 H :    0.049443
  24 H :    0.049526
  25 H :    0.047451
  26 C :    0.271630
  27 H :    0.139652
  28 N :   -0.180670
  29 N :   -0.180670
Sum of atomic charges:    1.0000000

--------------------------------
MULLIKEN REDUCED ORBITAL CHARGES
--------------------------------
  0 C s       :     3.143292  s :     3.143292
      pz      :     0.782058  p :     2.716044
      px      :     1.023930
      py      :     0.910055
      dz2     :     0.014636  d :     0.046683
      dxz     :     0.007314
      dyz     :     0.012272
      dx2y2   :     0.004923
      dxy     :     0.007538
  1 C s       :     3.143293  s :     3.143293
      pz      :     0.782058  p :     2.716043
      px      :     1.023930
      py      :     0.910055
      dz2     :     0.014636  d :     0.046683
      dxz     :     0.007314
      dyz     :     0.012272
      dx2y2   :     0.004923
      dxy     :     0.007538
  2 H s       :     0.868501  s :     0.868501
      pz      :     0.011338  p :     0.025159
      px      :     0.004705
      py      :     0.009116
  3 H s       :     0.868501  s :     0.868501
      pz      :     0.011338  p :     0.025159
      px      :     0.004705
      py      :     0.009116
  4 C s       :     2.974173  s :     2.974173
      pz      :     1.037252  p :     2.872259
      px      :     1.015261
      py      :     0.819746
      dz2     :     0.008226  d :     0.054387
      dxz     :     0.006879
      dyz     :     0.010288
      dx2y2   :     0.016491
      dxy     :     0.012503
  5 C s       :     3.226132  s :     3.226132
      pz      :     0.948239  p :     2.749450
      px      :     0.904194
      py      :     0.897017
      dz2     :     0.006395  d :     0.033800
      dxz     :     0.004839
      dyz     :     0.006473
      dx2y2   :     0.006871
      dxy     :     0.009222
  6 C s       :     3.226619  s :     3.226619
      pz      :     0.922400  p :     2.744544
      px      :     0.902963
      py      :     0.919181
      dz2     :     0.004020  d :     0.033781
      dxz     :     0.004312
      dyz     :     0.007985
      dx2y2   :     0.007747
      dxy     :     0.009716
  7 C s       :     3.164880  s :     3.164880
      pz      :     0.942550  p :     2.826072
      px      :     0.936540
      py      :     0.946983
      dz2     :     0.004175  d :     0.034806
      dxz     :     0.004929
      dyz     :     0.007584
      dx2y2   :     0.009266
      dxy     :     0.008852
  8 H s       :     0.928446  s :     0.928446
      pz      :     0.004889  p :     0.024093
      px      :     0.010637
      py      :     0.008567
  9 C s       :     3.164871  s :     3.164871
      pz      :     0.957490  p :     2.826853
      px      :     0.936694
      py      :     0.932669
      dz2     :     0.005741  d :     0.034823
      dxz     :     0.004625
      dyz     :     0.007485
      dx2y2   :     0.007815
      dxy     :     0.009156
 10 H s       :     0.929588  s :     0.929588
      pz      :     0.009184  p :     0.024094
      px      :     0.010557
      py      :     0.004352
 11 C s       :     3.160592  s :     3.160592
      pz      :     0.949968  p :     2.802612
      px      :     0.956374
      py      :     0.896270
      dz2     :     0.005743  d :     0.034837
      dxz     :     0.005898
      dyz     :     0.006206
      dx2y2   :     0.009326
      dxy     :     0.007664
 12 H s       :     0.926801  s :     0.926801
      pz      :     0.009201  p :     0.023756
      px      :     0.010167
      py      :     0.004388
 13 H s       :     0.926728  s :     0.926728
      pz      :     0.004969  p :     0.023746
      px      :     0.010081
      py      :     0.008695
 14 H s       :     0.928954  s :     0.928954
      pz      :     0.004996  p :     0.023595
      px      :     0.003324
      py      :     0.015275
 15 C s       :     2.974174  s :     2.974174
      pz      :     1.037252  p :     2.872260
      px      :     1.015262
      py      :     0.819746
      dz2     :     0.008226  d :     0.054387
      dxz     :     0.006879
      dyz     :     0.010288
      dx2y2   :     0.016491
      dxy     :     0.012503
 16 C s       :     3.226129  s :     3.226129
      pz      :     0.948239  p :     2.749453
      px      :     0.904195
      py      :     0.897018
      dz2     :     0.006395  d :     0.033800
      dxz     :     0.004839
      dyz     :     0.006473
      dx2y2   :     0.006871
      dxy     :     0.009222
 17 C s       :     3.226615  s :     3.226615
      pz      :     0.922401  p :     2.744547
      px      :     0.902964
      py      :     0.919182
      dz2     :     0.004020  d :     0.033781
      dxz     :     0.004312
      dyz     :     0.007985
      dx2y2   :     0.007747
      dxy     :     0.009716
 18 C s       :     3.164879  s :     3.164879
      pz      :     0.942550  p :     2.826072
      px      :     0.936540
      py      :     0.946983
      dz2     :     0.004175  d :     0.034806
      dxz     :     0.004929
      dyz     :     0.007584
      dx2y2   :     0.009266
      dxy     :     0.008852
 19 H s       :     0.928446  s :     0.928446
      pz      :     0.004889  p :     0.024093
      px      :     0.010637
      py      :     0.008567
 20 C s       :     3.164872  s :     3.164872
      pz      :     0.957490  p :     2.826853
      px      :     0.936695
      py      :     0.932669
      dz2     :     0.005741  d :     0.034823
      dxz     :     0.004625
      dyz     :     0.007485
      dx2y2   :     0.007815
      dxy     :     0.009156
 21 H s       :     0.929588  s :     0.929588
      pz      :     0.009184  p :     0.024094
      px      :     0.010557
      py      :     0.004352
 22 C s       :     3.160590  s :     3.160590
      pz      :     0.949968  p :     2.802613
      px      :     0.956374
      py      :     0.896271
      dz2     :     0.005743  d :     0.034837
      dxz     :     0.005898
      dyz     :     0.006206
      dx2y2   :     0.009326
      dxy     :     0.007664
 23 H s       :     0.926801  s :     0.926801
      pz      :     0.009201  p :     0.023756
      px      :     0.010167
      py      :     0.004388
 24 H s       :     0.926728  s :     0.926728
      pz      :     0.004969  p :     0.023746
      px      :     0.010081
      py      :     0.008695
 25 H s       :     0.928954  s :     0.928954
      pz      :     0.004996  p :     0.023595
      px      :     0.003324
      py      :     0.015275
 26 C s       :     3.096223  s :     3.096223
      pz      :     0.907301  p :     2.566180
      px      :     0.902394
      py      :     0.756485
      dz2     :     0.011967  d :     0.065968
      dxz     :     0.006402
      dyz     :     0.022462
      dx2y2   :     0.009094
      dxy     :     0.016043
 27 H s       :     0.835152  s :     0.835152
      pz      :     0.019632  p :     0.025196
      px      :     0.004239
      py      :     0.001324
 28 N s       :     3.376278  s :     3.376278
      pz      :     1.147861  p :     3.772177
      px      :     1.483018
      py      :     1.141298
      dz2     :     0.006212  d :     0.032215
      dxz     :     0.006327
      dyz     :     0.010433
      dx2y2   :     0.004243
      dxy     :     0.005000
 29 N s       :     3.376278  s :     3.376278
      pz      :     1.147861  p :     3.772176
      px      :     1.483018
      py      :     1.141298
      dz2     :     0.006212  d :     0.032215
      dxz     :     0.006327
      dyz     :     0.010433
      dx2y2   :     0.004243
      dxy     :     0.005000


                     *******************************
                     * LOEWDIN POPULATION ANALYSIS *
                     *******************************

----------------------
LOEWDIN ATOMIC CHARGES
----------------------
   0 C :    0.037885
   1 C :    0.037885
   2 H :    0.062711
   3 H :    0.062711
   4 C :    0.010871
   5 C :   -0.017542
   6 C :   -0.015896
   7 C :   -0.013350
   8 H :    0.050784
   9 C :   -0.013226
  10 H :    0.050846
  11 C :   -0.011890
  12 H :    0.046371
  13 H :    0.046324
  14 H :    0.044800
  15 C :    0.010871
  16 C :   -0.017542
  17 C :   -0.015896
  18 C :   -0.013350
  19 H :    0.050784
  20 C :   -0.013226
  21 H :    0.050846
  22 C :   -0.011890
  23 H :    0.046371
  24 H :    0.046324
  25 H :    0.044800
  26 C :    0.157526
  27 H :    0.070829
  28 N :    0.107134
  29 N :    0.107134

-------------------------------
LOEWDIN REDUCED ORBITAL CHARGES
-------------------------------
  0 C s       :     2.856756  s :     2.856756
      pz      :     0.919022  p :     2.991073
      px      :     1.020008
      py      :     1.052043
      dz2     :     0.037764  d :     0.114285
      dxz     :     0.014272
      dyz     :     0.034028
      dx2y2   :     0.013765
      dxy     :     0.014456
  1 C s       :     2.856756  s :     2.856756
      pz      :     0.919022  p :     2.991073
      px      :     1.020008
      py      :     1.052043
      dz2     :     0.037764  d :     0.114285
      dxz     :     0.014272
      dyz     :     0.034028
      dx2y2   :     0.013765
      dxy     :     0.014456
  2 H s       :     0.862621  s :     0.862621
      pz      :     0.033121  p :     0.074668
      px      :     0.015457
      py      :     0.026089
  3 H s       :     0.862621  s :     0.862621
      pz      :     0.033121  p :     0.074668
      px      :     0.015457
      py      :     0.026089
  4 C s       :     2.833328  s :     2.833328
      pz      :     1.045530  p :     3.023070
      px      :     1.085048
      py      :     0.892491
      dz2     :     0.017885  d :     0.132731
      dxz     :     0.017332
      dyz     :     0.025228
      dx2y2   :     0.040471
      dxy     :     0.031815
  5 C s       :     2.857446  s :     2.857446
      pz      :     0.997167  p :     3.070889
      px      :     1.013568
      py      :     1.060154
      dz2     :     0.014344  d :     0.089207
      dxz     :     0.013139
      dyz     :     0.017262
      dx2y2   :     0.019626
      dxy     :     0.024836
  6 C s       :     2.857106  s :     2.857106
      pz      :     0.999626  p :     3.069649
      px      :     1.012587
      py      :     1.057437
      dz2     :     0.009106  d :     0.089141
      dxz     :     0.011028
      dyz     :     0.020106
      dx2y2   :     0.022077
      dxy     :     0.026823
  7 C s       :     2.855775  s :     2.855775
      pz      :     0.992419  p :     3.067373
      px      :     1.021754
      py      :     1.053200
      dz2     :     0.009319  d :     0.090203
      dxz     :     0.012277
[...]
     43      -0.018000   0.374631   0.369668  -0.000597  -0.000168   0.000370
     44      -0.008320   0.130003   0.128285  -0.000213  -0.000072   0.000110
     45       0.002222  -0.000061   0.000053  -0.000067  -0.000031  -0.000032
     46       0.000750   0.001249  -0.001242  -0.000200  -0.000243   0.000009
     47       0.001887  -0.000486   0.000475  -0.000445  -0.000248  -0.000249
     48      -0.016656   0.011180  -0.011290  -0.000629  -0.000002   0.000103
     49      -0.018508   0.012908  -0.013051  -0.000512   0.000130   0.000176
     50      -0.008800   0.005726  -0.005780  -0.000250  -0.000033   0.000015
     51      -0.019015  -0.010274   0.010410   0.000012  -0.000362  -0.000281
     52       0.010475   0.006130  -0.006225  -0.000179   0.000155   0.000116
     53      -0.021352  -0.011699   0.011861   0.000074  -0.000287  -0.000221
     54      -0.021863   0.023403  -0.023714   0.000015   0.000019  -0.000025
     55       0.011188  -0.009298   0.009415   0.000016  -0.000058  -0.000044
     56      -0.024864   0.025691  -0.026032   0.000034   0.000047   0.000000
     57       0.187312  -0.124583   0.125804   0.007537   0.000061  -0.001041
     58       0.190161  -0.127044   0.128310   0.006481  -0.000091  -0.001026
     59       0.105185  -0.069827   0.070507   0.003978   0.000086  -0.000616
     60      -0.023245  -0.020656   0.020950  -0.000026  -0.000009   0.000016
     61      -0.025361  -0.020095   0.020380   0.000074  -0.000017   0.000016
     62      -0.013387  -0.012778   0.012962  -0.000032   0.000009   0.000019
     63       0.213496   0.114482  -0.115994  -0.000055   0.004086   0.003271
     64      -0.098686  -0.053397   0.054115   0.000160  -0.001458  -0.001108
     65       0.233102   0.125265  -0.126917  -0.000162   0.003910   0.002949
     66       0.002496  -0.000300   0.000302   0.000032   0.000020   0.000019
     67      -0.000990  -0.034407   0.034854  -0.000038   0.000018   0.000028
     68       0.002790   0.011793  -0.011946   0.000033   0.000006  -0.000004
     69       0.247922  -0.250830   0.254177  -0.000255  -0.000439   0.000010
     70      -0.110233   0.109158  -0.110623   0.000106   0.000272   0.000042
     71       0.275524  -0.277931   0.281639  -0.000216  -0.000540  -0.000033
     72       0.262049   0.219930  -0.223107  -0.000147   0.000128  -0.000217
     73       0.268878   0.223464  -0.226707  -0.000213   0.000206  -0.000176
     74       0.156499   0.132129  -0.134028  -0.000061   0.000105  -0.000087
     75      -0.002152   0.001572  -0.001593   0.000064   0.000031   0.000042
     76       0.018421   0.369719  -0.374579   0.000597  -0.000168  -0.000370
     77      -0.008516  -0.128298   0.129988  -0.000213   0.000072   0.000110
     78      -0.000001   0.000024  -0.000000  -0.000000   0.000011   0.000000
     79       0.000000   0.000081  -0.000001  -0.000000   0.001885   0.000000
     80       0.000488   0.000002   0.000243  -0.093867   0.000000   0.009995
     81      -0.000001   0.000033  -0.000000   0.000002  -0.000047  -0.000000
     82       0.000001  -0.000005   0.000000   0.000000   0.000524  -0.000000
     83      -0.005098  -0.000025  -0.003840   0.991191   0.000000  -0.089657
     84       0.000160  -0.000004   0.000006  -0.000073   0.000026  -0.000024
     85       0.000097  -0.000248  -0.000141  -0.003355   0.000143   0.000716
     86      -0.000210  -0.000025  -0.000080   0.003396  -0.000944   0.002687
     87      -0.000164  -0.000004  -0.000006   0.000073   0.000026   0.000024
     88      -0.000099  -0.000246   0.000144   0.003355   0.000143  -0.000716
     89      -0.000214   0.000024  -0.000080   0.003396   0.000944   0.002687


-----------
IR SPECTRUM
-----------

 Mode   freq       eps      Int      T**2         TX        TY        TZ
       cm**-1   L/(mol*cm) km/mol    a.u.
----------------------------------------------------------------------------
  6:     29.96   0.000021    0.11  0.000223  ( 0.000000 -0.000000  0.014937)
  7:     44.41   0.000067    0.34  0.000471  ( 0.020051 -0.008289 -0.000000)
  8:     66.29   0.000095    0.48  0.000449  (-0.000000 -0.000000 -0.021187)
  9:     86.65   0.000098    0.50  0.000354  (-0.004503  0.018273 -0.000000)
 10:    130.92   0.000079    0.40  0.000187  ( 0.000000 -0.000000  0.013686)
 11:    144.67   0.000097    0.49  0.000210  ( 0.014130  0.003225  0.000000)
 12:    251.71   0.000035    0.18  0.000044  ( 0.000000 -0.000000  0.006610)
 13:    308.08   0.000208    1.05  0.000211  ( 0.000000  0.000000 -0.014530)
 14:    315.70   0.000061    0.31  0.000061  (-0.006693 -0.003969 -0.000000)
 15:    410.89   0.000267    1.35  0.000203  (-0.007914  0.011855 -0.000000)
 16:    426.32   0.000039    0.20  0.000028  ( 0.000001 -0.000001  0.005335)
 17:    426.55   0.000087    0.44  0.000063  (-0.007315  0.003146  0.000001)
 18:    432.39   0.000023    0.12  0.000017  ( 0.000000  0.000000 -0.004068)
 19:    448.92   0.000754    3.81  0.000524  ( 0.020657  0.009882  0.000000)
 20:    538.24   0.003967   20.05  0.002300  (-0.000000  0.000000  0.047960)
 21:    572.02   0.002418   12.22  0.001319  ( 0.032358 -0.016501  0.000000)
 22:    625.19   0.001046    5.29  0.000522  (-0.022077 -0.005891  0.000000)
 23:    625.95   0.000104    0.53  0.000052  ( 0.000001  0.000000  0.007213)
 24:    674.40   0.007216   36.47  0.003339  (-0.057049 -0.009194  0.000001)
 25:    674.90   0.001275    6.45  0.000590  ( 0.000001  0.000000  0.024285)
 26:    694.36   0.000132    0.67  0.000059  ( 0.000000 -0.000000 -0.007711)
 27:    721.82   0.003572   18.05  0.001544  ( 0.025894  0.029562  0.000002)
 28:    723.01   0.011335   57.28  0.004893  ( 0.000044 -0.000019  0.069946)
 29:    723.29   0.013188   66.65  0.005690  (-0.070134  0.027772  0.000045)
 30:    758.17   0.010418   52.65  0.004288  (-0.065403  0.003242  0.000000)
 31:    800.83   0.008144   41.16  0.003174  ( 0.000001 -0.000000  0.056335)
 32:    801.97   0.012953   65.46  0.005040  ( 0.066528 -0.024785 -0.000000)
 33:    875.91   0.000185    0.93  0.000066  ( 0.008055  0.000979  0.000000)
 34:    876.16   0.000021    0.11  0.000008  ( 0.000000  0.000000 -0.002755)
 35:    896.35   0.004402   22.24  0.001532  ( 0.039082  0.002230 -0.000000)
 36:    908.84   0.000016    0.08  0.000006  (-0.000000 -0.000000  0.002375)
 37:    973.23   0.001210    6.12  0.000388  (-0.000001  0.000002 -0.019700)
 38:    973.59   0.001611    8.14  0.000516  (-0.012725  0.018827  0.000002)
 39:    978.80   0.000880    4.45  0.000281  (-0.006077 -0.015613 -0.000000)
 40:    988.01   0.000001    0.00  0.000000  ( 0.000000  0.000000  0.000519)
 41:   1025.54   0.001367    6.91  0.000416  (-0.000386 -0.020389 -0.000000)
 42:   1026.93   0.000175    0.88  0.000053  (-0.000000  0.000000 -0.007283)
 43:   1030.75   0.000062    0.31  0.000019  (-0.004298 -0.000487  0.000002)
 44:   1030.75   0.000049    0.25  0.000015  (-0.000002 -0.000000 -0.003855)
 45:   1059.72   0.000060    0.30  0.000018  (-0.000002  0.000002 -0.004198)
 46:   1059.73   0.000006    0.03  0.000002  ( 0.000723 -0.001177 -0.000009)
 47:   1061.57   0.000415    2.10  0.000122  ( 0.000000  0.000000 -0.011040)
 48:   1062.85   0.002003   10.12  0.000588  (-0.002884 -0.024079 -0.000000)
 49:   1094.49   0.018567   93.83  0.005294  ( 0.006850  0.072435 -0.000000)
 50:   1106.46   0.000965    4.88  0.000272  (-0.000000 -0.000001 -0.016499)
 51:   1112.95   0.003976   20.09  0.001115  ( 0.032844 -0.006008  0.000005)
 52:   1113.74   0.005793   29.28  0.001623  (-0.000004  0.000001  0.040289)
 53:   1146.66   0.000575    2.91  0.000157  ( 0.000000 -0.000000  0.012515)
 54:   1163.15   0.000004    0.02  0.000001  (-0.000026 -0.000014 -0.000999)
 55:   1163.17   0.000039    0.20  0.000011  (-0.002832 -0.001579  0.000009)
 56:   1187.03   0.000009    0.04  0.000002  (-0.001125  0.001029  0.000000)
 57:   1187.17   0.000001    0.01  0.000000  ( 0.000001 -0.000001  0.000627)
 58:   1263.89   0.004029   20.36  0.000995  (-0.000599 -0.031535 -0.000000)
 59:   1290.00   0.013179   66.60  0.003188  ( 0.000614 -0.056459  0.000000)
 60:   1324.57   0.000005    0.02  0.000001  (-0.000000  0.000000 -0.001049)
 61:   1334.81   0.000456    2.31  0.000107  ( 0.010314 -0.000531 -0.000000)
 62:   1355.95   0.000633    3.20  0.000146  (-0.000007 -0.000003  0.012067)
 63:   1356.19   0.001459    7.37  0.000336  (-0.016577 -0.007807 -0.000005)
 64:   1406.05   0.002091   10.57  0.000464  ( 0.000000 -0.000000  0.021544)
 65:   1428.66   0.002032   10.27  0.000444  (-0.008982 -0.019059 -0.000000)
 66:   1471.92   0.000685    3.46  0.000145  ( 0.000000  0.000000  0.012053)
 67:   1510.13   0.002048   10.35  0.000423  (-0.019973 -0.004928 -0.000000)
 68:   1514.60   0.000937    4.74  0.000193  (-0.000000  0.000000  0.013895)
 69:   1545.35   0.014457   73.06  0.002919  (-0.000297 -0.054030 -0.000000)
 70:   1562.32   0.003707   18.73  0.000740  (-0.000000  0.000000 -0.027210)
 71:   1647.62   0.079112  399.80  0.014984  (-0.000022  0.122410 -0.000000)
 72:   1649.76   0.000311    1.57  0.000059  (-0.000000 -0.000002 -0.007668)
 73:   1700.18   0.001999   10.10  0.000367  (-0.016201 -0.010217  0.000000)
 74:   1703.40   0.001497    7.57  0.000274  ( 0.000000  0.000000  0.016563)
 75:   1705.36   0.006157   31.11  0.001127  ( 0.000088  0.033565  0.000000)
 76:   1707.34   0.000192    0.97  0.000035  ( 0.000000  0.000001 -0.005927)
 77:   3221.05   0.000097    0.49  0.000009  ( 0.000551  0.003012  0.000001)
 78:   3221.07   0.000000    0.00  0.000000  ( 0.000004  0.000022 -0.000095)
 79:   3226.51   0.000625    3.16  0.000060  (-0.007610 -0.001583  0.000056)
 80:   3226.52   0.000438    2.21  0.000042  ( 0.000066  0.000014  0.006508)
 81:   3231.07   0.001114    5.63  0.000108  ( 0.000534  0.010357  0.000142)
 82:   3231.08   0.000092    0.46  0.000009  (-0.000026 -0.000501  0.002938)
 83:   3237.71   0.000190    0.96  0.000018  ( 0.003836  0.001897 -0.000042)
 84:   3237.72   0.000139    0.70  0.000013  (-0.000045 -0.000022 -0.003654)
 85:   3243.59   0.000991    5.01  0.000095  ( 0.000289 -0.009761 -0.000022)
 86:   3243.60   0.000113    0.57  0.000011  (-0.000002  0.000064 -0.003302)
 87:   3298.99   0.016389   82.82  0.001550  ( 0.000000 -0.000000  0.039374)
 88:   3304.85   0.007526   38.04  0.000711  ( 0.000375  0.026656 -0.000000)
 89:   3322.69   0.005194   26.25  0.000488  ( 0.000000  0.000000  0.022087)

* The epsilon (eps) is given for a Dirac delta lineshape.
** The dipole moment derivative (T) already includes vibrational overlap.

The first frequency considered to be a vibration is 6
The total number of vibrations considered is 84


--------------------------
THERMOCHEMISTRY AT 298.15K
--------------------------

Temperature         ... 298.15 K
Pressure            ... 1.00 atm
Total Mass          ... 221.28 AMU

Throughout the following assumptions are being made:
  (1) The electronic state is orbitally nondegenerate
  (2) There are no thermally accessible electronically excited states
  (3) Hindered rotations indicated by low frequency modes are not
      treated as such but are treated as vibrations and this may
      cause some error
  (4) All equations used are the standard statistical mechanics
      equations for an ideal gas
  (5) All vibrations are strictly harmonic

freq.      29.96  E(vib)   ...       0.55 
freq.      44.41  E(vib)   ...       0.53 
freq.      66.29  E(vib)   ...       0.50 
freq.      86.65  E(vib)   ...       0.48 
freq.     130.92  E(vib)   ...       0.42 
freq.     144.67  E(vib)   ...       0.41 
freq.     251.71  E(vib)   ...       0.30 
freq.     308.08  E(vib)   ...       0.26 
freq.     315.70  E(vib)   ...       0.25 
freq.     410.89  E(vib)   ...       0.19 
freq.     426.32  E(vib)   ...       0.18 
freq.     426.55  E(vib)   ...       0.18 
freq.     432.39  E(vib)   ...       0.18 
freq.     448.92  E(vib)   ...       0.17 
freq.     538.24  E(vib)   ...       0.12 
freq.     572.02  E(vib)   ...       0.11 
freq.     625.19  E(vib)   ...       0.09 
freq.     625.95  E(vib)   ...       0.09 
freq.     674.40  E(vib)   ...       0.08 
freq.     674.90  E(vib)   ...       0.08 
freq.     694.36  E(vib)   ...       0.07 
freq.     721.82  E(vib)   ...       0.07 
freq.     723.01  E(vib)   ...       0.07 
freq.     723.29  E(vib)   ...       0.07 
freq.     758.17  E(vib)   ...       0.06 
freq.     800.83  E(vib)   ...       0.05 
freq.     801.97  E(vib)   ...       0.05 
freq.     875.91  E(vib)   ...       0.04 
freq.     876.16  E(vib)   ...       0.04 
freq.     896.35  E(vib)   ...       0.03 
freq.     908.84  E(vib)   ...       0.03 
freq.     973.23  E(vib)   ...       0.03 
freq.     973.59  E(vib)   ...       0.03 
freq.     978.80  E(vib)   ...       0.03 
freq.     988.01  E(vib)   ...       0.02 
freq.    1025.54  E(vib)   ...       0.02 
freq.    1026.93  E(vib)   ...       0.02 
freq.    1030.75  E(vib)   ...       0.02 
freq.    1030.75  E(vib)   ...       0.02 
freq.    1059.72  E(vib)   ...       0.02 
freq.    1059.73  E(vib)   ...       0.02 
freq.    1061.57  E(vib)   ...       0.02 
freq.    1062.85  E(vib)   ...       0.02 
freq.    1094.49  E(vib)   ...       0.02 
freq.    1106.46  E(vib)   ...       0.02 
freq.    1112.95  E(vib)   ...       0.01 
freq.    1113.74  E(vib)   ...       0.01 
freq.    1146.66  E(vib)   ...       0.01 
freq.    1163.15  E(vib)   ...       0.01 
freq.    1163.17  E(vib)   ...       0.01 
freq.    1187.03  E(vib)   ...       0.01 
freq.    1187.17  E(vib)   ...       0.01 
freq.    1263.89  E(vib)   ...       0.01 
freq.    1290.00  E(vib)   ...       0.01 
freq.    1324.57  E(vib)   ...       0.01 
freq.    1334.81  E(vib)   ...       0.01 
freq.    1355.95  E(vib)   ...       0.01 
freq.    1356.19  E(vib)   ...       0.01 
freq.    1406.05  E(vib)   ...       0.00 
freq.    1428.66  E(vib)   ...       0.00 
freq.    1471.92  E(vib)   ...       0.00 
freq.    1510.13  E(vib)   ...       0.00 
freq.    1514.60  E(vib)   ...       0.00 
freq.    1545.35  E(vib)   ...       0.00 
freq.    1562.32  E(vib)   ...       0.00 
freq.    1647.62  E(vib)   ...       0.00 
freq.    1649.76  E(vib)   ...       0.00 
freq.    1700.18  E(vib)   ...       0.00 
freq.    1703.40  E(vib)   ...       0.00 
freq.    1705.36  E(vib)   ...       0.00 
freq.    1707.34  E(vib)   ...       0.00 
freq.    3221.05  E(vib)   ...       0.00 
freq.    3221.07  E(vib)   ...       0.00 
freq.    3226.51  E(vib)   ...       0.00 
freq.    3226.52  E(vib)   ...       0.00 
freq.    3231.07  E(vib)   ...       0.00 
freq.    3231.08  E(vib)   ...       0.00 
freq.    3237.71  E(vib)   ...       0.00 
freq.    3237.72  E(vib)   ...       0.00 
freq.    3243.59  E(vib)   ...       0.00 
freq.    3243.60  E(vib)   ...       0.00 
freq.    3298.99  E(vib)   ...       0.00 
freq.    3304.85  E(vib)   ...       0.00 
freq.    3322.69  E(vib)   ...       0.00 

------------
INNER ENERGY
------------

The inner energy is: U= E(el) + E(ZPE) + E(vib) + E(rot) + E(trans)
    E(el)   - is the total energy from the electronic structure calculation
              = E(kin-el) + E(nuc-el) + E(el-el) + E(nuc-nuc)
    E(ZPE)  - the the zero temperature vibrational energy from the frequency calculation
    E(vib)  - the the finite temperature correction to E(ZPE) due to population
              of excited vibrational states
    E(rot)  - is the rotational thermal energy
    E(trans)- is the translational thermal energy

Summary of contributions to the inner energy U:
Electronic energy                ...   -688.11903716 Eh
Zero point energy                ...      0.24897120 Eh     156.23 kcal/mol
Thermal vibrational correction   ...      0.00984778 Eh       6.18 kcal/mol
Thermal rotational correction    ...      0.00141627 Eh       0.89 kcal/mol
Thermal translational correction ...      0.00141627 Eh       0.89 kcal/mol
-----------------------------------------------------------------------
Total thermal energy                   -687.85738563 Eh


Summary of corrections to the electronic energy:
(perhaps to be used in another calculation)
Total thermal correction                  0.01268032 Eh       7.96 kcal/mol
Non-thermal (ZPE) correction              0.24897120 Eh     156.23 kcal/mol
-----------------------------------------------------------------------
Total correction                          0.26165152 Eh     164.19 kcal/mol


--------
ENTHALPY
--------

The enthalpy is H = U + kB*T
                kB is Boltzmann's constant
Total free energy                 ...   -687.85738563 Eh 
Thermal Enthalpy correction       ...      0.00094421 Eh       0.59 kcal/mol
-----------------------------------------------------------------------
Total Enthalpy                    ...   -687.85644142 Eh


Note: Rotational entropy computed according to Herzberg 
Infrared and Raman Spectra, Chapter V,1, Van Nostrand Reinhold, 1945 
Point Group:  C2, Symmetry Number:   2  
Rotational constants in cm-1:     0.052775     0.006755     0.006435 

Vibrational entropy computed according to the QRRHO of S. Grimme
Chem.Eur.J. 2012 18 9955


-------
ENTROPY
-------

The entropy contributions are T*S = T*(S(el)+S(vib)+S(rot)+S(trans))
     S(el)   - electronic entropy
     S(vib)  - vibrational entropy
     S(rot)  - rotational entropy
     S(trans)- translational entropy
The entropies will be listed as multiplied by the temperature to get
units of energy

Electronic entropy                ...      0.00000000 Eh      0.00 kcal/mol
Vibrational entropy               ...      0.01687202 Eh     10.59 kcal/mol
Rotational entropy                ...      0.01498655 Eh      9.40 kcal/mol
Translational entropy             ...      0.01999615 Eh     12.55 kcal/mol
-----------------------------------------------------------------------
Final entropy term                ...      0.05185472 Eh     32.54 kcal/mol

In case the symmetry of your molecule has not been determined correctly
or in case you have a reason to use a different symmetry number we print 
out the resulting rotational entropy values for sn=1,12 :
 --------------------------------------------------------
|  sn= 1 | S(rot)=       0.01564101 Eh      9.81 kcal/mol|
|  sn= 2 | S(rot)=       0.01498655 Eh      9.40 kcal/mol|
|  sn= 3 | S(rot)=       0.01460372 Eh      9.16 kcal/mol|
|  sn= 4 | S(rot)=       0.01433210 Eh      8.99 kcal/mol|
|  sn= 5 | S(rot)=       0.01412141 Eh      8.86 kcal/mol|
|  sn= 6 | S(rot)=       0.01394927 Eh      8.75 kcal/mol|
|  sn= 7 | S(rot)=       0.01380372 Eh      8.66 kcal/mol|
|  sn= 8 | S(rot)=       0.01367764 Eh      8.58 kcal/mol|
|  sn= 9 | S(rot)=       0.01356643 Eh      8.51 kcal/mol|
|  sn=10 | S(rot)=       0.01346695 Eh      8.45 kcal/mol|
|  sn=11 | S(rot)=       0.01337696 Eh      8.39 kcal/mol|
|  sn=12 | S(rot)=       0.01329481 Eh      8.34 kcal/mol|
 --------------------------------------------------------


-------------------
GIBBS FREE ENERGY
-------------------

The Gibbs free energy is G = H - T*S

Total enthalpy                    ...   -687.85644142 Eh 
Total entropy correction          ...     -0.05185472 Eh    -32.54 kcal/mol
-----------------------------------------------------------------------
Final Gibbs free energy         ...   -687.90829614 Eh

For completeness - the Gibbs free energy minus the electronic energy
G-E(el)                           ...      0.21074102 Eh    132.24 kcal/mol


Timings for individual modules:

Sum of individual times         ...     1422.997 sec (=  23.717 min)
GTO integral calculation        ...        6.687 sec (=   0.111 min)   0.5 %
SCF iterations                  ...      613.499 sec (=  10.225 min)  43.1 %
SCF Gradient evaluation         ...      124.746 sec (=   2.079 min)   8.8 %
Geometry relaxation             ...        1.186 sec (=   0.020 min)   0.1 %
Analytical frequency calculation...      676.879 sec (=  11.281 min)  47.6 %
                             ****ORCA TERMINATED NORMALLY****
TOTAL RUN TIME: 0 days 0 hours 23 minutes 47 seconds 528 msec
